
 Primary working directories    : /scratch/klimes/383104/molpro.W6kKSmuo5t
 Secondary working directories  : /scratch/klimes/383104/molpro.W6kKSmuo5t
 Wavefunction directory         : /scratch/klimes/383104/
 Main file repository           : /scratch/klimes/383104/molpro.W6kKSmuo5t/

 id        : karlovklimes

 Nodes                      nprocs
 nc-22.cc.karlov.mff.cuni.cz    4

 Using customized tuning parameters: mindgm=1; mindgv=20; mindgc=4; mindgr=1; noblas=0; minvec=7
 default implementation of scratch files=sf  


 Variables initialized (930), CPU time= 0.07 sec
                                                                                 !gdirect
 memory,2000,m
 gthresh,orbital=1d-10,energy=1d-10,grid=1d-8
 
 symmetry,nosym
 angstrom
 geometry={
 O1         0.000000000000      0.000000000000      0.000000000000
 H1         0.000000000000      0.000000000000      0.974900000000
 H2         0.000000000000      0.942300000000     -0.261200000000
 C1        -3.277200000000      1.482500000000      1.271900000000
 H41        -2.464000000000      0.899600000000      1.651000000000
 H42        -3.160800000000      2.501000000000      1.578500000000
 H43        -4.201800000000      1.099200000000      1.650100000000
 H44        -3.268500000000      1.421000000000      0.203700000000
 }
 
 nkerna=1
 nkernb=1
 
 gf=0
 sing=1
 thrdum=1d-4
 gridthr=1d-8
 
 basis={
 set,orbital
 default,avqz
 set,jkfit
 default,avqz/jkfit
 set,mp2fit
 default,avqz/mp2fit
 set,ri
 default,avqz/optri
 set,tddft
 default,avqz/mp2fit
 }
 
 proc set_monomer1
 dummy,4,5,6,7,8
 endproc
 
 proc set_monomer2
 dummy,1,2,3
 endproc
 
                                                                                 !1234 energy
 {hf,accu=1.d-16}
 ccsd(t)
 
 set_monomer1
 {hf,accu=1.d-16}
 ccsd(t)
 
 set_monomer2
 {hf,accu=1.d-16}
 ccsd(t)
 
 Commands  initialized (760), CPU time= 0.02 sec, 617 directives.
 Default parameters read. Elapsed time= 0.19 sec

 Checking input...
 Passed
1


                                         ***  PROGRAM SYSTEM MOLPRO  ***
                                       Copyright, TTI GmbH Stuttgart, 2015
                                    Version 2019.1 linked Jan 14 2019 13:09:19


 **********************************************************************************************************************************
 LABEL *                                                                                 
  64 bit mpp version                                                                     DATE: 11-Mar-20          TIME: 13:21:23  
 **********************************************************************************************************************************

 SHA1:             d688ac825633d238f2093ded1675ba87ccd55965
 **********************************************************************************************************************************

 THRESHOLDS:

 ZERO    =  1.00D-12  ONEINT  =  1.00D-12  TWOINT  =  1.00D-11  PREFAC  =  1.00D-14  XXXXXX  =  1.00D-09  EORDER  =  1.00D-04
 ENERGY  =  1.00D-10  ETEST   =  0.00D+00  EDENS   =  0.00D+00  THRDEDEF=  1.00D-06  GRADIENT=  1.00D-02  STEP    =  1.00D-03
 ORBITAL =  1.00D-10  CIVEC   =  1.00D-05  COEFF   =  1.00D-04  PRINTCI =  5.00D-02  PUNCHCI =  9.90D+01  OPTGRAD =  3.00D-04
 OPTENERG=  1.00D-06  OPTSTEP =  3.00D-04  THRGRAD =  1.00D-10  COMPRESS=  1.00D-11  VARMIN  =  1.00D-07  VARMAX  =  1.00D-03
 THRDOUB =  0.00D+00  THRDIV  =  1.00D-05  THRRED  =  1.00D-07  THRPSP  =  1.00D+00  THRDC   =  1.00D-10  THRCS   =  1.00D-10
 THRNRM  =  1.00D-08  THREQ   =  0.00D+00  THRDE   =  1.00D+00  THRREF  =  1.00D-05  SPARFAC =  1.00D+00  THRDLP  =  1.00D-07
 THRDIA  =  1.00D-10  THRDLS  =  1.00D-07  THRGPS  =  0.00D+00  THRKEX  =  0.00D+00  THRDIS  =  2.00D-01  THRVAR  =  1.00D-10
 THRLOC  =  1.00D-06  THRGAP  =  1.00D-06  THRLOCT = -1.00D+00  THRGAPT = -1.00D+00  THRORB  =  1.00D-06  THRMLTP =  0.00D+00
 THRCPQCI=  1.00D-10  KEXTA   =  0.00D+00  THRCOARS=  0.00D+00  SYMTOL  =  1.00D-06  GRADTOL =  1.00D-06  THROVL  =  1.00D-08
 THRORTH =  1.00D-08  GRID    =  1.00D-08  GRIDMAX =  1.00D-03  DTMAX   =  0.00D+00  THROCCDE=  1.00D-01  THROCCDE=  1.00D-01
 THRPRINT=  2.50D-01


 Variable memory set to 2000000000 words,  buffer space 

 ZSYMEL=NOSYM
 ZUNIT=ANG


Geometry recognized as XYZ

 SETTING NKERNA         =         1.00000000                                  
 SETTING NKERNB         =         1.00000000                                  
 SETTING GF             =     0.00000000D+00                                  
 SETTING SING           =         1.00000000                                  
 SETTING THRDUM         =     1.00000000D-04                                  
 SETTING GRIDTHR        =     1.00000000D-08                                  
 SETTING BASIS          =    AVQZ


 Recomputing integrals since basis changed


 Using spherical harmonics

 Library entry O      S aug-cc-pVQZ          selected for orbital group  1
 Library entry O      P aug-cc-pVQZ          selected for orbital group  1
 Library entry O      D aug-cc-pVQZ          selected for orbital group  1
 Library entry O      F aug-cc-pVQZ          selected for orbital group  1
 Library entry O      G aug-cc-pVQZ          selected for orbital group  1
 Library entry H      S aug-cc-pVQZ          selected for orbital group  2
 Library entry H      P aug-cc-pVQZ          selected for orbital group  2
 Library entry H      D aug-cc-pVQZ          selected for orbital group  2
 Library entry H      F aug-cc-pVQZ          selected for orbital group  2
 Library entry C      S aug-cc-pVQZ          selected for orbital group  3
 Library entry C      P aug-cc-pVQZ          selected for orbital group  3
 Library entry C      D aug-cc-pVQZ          selected for orbital group  3
 Library entry C      F aug-cc-pVQZ          selected for orbital group  3
 Library entry C      G aug-cc-pVQZ          selected for orbital group  3


 PROGRAM * SEWARD (Integral evaluation for generally contracted gaussian basis sets)     Author: Roland Lindh, 1990

 Geometry written to block  1 of record 700


 Point group  C1  



 ATOMIC COORDINATES

 NR  ATOM    CHARGE       X              Y              Z

   1  O1      8.00    0.000000000    0.000000000    0.000000000
   2  H1      1.00    0.000000000    0.000000000    1.842293999
   3  H2      1.00    0.000000000    1.780688927   -0.493596464
   4  C1      6.00   -6.193010455    2.801518980    2.403542658
   5  H41     1.00   -4.656285171    1.699997622    3.119937832
   6  H42     1.00   -5.973046335    4.726205038    2.982932688
   7  H43     1.00   -7.940251230    2.077186956    3.118237078
   8  H44     1.00   -6.176569838    2.685300823    0.384937212

 Bond lengths in Bohr (Angstrom)

 1-2  1.842293999  1-3  1.847834009  4-5  2.021904040  4-6  2.022002335  4-7  2.021953343
     ( 0.974900000)     ( 0.977831647)     ( 1.069945541)     ( 1.069997556)     ( 1.069971630)

 4-8  2.022015060
     ( 1.070004290)

 Bond angles

  2-1-3  105.49305961   5-4-6  109.53398059   5-4-7  109.65604535   5-4-8  108.43490854

  6-4-7  109.49436728   6-4-8  109.86987750   7-4-8  109.83468330

 NUCLEAR CHARGE:                   20
 NUMBER OF PRIMITIVE AOS:         578
 NUMBER OF SYMMETRY AOS:          474
 NUMBER OF CONTRACTIONS:          436   (  436A   )
 NUMBER OF CORE ORBITALS:           2   (    2A   )
 NUMBER OF VALENCE ORBITALS:       14   (   14A   )


 NUCLEAR REPULSION ENERGY   36.71209306


 Basis set:  JKFIT                   
 Basis size:   740
 Attributes:
 Sphericals:   T
 Basis set:  MP2FIT                  
 Basis size:   816
 Attributes:
 Sphericals:   T
 Basis set:  RI                      
 Basis size:   556
 Attributes:
 Sphericals:   T
 Basis set:  TDDFT                   
 Basis size:   816
 Attributes:
 Sphericals:   T

 **********************************************************************************************************************************


 Eigenvalues of metric

         1 0.155E-04 0.265E-04 0.287E-04 0.362E-04 0.626E-04 0.925E-04 0.947E-04 0.102E-03


 Contracted 2-electron integrals neglected if value below      1.0D-14
 AO integral compression algorithm  1   Integral accuracy      1.0D-14

     23038.263 MB (compressed) written to integral file ( 57.5%)

     Node minimum: 5137.498 MB, node maximum: 6401.556 MB


 NUMBER OF SORTED TWO-ELECTRON INTEGRALS: 1134451344.     BUFFER LENGTH:  32768
 NUMBER OF SEGMENTS:  36  SEGMENT LENGTH:   31999984      RECORD LENGTH: 524288

 Memory used in sort:      32.56 MW

 SORT1 READ  5012305700. AND WROTE   968643922. INTEGRALS IN   2790 RECORDS. CPU TIME:   305.44 SEC, REAL TIME:   357.21 SEC
 SORT2 READ  3874830241. AND WROTE  4537853011. INTEGRALS IN  78392 RECORDS. CPU TIME:    13.68 SEC, REAL TIME:   188.09 SEC

 Node minimum:  1134427528.  Node maximum:  1134498978. integrals

 OPERATOR DM      FOR CENTER  0  COORDINATES:    0.000000    0.000000    0.000000


 **********************************************************************************************************************************
 DATASETS  * FILE   NREC   LENGTH (MB)   RECORD NAMES
              1      18       37.06       500      610      700      900      950      970     1000      129      960     1100   
                                          VAR    BASINP    GEOM    SYMINP    ZMAT    AOBASIS   BASIS     P2S    ABASIS      S 
                                         1400     1410     1200     1210     1080     1600     1650     1700   
                                           T        V       H0       H01     AOSYM     SMH    MOLCAS    OPER   

 PROGRAMS   *        TOTAL       INT
 CPU TIMES  *       384.00    383.70
 REAL TIME  *       626.28 SEC
 DISK USED  *        37.58 MB (local),       69.63 GB (total)
 GA USED    *         0.00 MB       (max)       0.00 MB       (current)
 **********************************************************************************************************************************


 PROGRAM * RHF-SCF (CLOSED SHELL)       Authors: W. Meyer, H.-J. Werner


 NUMBER OF ELECTRONS:      10+   10-    SPACE SYMMETRY=1    SPIN SYMMETRY: Singlet 
 CONVERGENCE THRESHOLDS:    1.00E-08 (Density)    1.00E-11 (Energy)
 MAX. NUMBER OF ITERATIONS:       60
 INTERPOLATION TYPE:            DIIS
 INTERPOLATION STEPS:              2 (START)      1 (STEP)
 LEVEL SHIFTS:                  0.00 (CLOSED)  0.00 (OPEN) 



 Orbital guess generated from atomic densities. Full valence occupancy:   16

 Molecular orbital dump at record        2100.2

 Initial occupancy:  10

 ITERATION    DDIFF          GRAD             ENERGY        2-EL.EN.            DIPOLE MOMENTS         DIIS   ORB.
    1      0.000D+00      0.000D+00      -116.22106209    158.827583    0.00414    0.91018    0.68723    0    start
    2      0.000D+00      0.379D-02      -116.26516165    154.008487   -0.03228    0.51255    0.37910    1    diag
    3      0.273D-02      0.221D-02      -116.27860172    156.023878   -0.02154    0.61382    0.45746    2    diag
    4      0.944D-03      0.330D-03      -116.27926082    155.911881   -0.02041    0.60506    0.45142    3    diag
    5      0.204D-03      0.965D-04      -116.27932940    155.906493   -0.02095    0.60463    0.45134    4    diag
    6      0.820D-04      0.235D-04      -116.27933323    155.912196   -0.02105    0.60393    0.45097    5    diag
    7      0.222D-04      0.468D-05      -116.27933346    155.910528   -0.02108    0.60393    0.45102    6    diag
    8      0.653D-05      0.118D-05      -116.27933348    155.910699   -0.02110    0.60387    0.45100    7    diag
    9      0.149D-05      0.278D-06      -116.27933348    155.910672   -0.02110    0.60386    0.45098    8    diag
   10      0.418D-06      0.335D-07      -116.27933348    155.910674   -0.02110    0.60386    0.45098    9    orth
   11      0.437D-07      0.822D-08      -116.27933348    155.910675   -0.02110    0.60386    0.45098    9    diag
   12      0.904D-08      0.227D-08      -116.27933348    155.910675   -0.02110    0.60386    0.45098    0    orth

 Final occupancy:  10

 !RHF STATE  1.1 Energy              -116.279333477625
 Nuclear energy                        36.71209306
 One-electron energy                 -230.94676387
 Two-electron energy                   77.95533734
 Virial quotient                       -1.00064642
 !RHF STATE  1.1 Dipole moment         -0.02110214     0.60385546     0.45098323
 Dipole moment /Debye                  -0.05363278     1.53474697     1.14620995

 Orbital energies:

         1.1          2.1          3.1          4.1          5.1          6.1          7.1          8.1          9.1         10.1
    -20.566909   -11.199374    -1.342121    -0.953914    -0.708902    -0.579569    -0.555360    -0.553309    -0.551147    -0.507440

        11.1         12.1
      0.023454     0.038187


 HOMO     10.1    -0.507440 =     -13.8081eV
 LUMO     11.1     0.023454 =       0.6382eV
 LUMO-HOMO         0.530893 =      14.4463eV


 **********************************************************************************************************************************
 DATASETS  * FILE   NREC   LENGTH (MB)   RECORD NAMES
              1      18       37.06       500      610      700      900      950      970     1000      129      960     1100   
                                          VAR    BASINP    GEOM    SYMINP    ZMAT    AOBASIS   BASIS     P2S    ABASIS      S 
                                         1400     1410     1200     1210     1080     1600     1650     1700   
                                           T        V       H0       H01     AOSYM     SMH    MOLCAS    OPER   

              2       4        6.75       700     1000      520     2100   
                                         GEOM     BASIS   MCVARS     RHF  

 PROGRAMS   *        TOTAL    HF-SCF       INT
 CPU TIMES  *       564.65    180.59    383.70
 REAL TIME  *      1082.38 SEC
 DISK USED  *        57.63 MB (local),       69.71 GB (total)
 SF USED    *         0.76 MB
 GA USED    *         0.00 MB       (max)       0.00 MB       (current)
 **********************************************************************************************************************************

 Basis set:  JKFIT                   
 Basis size:   740
 Attributes:
 Sphericals:   T
 Basis set:  MP2FIT                  
 Basis size:   816
 Attributes:
 Sphericals:   T
 Basis set:  RI                      
 Basis size:   556
 Attributes:
 Sphericals:   T
 Basis set:  TDDFT                   
 Basis size:   816
 Attributes:
 Sphericals:   T

 PROGRAM * CCSD (Closed-shell coupled cluster)     Authors: C. Hampel, H.-J. Werner, 1991, M. Deegan, P.J. Knowles, 1992


 Convergence thresholds:  THRVAR = 1.00D-08  THRDEN = 1.00D-10

 CCSD(T)     terms to be evaluated (factor= 1.000)


 Number of core orbitals:           2 (   2 )
 Number of closed-shell orbitals:   8 (   8 )
 Number of external orbitals:     426 ( 426 )

 Molecular orbitals read from record     2100.2  Type=RHF/CANONICAL (state 1.1)

 Number of N-1 electron functions:               8
 Number of N-2 electron functions:              36
 Number of singly external CSFs:              3408
 Number of doubly external CSFs:           5808936
 Total number of CSFs:                     5812345

 Length of J-op  integral file:               0.00 MB
 Length of K-op  integral file:              13.08 MB
 Length of 3-ext integral record:             0.00 MB

 Memory could be reduced to 828.85 Mwords without degradation in triples

 Integral transformation finished. Total CPU: 300.42 sec, npass=  1  Memory used: 389.48 MW

 Reference energy:                   -116.27933348

 MP2 singlet pair energy:              -0.34070145
 MP2 triplet pair energy:              -0.15834514
 MP2 correlation energy:               -0.49904659
 MP2 total energy:                   -116.77838007

 SCS-MP2 correlation energy:           -0.50736761   (PS=  1.200000  PT=  0.333333)
 SCS-MP2 total energy:               -116.78670108

 ITER.      SQ.NORM     CORR.ENERGY   TOTAL ENERGY   ENERGY CHANGE        DEN1      VAR(S)    VAR(P)  DIIS     TIME  TIME/IT
   1      1.13552120    -0.51680626  -116.79613973    -0.01775966    -0.00632739  0.14D-02  0.20D-02  1  1   457.29   161.99
   2      1.14408650    -0.51816024  -116.79749372    -0.00135399    -0.01019531  0.27D-04  0.25D-03  2  2   616.60   162.11
   3      1.14727897    -0.51828005  -116.79761353    -0.00011980    -0.00224301  0.12D-04  0.12D-04  3  3   776.12   162.22
   4      1.14813063    -0.51828212  -116.79761559    -0.00000207    -0.00040557  0.58D-06  0.12D-05  4  4   935.46   162.13
   5      1.14828705    -0.51828183  -116.79761531     0.00000028    -0.00004618  0.20D-06  0.85D-07  5  5  1094.92   162.07
   6      1.14833510    -0.51827817  -116.79761165     0.00000366    -0.00001159  0.19D-07  0.65D-08  6  6  1254.07   161.99
   7      1.14834424    -0.51827719  -116.79761067     0.00000098    -0.00000147  0.18D-08  0.98D-09  6  2  1413.64   161.97
   8      1.14834625    -0.51827704  -116.79761052     0.00000015    -0.00000006  0.35D-09  0.11D-09  6  1  1573.42   161.97
   9      1.14834714    -0.51827699  -116.79761047     0.00000005     0.00000003  0.28D-10  0.14D-10  6  3  1733.44   161.97
  10      1.14834730    -0.51827698  -116.79761046     0.00000001     0.00000006  0.30D-11  0.21D-11  6  4  1892.79   161.92
  11      1.14834726    -0.51827699  -116.79761047    -0.00000001     0.00000006  0.56D-12  0.28D-12  6  5  2052.27   161.91
  12      1.14834725    -0.51827699  -116.79761047    -0.00000000     0.00000002  0.10D-12  0.36D-13  6  6  2211.96   161.90
  13      1.14834723    -0.51827699  -116.79761047    -0.00000000     0.00000001  0.19D-13  0.57D-14  6  2  2371.74   161.91
  14      1.14834722    -0.51827699  -116.79761047    -0.00000000     0.00000000  0.28D-14  0.12D-14  6  1  2531.87   161.94
  15      1.14834722    -0.51827699  -116.79761047    -0.00000000     0.00000000  0.35D-15  0.18D-15  6  3  2691.21   161.92
  16      1.14834722    -0.51827699  -116.79761047    -0.00000000    -0.00000000  0.64D-16  0.27D-16  6  4  2850.26   161.89
  17      1.14834722    -0.51827699  -116.79761047     0.00000000    -0.00000000  0.14D-16  0.44D-17  6  5  3009.48   161.87

 Norm of t1 vector:      0.05016461      S-energy:    -0.00000000      T1 diagnostic:  0.00886793
                                                                       D1 diagnostic:  0.02058439

   CPU time for triples:   2052.77 sec for i =  1 -  7 /  8 (~  68.8 % done)
   CPU time for triples:    819.29 sec for i =  8 -  8 /  8 (  100.0 % done)

 Total CPU time for triples:   2878.63 sec


 RESULTS
 =======

  Reference energy                   -116.279333477630
  CCSD singlet pair energy             -0.373316921884
  CCSD triplet pair energy             -0.144960071475
  CCSD correlation energy              -0.518276993703

  Triples (T) contribution             -0.016600698545
  Total correlation energy             -0.534877692248

  CCSD total energy                  -116.797610471333
  CCSD[T] energy                     -116.814745247937
  CCSD-T energy                      -116.813987604900
 !CCSD(T) total energy               -116.814211169878

 Timing summary (sec):

 STEP                 CPU(USER)    SYS     CPU(TOT)    WALL
 Transformation        301.56      7.94    309.50    322.89
 CCSD iterations      2708.03     33.72   2741.75   2752.07
 Triples              2878.63     10.23   2888.86   2892.55

 Program statistics:

 Available memory in ccsd:              1999999734
 Min. memory needed in ccsd:              17010489
 Max. memory used in ccsd:                22038113
 Max. memory used in cckext:              15155228 (17 integral passes)



 **********************************************************************************************************************************
 DATASETS  * FILE   NREC   LENGTH (MB)   RECORD NAMES
              1      19     2602.11       500      610      700      900      950      970     1000      129      960     1100   
                                          VAR    BASINP    GEOM    SYMINP    ZMAT    AOBASIS   BASIS     P2S    ABASIS      S 
                                         1400     1410     1200     1210     1080     1600     1650     1700     1380   
                                           T        V       H0       H01     AOSYM     SMH    MOLCAS    OPER     JKOP   

              2       4        6.75       700     1000      520     2100   
                                         GEOM     BASIS   MCVARS     RHF  

 PROGRAMS   *        TOTAL   CCSD(T)    HF-SCF       INT
 CPU TIMES  *      6453.11   5888.46    180.59    383.70
 REAL TIME  *      7051.28 SEC
 DISK USED  *         3.24 GB (local),       80.54 GB (total)
 SF USED    *         3.08 GB
 GA USED    *         0.00 MB       (max)       0.00 MB       (current)
 **********************************************************************************************************************************

 Running procedure: SET_MONOMER1

 Dummy atoms: C1  H41  H42  H43  H44


 Recomputing one-electron integrals since nuclear charges changed


 PROGRAM * SEWARD (Integral evaluation for generally contracted gaussian basis sets)     Author: Roland Lindh, 1990

 Geometry written to block  1 of record 700


 Point group  C1  



 ATOMIC COORDINATES

 NR  ATOM    CHARGE       X              Y              Z

   1  O1      8.00    0.000000000    0.000000000    0.000000000
   2  H1      1.00    0.000000000    0.000000000    1.842293999
   3  H2      1.00    0.000000000    1.780688927   -0.493596464
   4  C1      0.00   -6.193010455    2.801518980    2.403542658
   5  H41     0.00   -4.656285171    1.699997622    3.119937832
   6  H42     0.00   -5.973046335    4.726205038    2.982932688
   7  H43     0.00   -7.940251230    2.077186956    3.118237078
   8  H44     0.00   -6.176569838    2.685300823    0.384937212

 Bond lengths in Bohr (Angstrom)

 1-2  1.842293999  1-3  1.847834009  4-5  2.021904040  4-6  2.022002335  4-7  2.021953343
     ( 0.974900000)     ( 0.977831647)     ( 1.069945541)     ( 1.069997556)     ( 1.069971630)

 4-8  2.022015060
     ( 1.070004290)

 Bond angles

  2-1-3  105.49305961   5-4-6  109.53398059   5-4-7  109.65604535   5-4-8  108.43490854

  6-4-7  109.49436728   6-4-8  109.86987750   7-4-8  109.83468330

 NUCLEAR CHARGE:                   10
 NUMBER OF PRIMITIVE AOS:         578
 NUMBER OF SYMMETRY AOS:          474
 NUMBER OF CONTRACTIONS:          436   (  436A   )
 NUMBER OF CORE ORBITALS:           1   (    1A   )
 NUMBER OF VALENCE ORBITALS:        6   (    6A   )

 MOLECULE CHANGED: INITIALIZING OCCUPATION AND DUMP RECORDS


 NUCLEAR REPULSION ENERGY    9.01226390

 Basis set:  JKFIT                   
 Basis size:   740
 Attributes:
 Sphericals:   T
 Basis set:  MP2FIT                  
 Basis size:   816
 Attributes:
 Sphericals:   T
 Basis set:  RI                      
 Basis size:   556
 Attributes:
 Sphericals:   T
 Basis set:  TDDFT                   
 Basis size:   816
 Attributes:
 Sphericals:   T

 Eigenvalues of metric

         1 0.155E-04 0.265E-04 0.287E-04 0.362E-04 0.626E-04 0.925E-04 0.947E-04 0.102E-03


 Contracted 2-electron integrals neglected if value below      1.0D-14

 OPERATOR DM      FOR CENTER  0  COORDINATES:    0.000000    0.000000    0.000000


 **********************************************************************************************************************************
 DATASETS  * FILE   NREC   LENGTH (MB)   RECORD NAMES
              1      18       37.06       500      610      700      900      950      970     1000      129      960     1100   
                                          VAR    BASINP    GEOM    SYMINP    ZMAT    AOBASIS   BASIS     P2S    ABASIS      S 
                                         1400     1410     1200     1210     1080     1600     1650     1700   
                                           T        V       H0       H01     AOSYM     SMH    MOLCAS    OPER   

              2       5       10.59       700     1000      520     2100      200   
                                         GEOM     BASIS   MCVARS     RHF    OPTIONS    

 PROGRAMS   *        TOTAL       INT   CCSD(T)    HF-SCF       INT
 CPU TIMES  *      6453.51      0.39   5888.46    180.59    383.70
 REAL TIME  *      7052.70 SEC
 DISK USED  *         3.24 GB (local),       80.55 GB (total)
 SF USED    *         3.08 GB
 GA USED    *         0.00 MB       (max)       0.00 MB       (current)
 **********************************************************************************************************************************


 PROGRAM * RHF-SCF (CLOSED SHELL)       Authors: W. Meyer, H.-J. Werner


 NUMBER OF ELECTRONS:       5+    5-    SPACE SYMMETRY=1    SPIN SYMMETRY: Singlet 
 CONVERGENCE THRESHOLDS:    1.00E-08 (Density)    1.00E-11 (Energy)
 MAX. NUMBER OF ITERATIONS:       60
 INTERPOLATION TYPE:            DIIS
 INTERPOLATION STEPS:              2 (START)      1 (STEP)
 LEVEL SHIFTS:                  0.00 (CLOSED)  0.00 (OPEN) 



 Orbital guess generated from atomic densities. Full valence occupancy:    7

 Molecular orbital dump at record        2101.2

 Initial occupancy:   5

 ITERATION    DDIFF          GRAD             ENERGY        2-EL.EN.            DIPOLE MOMENTS         DIIS   ORB.
    1      0.000D+00      0.000D+00       -76.02552207     77.430635   -0.00001    0.91365    0.69077    0    start
    2      0.000D+00      0.467D-02       -76.05227935     73.783975   -0.00003    0.53120    0.40278    1    diag
    3      0.222D-02      0.297D-02       -76.06376604     75.400685   -0.00002    0.62626    0.47460    2    diag
    4      0.841D-03      0.278D-03       -76.06395889     75.309577   -0.00002    0.62240    0.47191    3    diag
    5      0.106D-03      0.773D-04       -76.06397947     75.323783   -0.00002    0.62096    0.47091    4    diag
    6      0.334D-04      0.153D-04       -76.06398079     75.322777   -0.00002    0.62064    0.47070    5    diag
    7      0.868D-05      0.309D-05       -76.06398085     75.322923   -0.00002    0.62054    0.47063    6    diag
    8      0.253D-05      0.587D-06       -76.06398085     75.322909   -0.00002    0.62050    0.47060    7    diag
    9      0.471D-06      0.785D-07       -76.06398085     75.322900   -0.00002    0.62050    0.47060    8    diag
   10      0.492D-07      0.176D-07       -76.06398085     75.322903   -0.00002    0.62050    0.47060    9    orth
   11      0.128D-07      0.298D-08       -76.06398085     75.322903   -0.00002    0.62050    0.47060    9    diag
   12      0.229D-08      0.480D-09       -76.06398085     75.322903   -0.00002    0.62050    0.47060    0    orth

 Final occupancy:   5

 !RHF STATE  1.1 Energy               -76.063980854805
 Nuclear energy                         9.01226390
 One-electron energy                 -122.73769615
 Two-electron energy                   37.66145139
 Virial quotient                       -1.00191140
 !RHF STATE  1.1 Dipole moment         -0.00001652     0.62049958     0.47060141
 Dipole moment /Debye                  -0.00004198     1.57704931     1.19607113

 Orbital energies:

         1.1          2.1          3.1          4.1          5.1          6.1          7.1
    -20.567593    -1.342507    -0.709243    -0.579409    -0.508644     0.017681     0.036129


 HOMO      5.1    -0.508644 =     -13.8409eV
 LUMO      6.1     0.017681 =       0.4811eV
 LUMO-HOMO         0.526326 =      14.3221eV


 **********************************************************************************************************************************
 DATASETS  * FILE   NREC   LENGTH (MB)   RECORD NAMES
              1      18       37.06       500      610      700      900      950      970     1000      129      960     1100   
                                          VAR    BASINP    GEOM    SYMINP    ZMAT    AOBASIS   BASIS     P2S    ABASIS      S 
                                         1400     1410     1200     1210     1080     1600     1650     1700   
                                           T        V       H0       H01     AOSYM     SMH    MOLCAS    OPER   

              2       6       17.39       700     1000      520     2100      200     2101   
                                         GEOM     BASIS   MCVARS     RHF    OPTIONS    RHF  

 PROGRAMS   *        TOTAL    HF-SCF       INT   CCSD(T)    HF-SCF       INT
 CPU TIMES  *      6655.72    202.21      0.39   5888.46    180.59    383.70
 REAL TIME  *      7274.70 SEC
 DISK USED  *         3.24 GB (local),       80.55 GB (total)
 SF USED    *         3.08 GB
 GA USED    *         0.00 MB       (max)       0.00 MB       (current)
 **********************************************************************************************************************************

 Basis set:  JKFIT                   
 Basis size:   740
 Attributes:
 Sphericals:   T
 Basis set:  MP2FIT                  
 Basis size:   816
 Attributes:
 Sphericals:   T
 Basis set:  RI                      
 Basis size:   556
 Attributes:
 Sphericals:   T
 Basis set:  TDDFT                   
 Basis size:   816
 Attributes:
 Sphericals:   T

 PROGRAM * CCSD (Closed-shell coupled cluster)     Authors: C. Hampel, H.-J. Werner, 1991, M. Deegan, P.J. Knowles, 1992


 Convergence thresholds:  THRVAR = 1.00D-08  THRDEN = 1.00D-10

 CCSD(T)     terms to be evaluated (factor= 1.000)


 Number of core orbitals:           1 (   1 )
 Number of closed-shell orbitals:   4 (   4 )
 Number of external orbitals:     431 ( 431 )

 Molecular orbitals read from record     2101.2  Type=RHF/CANONICAL (state 1.1)

 Number of N-1 electron functions:               4
 Number of N-2 electron functions:              10
 Number of singly external CSFs:              1724
 Number of doubly external CSFs:           1486950
 Total number of CSFs:                     1488675

 Length of J-op  integral file:               0.00 MB
 Length of K-op  integral file:              13.08 MB
 Length of 3-ext integral record:             0.00 MB

 Memory could be reduced to 526.20 Mwords without degradation in triples

 Integral transformation finished. Total CPU: 158.99 sec, npass=  1  Memory used: 214.76 MW

 Reference energy:                    -76.06398085

 MP2 singlet pair energy:              -0.18606295
 MP2 triplet pair energy:              -0.10130489
 MP2 correlation energy:               -0.28736784
 MP2 total energy:                    -76.35134869

 SCS-MP2 correlation energy:           -0.28630969   (PS=  1.200000  PT=  0.333333)
 SCS-MP2 total energy:                -76.35029055

 ITER.      SQ.NORM     CORR.ENERGY   TOTAL ENERGY   ENERGY CHANGE        DEN1      VAR(S)    VAR(P)  DIIS     TIME  TIME/IT
   1      1.06424872    -0.28914933   -76.35313018    -0.00178149     0.00404669  0.84D-03  0.10D-02  1  1   205.73    47.75
   2      1.06786616    -0.28940423   -76.35338508    -0.00025490    -0.00488966  0.14D-04  0.12D-03  2  2   252.57    48.01
   3      1.06929944    -0.28948168   -76.35346254    -0.00007746    -0.00100669  0.87D-05  0.62D-05  3  3   299.58    48.21
   4      1.06976299    -0.28948084   -76.35346170     0.00000084    -0.00021696  0.48D-06  0.74D-06  4  4   346.09    48.19
   5      1.06986466    -0.28947854   -76.35345940     0.00000230    -0.00003184  0.16D-06  0.50D-07  5  5   392.93    48.29
   6      1.06990080    -0.28947555   -76.35345640     0.00000299    -0.00000825  0.17D-07  0.41D-08  6  6   439.56    48.33
   7      1.06990814    -0.28947515   -76.35345601     0.00000040    -0.00000056  0.14D-08  0.80D-09  6  1   486.17    48.31
   8      1.06990987    -0.28947506   -76.35345591     0.00000010    -0.00000005  0.24D-09  0.92D-10  6  2   532.80    48.31
   9      1.06991052    -0.28947502   -76.35345587     0.00000004     0.00000011  0.18D-10  0.81D-11  6  3   579.24    48.30
  10      1.06991066    -0.28947500   -76.35345586     0.00000001     0.00000001  0.21D-11  0.12D-11  6  4   626.09    48.31
  11      1.06991066    -0.28947501   -76.35345586    -0.00000000     0.00000002  0.47D-12  0.15D-12  6  5   673.21    48.35
  12      1.06991066    -0.28947501   -76.35345586    -0.00000000     0.00000001  0.81D-13  0.25D-13  6  6   719.82    48.33
  13      1.06991066    -0.28947501   -76.35345586    -0.00000000     0.00000000  0.14D-13  0.47D-14  6  1   766.23    48.33
  14      1.06991065    -0.28947501   -76.35345586    -0.00000000     0.00000000  0.16D-14  0.67D-15  6  2   813.16    48.35
  15      1.06991065    -0.28947501   -76.35345586    -0.00000000     0.00000000  0.18D-15  0.12D-15  6  3   859.71    48.33
  16      1.06991065    -0.28947501   -76.35345586    -0.00000000    -0.00000000  0.41D-16  0.17D-16  6  4   906.52    48.35

 Norm of t1 vector:      0.03834892      S-energy:    -0.00000000      T1 diagnostic:  0.00958723
                                                                       D1 diagnostic:  0.02001054


 Total CPU time for triples:    428.55 sec


 RESULTS
 =======

  Reference energy                    -76.063980854803
  CCSD singlet pair energy             -0.199841269387
  CCSD triplet pair energy             -0.089633737707
  CCSD correlation energy              -0.289475007177

  Triples (T) contribution             -0.009567999687
  Total correlation energy             -0.299043006864

  CCSD total energy                   -76.353455861980
  CCSD[T] energy                      -76.363339352199
  CCSD-T energy                       -76.362871438664
 !CCSD(T) total energy                -76.363023861667

 Timing summary (sec):

 STEP                 CPU(USER)    SYS     CPU(TOT)    WALL
 Transformation        159.35      4.73    164.08    164.46
 CCSD iterations       747.25     25.05    772.30    773.71
 Triples               428.55      1.82    430.37    430.89

 Program statistics:

 Available memory in ccsd:              1999999921
 Min. memory needed in ccsd:               6768234
 Max. memory used in ccsd:                 7865440
 Max. memory used in cckext:               5182436 (16 integral passes)



 **********************************************************************************************************************************
 DATASETS  * FILE   NREC   LENGTH (MB)   RECORD NAMES
              1      19     1346.95       500      610      700      900      950      970     1000      129      960     1100   
                                          VAR    BASINP    GEOM    SYMINP    ZMAT    AOBASIS   BASIS     P2S    ABASIS      S 
                                         1400     1410     1200     1210     1080     1600     1650     1700     1380   
                                           T        V       H0       H01     AOSYM     SMH    MOLCAS    OPER     JKOP   

              2       6       17.39       700     1000      520     2100      200     2101   
                                         GEOM     BASIS   MCVARS     RHF    OPTIONS    RHF  

 PROGRAMS   *        TOTAL   CCSD(T)    HF-SCF       INT   CCSD(T)    HF-SCF       INT
 CPU TIMES  *      7991.10   1335.38    202.21      0.39   5888.46    180.59    383.70
 REAL TIME  *      8644.76 SEC
 DISK USED  *         3.24 GB (local),       80.55 GB (total)
 SF USED    *         3.08 GB
 GA USED    *         0.00 MB       (max)       0.00 MB       (current)
 **********************************************************************************************************************************

 Running procedure: SET_MONOMER2

 Dummy atoms: O1  H1  H2


 Recomputing one-electron integrals since nuclear charges changed


 PROGRAM * SEWARD (Integral evaluation for generally contracted gaussian basis sets)     Author: Roland Lindh, 1990

 Geometry written to block  1 of record 700


 Point group  C1  



 ATOMIC COORDINATES

 NR  ATOM    CHARGE       X              Y              Z

   1  O1      0.00    0.000000000    0.000000000    0.000000000
   2  H1      0.00    0.000000000    0.000000000    1.842293999
   3  H2      0.00    0.000000000    1.780688927   -0.493596464
   4  C1      6.00   -6.193010455    2.801518980    2.403542658
   5  H41     1.00   -4.656285171    1.699997622    3.119937832
   6  H42     1.00   -5.973046335    4.726205038    2.982932688
   7  H43     1.00   -7.940251230    2.077186956    3.118237078
   8  H44     1.00   -6.176569838    2.685300823    0.384937212

 Bond lengths in Bohr (Angstrom)

 1-2  1.842293999  1-3  1.847834009  4-5  2.021904040  4-6  2.022002335  4-7  2.021953343
     ( 0.974900000)     ( 0.977831647)     ( 1.069945541)     ( 1.069997556)     ( 1.069971630)

 4-8  2.022015060
     ( 1.070004290)

 Bond angles

  2-1-3  105.49305961   5-4-6  109.53398059   5-4-7  109.65604535   5-4-8  108.43490854

  6-4-7  109.49436728   6-4-8  109.86987750   7-4-8  109.83468330

 NUCLEAR CHARGE:                   10
 NUMBER OF PRIMITIVE AOS:         578
 NUMBER OF SYMMETRY AOS:          474
 NUMBER OF CONTRACTIONS:          436   (  436A   )
 NUMBER OF CORE ORBITALS:           1   (    1A   )
 NUMBER OF VALENCE ORBITALS:        8   (    8A   )

 MOLECULE CHANGED: INITIALIZING OCCUPATION AND DUMP RECORDS


 NUCLEAR REPULSION ENERGY   13.68681606

 Basis set:  JKFIT                   
 Basis size:   740
 Attributes:
 Sphericals:   T
 Basis set:  MP2FIT                  
 Basis size:   816
 Attributes:
 Sphericals:   T
 Basis set:  RI                      
 Basis size:   556
 Attributes:
 Sphericals:   T
 Basis set:  TDDFT                   
 Basis size:   816
 Attributes:
 Sphericals:   T

 Eigenvalues of metric

         1 0.155E-04 0.265E-04 0.287E-04 0.362E-04 0.626E-04 0.925E-04 0.947E-04 0.102E-03


 Contracted 2-electron integrals neglected if value below      1.0D-14

 OPERATOR DM      FOR CENTER  0  COORDINATES:    0.000000    0.000000    0.000000


 **********************************************************************************************************************************
 DATASETS  * FILE   NREC   LENGTH (MB)   RECORD NAMES
              1      18       37.06       500      610      700      900      950      970     1000      129      960     1100   
                                          VAR    BASINP    GEOM    SYMINP    ZMAT    AOBASIS   BASIS     P2S    ABASIS      S 
                                         1400     1410     1200     1210     1080     1600     1650     1700   
                                           T        V       H0       H01     AOSYM     SMH    MOLCAS    OPER   

              2       6       17.39       700     1000      520     2100      200     2101   
                                         GEOM     BASIS   MCVARS     RHF    OPTIONS    RHF  

 PROGRAMS   *        TOTAL       INT   CCSD(T)    HF-SCF       INT   CCSD(T)    HF-SCF       INT
 CPU TIMES  *      7991.50      0.39   1335.38    202.21      0.39   5888.46    180.59    383.70
 REAL TIME  *      8645.99 SEC
 DISK USED  *         3.24 GB (local),       80.55 GB (total)
 SF USED    *         3.08 GB
 GA USED    *         0.00 MB       (max)       0.00 MB       (current)
 **********************************************************************************************************************************


 PROGRAM * RHF-SCF (CLOSED SHELL)       Authors: W. Meyer, H.-J. Werner


 NUMBER OF ELECTRONS:       5+    5-    SPACE SYMMETRY=1    SPIN SYMMETRY: Singlet 
 CONVERGENCE THRESHOLDS:    1.00E-08 (Density)    1.00E-11 (Energy)
 MAX. NUMBER OF ITERATIONS:       60
 INTERPOLATION TYPE:            DIIS
 INTERPOLATION STEPS:              2 (START)      1 (STEP)
 LEVEL SHIFTS:                  0.00 (CLOSED)  0.00 (OPEN) 



 Orbital guess generated from atomic densities. Full valence occupancy:    9

 Molecular orbital dump at record        2102.2

 Initial occupancy:   5

 ITERATION    DDIFF          GRAD             ENERGY        2-EL.EN.            DIPOLE MOMENTS         DIIS   ORB.
    1      0.000D+00      0.000D+00       -40.19609571     53.506289    0.00410   -0.00276   -0.00130    0    start
    2      0.000D+00      0.257D-02       -40.21334980     52.217622    0.00128   -0.00087   -0.00038    1    diag
    3      0.158D-02      0.998D-03       -40.21562572     52.672082    0.00182   -0.00123   -0.00055    2    diag
    4      0.442D-03      0.249D-03       -40.21594518     52.617269    0.00161   -0.00109   -0.00049    3    diag
    5      0.166D-03      0.322D-04       -40.21595067     52.619416    0.00159   -0.00107   -0.00048    4    diag
    6      0.411D-04      0.264D-05       -40.21595071     52.619553    0.00158   -0.00107   -0.00048    5    diag
    7      0.545D-05      0.212D-06       -40.21595071     52.619514    0.00158   -0.00107   -0.00048    6    diag
    8      0.222D-06      0.170D-07       -40.21595071     52.619515    0.00158   -0.00107   -0.00048    7    diag
    9      0.824D-07      0.218D-08       -40.21595071     52.619515    0.00158   -0.00107   -0.00048    8    diag
   10      0.826D-08      0.595D-09       -40.21595071     52.619515    0.00158   -0.00107   -0.00048    0    orth

 Final occupancy:   5

 !RHF STATE  1.1 Energy               -40.215950711331
 Nuclear energy                        13.68681606
 One-electron energy                  -80.21252412
 Two-electron energy                   26.30975736
 Virial quotient                       -0.99838103
 !RHF STATE  1.1 Dipole moment          0.00158331    -0.00107296    -0.00047579
 Dipole moment /Debye                   0.00402411    -0.00272703    -0.00120926

 Orbital energies:

         1.1          2.1          3.1          4.1          5.1          6.1          7.1
    -11.196224    -0.950661    -0.551889    -0.549955    -0.547776     0.024867     0.037911


 HOMO      5.1    -0.547776 =     -14.9057eV
 LUMO      6.1     0.024867 =       0.6767eV
 LUMO-HOMO         0.572642 =      15.5824eV


 **********************************************************************************************************************************
 DATASETS  * FILE   NREC   LENGTH (MB)   RECORD NAMES
              1      18       37.06       500      610      700      900      950      970     1000      129      960     1100   
                                          VAR    BASINP    GEOM    SYMINP    ZMAT    AOBASIS   BASIS     P2S    ABASIS      S 
                                         1400     1410     1200     1210     1080     1600     1650     1700   
                                           T        V       H0       H01     AOSYM     SMH    MOLCAS    OPER   

              2       7       27.51       700     1000      520     2100      200     2101     2102   
                                         GEOM     BASIS   MCVARS     RHF    OPTIONS    RHF      RHF  

 PROGRAMS   *        TOTAL    HF-SCF       INT   CCSD(T)    HF-SCF       INT   CCSD(T)    HF-SCF       INT
 CPU TIMES  *      8162.31    170.81      0.39   1335.38    202.21      0.39   5888.46    180.59    383.70
 REAL TIME  *      8833.29 SEC
 DISK USED  *         3.24 GB (local),       80.55 GB (total)
 SF USED    *         3.08 GB
 GA USED    *         0.00 MB       (max)       0.00 MB       (current)
 **********************************************************************************************************************************

 Basis set:  JKFIT                   
 Basis size:   740
 Attributes:
 Sphericals:   T
 Basis set:  MP2FIT                  
 Basis size:   816
 Attributes:
 Sphericals:   T
 Basis set:  RI                      
 Basis size:   556
 Attributes:
 Sphericals:   T
 Basis set:  TDDFT                   
 Basis size:   816
 Attributes:
 Sphericals:   T

 PROGRAM * CCSD (Closed-shell coupled cluster)     Authors: C. Hampel, H.-J. Werner, 1991, M. Deegan, P.J. Knowles, 1992


 Convergence thresholds:  THRVAR = 1.00D-08  THRDEN = 1.00D-10

 CCSD(T)     terms to be evaluated (factor= 1.000)


 Number of core orbitals:           1 (   1 )
 Number of closed-shell orbitals:   4 (   4 )
 Number of external orbitals:     431 ( 431 )

 Molecular orbitals read from record     2102.2  Type=RHF/CANONICAL (state 1.1)

 Number of N-1 electron functions:               4
 Number of N-2 electron functions:              10
 Number of singly external CSFs:              1724
 Number of doubly external CSFs:           1486950
 Total number of CSFs:                     1488675

 Length of J-op  integral file:               0.00 MB
 Length of K-op  integral file:              13.08 MB
 Length of 3-ext integral record:             0.00 MB

 Memory could be reduced to 526.20 Mwords without degradation in triples

 Integral transformation finished. Total CPU: 157.73 sec, npass=  1  Memory used: 214.76 MW

 Reference energy:                    -40.21595071

 MP2 singlet pair energy:              -0.15443112
 MP2 triplet pair energy:              -0.05646360
 MP2 correlation energy:               -0.21089472
 MP2 total energy:                    -40.42684543

 SCS-MP2 correlation energy:           -0.22045025   (PS=  1.200000  PT=  0.333333)
 SCS-MP2 total energy:                -40.43640096

 ITER.      SQ.NORM     CORR.ENERGY   TOTAL ENERGY   ENERGY CHANGE        DEN1      VAR(S)    VAR(P)  DIIS     TIME  TIME/IT
   1      1.07097404    -0.22687959   -40.44283030    -0.01598488    -0.01039764  0.55D-03  0.97D-03  1  1   204.23    47.70
   2      1.07611909    -0.22797967   -40.44393038    -0.00110008    -0.00547158  0.14D-04  0.91D-04  2  2   250.79    47.93
   3      1.07764036    -0.22801889   -40.44396960    -0.00003921    -0.00107325  0.18D-05  0.58D-05  3  3   297.80    48.13
   4      1.07800008    -0.22802458   -40.44397529    -0.00000569    -0.00017108  0.12D-06  0.28D-06  4  4   344.49    48.15
   5      1.07804812    -0.22802647   -40.44397718    -0.00000189    -0.00001303  0.10D-07  0.20D-07  5  5   391.40    48.20
   6      1.07805637    -0.22802525   -40.44397596     0.00000122    -0.00000328  0.64D-09  0.14D-08  6  6   438.25    48.25
   7      1.07805741    -0.22802496   -40.44397567     0.00000029    -0.00000055  0.46D-10  0.11D-09  6  1   484.81    48.25
   8      1.07805736    -0.22802501   -40.44397572    -0.00000005     0.00000022  0.46D-11  0.66D-11  6  3   531.48    48.27
   9      1.07805748    -0.22802500   -40.44397571     0.00000002    -0.00000008  0.39D-12  0.54D-12  6  2   578.48    48.29
  10      1.07805748    -0.22802499   -40.44397570     0.00000000     0.00000000  0.46D-13  0.56D-13  6  4   625.11    48.29
  11      1.07805749    -0.22802499   -40.44397570     0.00000000     0.00000000  0.43D-14  0.56D-14  6  5   672.07    48.31
  12      1.07805748    -0.22802499   -40.44397570     0.00000000     0.00000000  0.10D-15  0.61D-15  6  6   718.48    48.30
  13      1.07805748    -0.22802499   -40.44397570    -0.00000000     0.00000000  0.74D-17  0.59D-16  6  1   765.23    48.31
  14      1.07805748    -0.22802499   -40.44397570    -0.00000000     0.00000000  0.10D-17  0.75D-17  6  3   811.99    48.33

 Norm of t1 vector:      0.03128322      S-energy:    -0.00000000      T1 diagnostic:  0.00782081
                                                                       D1 diagnostic:  0.01257169

 Total CPU time for triples:    428.14 sec


 RESULTS
 =======

  Reference energy                    -40.215950711330
  CCSD singlet pair energy             -0.173329655237
  CCSD triplet pair energy             -0.054695336920
  CCSD correlation energy              -0.228024992161

  Triples (T) contribution             -0.006882155836
  Total correlation energy             -0.234907147997

  CCSD total energy                   -40.443975703491
  CCSD[T] energy                      -40.451071010565
  CCSD-T energy                       -40.450790250956
 !CCSD(T) total energy                -40.450857859327

 Timing summary (sec):

 STEP                 CPU(USER)    SYS     CPU(TOT)    WALL
 Transformation        158.09      4.85    162.94    163.34
 CCSD iterations       654.00     21.90    675.90    676.77
 Triples               428.14      1.69    429.83    430.88

 Program statistics:

 Available memory in ccsd:              1999999916
 Min. memory needed in ccsd:               6768234
 Max. memory used in ccsd:                 7865440
 Max. memory used in cckext:               5182436 (14 integral passes)



 **********************************************************************************************************************************
 DATASETS  * FILE   NREC   LENGTH (MB)   RECORD NAMES
              1      19     1346.95       500      610      700      900      950      970     1000      129      960     1100   
                                          VAR    BASINP    GEOM    SYMINP    ZMAT    AOBASIS   BASIS     P2S    ABASIS      S 
                                         1400     1410     1200     1210     1080     1600     1650     1700     1380   
                                           T        V       H0       H01     AOSYM     SMH    MOLCAS    OPER     JKOP   

              2       7       27.51       700     1000      520     2100      200     2101     2102   
                                         GEOM     BASIS   MCVARS     RHF    OPTIONS    RHF      RHF  

 PROGRAMS   *        TOTAL   CCSD(T)    HF-SCF       INT   CCSD(T)    HF-SCF       INT   CCSD(T)    HF-SCF       INT
 CPU TIMES  *      9402.75   1240.44    170.81      0.39   1335.38    202.21      0.39   5888.46    180.59    383.70
 REAL TIME  *     10105.24 SEC
 DISK USED  *         3.24 GB (local),       80.55 GB (total)
 SF USED    *         3.08 GB
 GA USED    *         0.00 MB       (max)       0.00 MB       (current)
 **********************************************************************************************************************************
 Molecular orbitals read from record     2102.2  Type=RHF/CANONICAL (state 1.1)
 Occupation numbers read from record     2102.2  Type=RHF/RHF (state 1.1)
 Orbital energies read from record       2102.2  Type=RHF/CANONICAL (state 1.1)
 Redundancy group numbers read from rec  2102.2  Type=RHF/RHF (state 1.1)

 CCSD(T)/aug-cc-pVQZ energy=    -40.450857859327

         CCSD(T)          HF-SCF         CCSD(T)          HF-SCF         CCSD(T)          HF-SCF
    -40.45085786    -40.21595071    -76.36302386    -76.06398085   -116.81421117   -116.27933348
 **********************************************************************************************************************************
 Molpro calculation terminated
