
 Primary working directories    : /scratch/klimes/383105/molpro.78MDYuZBhw
 Secondary working directories  : /scratch/klimes/383105/molpro.78MDYuZBhw
 Wavefunction directory         : /scratch/klimes/383105/
 Main file repository           : /scratch/klimes/383105/molpro.78MDYuZBhw/

 id        : karlovklimes

 Nodes                      nprocs
 nc-22.cc.karlov.mff.cuni.cz    4

 Using customized tuning parameters: mindgm=1; mindgv=20; mindgc=4; mindgr=1; noblas=0; minvec=7
 default implementation of scratch files=sf  


 Variables initialized (930), CPU time= 0.01 sec
                                                                                 !gdirect
 memory,2000,m
 gthresh,orbital=1d-10,energy=1d-10,grid=1d-8
 
 symmetry,nosym
 angstrom
 geometry={
 O2        -0.069900000000     -0.226200000000      2.872700000000
 H3         0.635400000000     -0.815900000000      3.168900000000
 H4        -0.918500000000     -0.721300000000      3.072500000000
 C1        -3.277200000000      1.482500000000      1.271900000000
 H41        -2.464000000000      0.899600000000      1.651000000000
 H42        -3.160800000000      2.501000000000      1.578500000000
 H43        -4.201800000000      1.099200000000      1.650100000000
 H44        -3.268500000000      1.421000000000      0.203700000000
 }
 
 nkerna=1
 nkernb=1
 
 gf=0
 sing=1
 thrdum=1d-4
 gridthr=1d-8
 
 basis={
 set,orbital
 default,avqz
 set,jkfit
 default,avqz/jkfit
 set,mp2fit
 default,avqz/mp2fit
 set,ri
 default,avqz/optri
 set,tddft
 default,avqz/mp2fit
 }
 
 proc set_monomer1
 dummy,4,5,6,7,8
 endproc
 
 proc set_monomer2
 dummy,1,2,3
 endproc
 
                                                                                 !1234 energy
 {hf,accu=1.d-16}
 ccsd(t)
 
 set_monomer1
 {hf,accu=1.d-16}
 ccsd(t)
 
 set_monomer2
 {hf,accu=1.d-16}
 ccsd(t)
 
 Commands  initialized (760), CPU time= 0.02 sec, 617 directives.
 Default parameters read. Elapsed time= 0.19 sec

 Checking input...
 Passed
1


                                         ***  PROGRAM SYSTEM MOLPRO  ***
                                       Copyright, TTI GmbH Stuttgart, 2015
                                    Version 2019.1 linked Jan 14 2019 13:09:19


 **********************************************************************************************************************************
 LABEL *                                                                                 
  64 bit mpp version                                                                     DATE: 11-Mar-20          TIME: 13:21:23  
 **********************************************************************************************************************************

 SHA1:             d688ac825633d238f2093ded1675ba87ccd55965
 **********************************************************************************************************************************

 THRESHOLDS:

 ZERO    =  1.00D-12  ONEINT  =  1.00D-12  TWOINT  =  1.00D-11  PREFAC  =  1.00D-14  XXXXXX  =  1.00D-09  EORDER  =  1.00D-04
 ENERGY  =  1.00D-10  ETEST   =  0.00D+00  EDENS   =  0.00D+00  THRDEDEF=  1.00D-06  GRADIENT=  1.00D-02  STEP    =  1.00D-03
 ORBITAL =  1.00D-10  CIVEC   =  1.00D-05  COEFF   =  1.00D-04  PRINTCI =  5.00D-02  PUNCHCI =  9.90D+01  OPTGRAD =  3.00D-04
 OPTENERG=  1.00D-06  OPTSTEP =  3.00D-04  THRGRAD =  1.00D-10  COMPRESS=  1.00D-11  VARMIN  =  1.00D-07  VARMAX  =  1.00D-03
 THRDOUB =  0.00D+00  THRDIV  =  1.00D-05  THRRED  =  1.00D-07  THRPSP  =  1.00D+00  THRDC   =  1.00D-10  THRCS   =  1.00D-10
 THRNRM  =  1.00D-08  THREQ   =  0.00D+00  THRDE   =  1.00D+00  THRREF  =  1.00D-05  SPARFAC =  1.00D+00  THRDLP  =  1.00D-07
 THRDIA  =  1.00D-10  THRDLS  =  1.00D-07  THRGPS  =  0.00D+00  THRKEX  =  0.00D+00  THRDIS  =  2.00D-01  THRVAR  =  1.00D-10
 THRLOC  =  1.00D-06  THRGAP  =  1.00D-06  THRLOCT = -1.00D+00  THRGAPT = -1.00D+00  THRORB  =  1.00D-06  THRMLTP =  0.00D+00
 THRCPQCI=  1.00D-10  KEXTA   =  0.00D+00  THRCOARS=  0.00D+00  SYMTOL  =  1.00D-06  GRADTOL =  1.00D-06  THROVL  =  1.00D-08
 THRORTH =  1.00D-08  GRID    =  1.00D-08  GRIDMAX =  1.00D-03  DTMAX   =  0.00D+00  THROCCDE=  1.00D-01  THROCCDE=  1.00D-01
 THRPRINT=  2.50D-01


 Variable memory set to 2000000000 words,  buffer space 

 ZSYMEL=NOSYM
 ZUNIT=ANG


Geometry recognized as XYZ

 SETTING NKERNA         =         1.00000000                                  
 SETTING NKERNB         =         1.00000000                                  
 SETTING GF             =     0.00000000D+00                                  
 SETTING SING           =         1.00000000                                  
 SETTING THRDUM         =     1.00000000D-04                                  
 SETTING GRIDTHR        =     1.00000000D-08                                  
 SETTING BASIS          =    AVQZ


 Recomputing integrals since basis changed


 Using spherical harmonics

 Library entry O      S aug-cc-pVQZ          selected for orbital group  1
 Library entry O      P aug-cc-pVQZ          selected for orbital group  1
 Library entry O      D aug-cc-pVQZ          selected for orbital group  1
 Library entry O      F aug-cc-pVQZ          selected for orbital group  1
 Library entry O      G aug-cc-pVQZ          selected for orbital group  1
 Library entry H      S aug-cc-pVQZ          selected for orbital group  2
 Library entry H      P aug-cc-pVQZ          selected for orbital group  2
 Library entry H      D aug-cc-pVQZ          selected for orbital group  2
 Library entry H      F aug-cc-pVQZ          selected for orbital group  2
 Library entry C      S aug-cc-pVQZ          selected for orbital group  3
 Library entry C      P aug-cc-pVQZ          selected for orbital group  3
 Library entry C      D aug-cc-pVQZ          selected for orbital group  3
 Library entry C      F aug-cc-pVQZ          selected for orbital group  3
 Library entry C      G aug-cc-pVQZ          selected for orbital group  3


 PROGRAM * SEWARD (Integral evaluation for generally contracted gaussian basis sets)     Author: Roland Lindh, 1990

 Geometry written to block  1 of record 700


 Point group  C1  



 ATOMIC COORDINATES

 NR  ATOM    CHARGE       X              Y              Z

   1  O2      8.00   -0.132091856   -0.427456049    5.428616238
   2  H3      1.00    1.200731980   -1.541827545    5.988353116
   3  H4      1.00   -1.735713445   -1.363059454    5.806183518
   4  C1      6.00   -6.193010455    2.801518980    2.403542658
   5  H41     1.00   -4.656285171    1.699997622    3.119937832
   6  H42     1.00   -5.973046335    4.726205038    2.982932688
   7  H43     1.00   -7.940251230    2.077186956    3.118237078
   8  H44     1.00   -6.176569838    2.685300823    0.384937212

 Bond lengths in Bohr (Angstrom)

 1-2  1.825253018  1-3  1.894601009  4-5  2.021904040  4-6  2.022002335  4-7  2.021953343
     ( 0.965882301)     ( 1.002579678)     ( 1.069945541)     ( 1.069997556)     ( 1.069971630)

 4-8  2.022015060
     ( 1.070004290)

 Bond angles

  2-1-3  104.80057086   5-4-6  109.53398059   5-4-7  109.65604535   5-4-8  108.43490854

  6-4-7  109.49436728   6-4-8  109.86987750   7-4-8  109.83468330

 NUCLEAR CHARGE:                   20
 NUMBER OF PRIMITIVE AOS:         578
 NUMBER OF SYMMETRY AOS:          474
 NUMBER OF CONTRACTIONS:          436   (  436A   )
 NUMBER OF CORE ORBITALS:           2   (    2A   )
 NUMBER OF VALENCE ORBITALS:       14   (   14A   )


 NUCLEAR REPULSION ENERGY   35.86337232


 Basis set:  JKFIT                   
 Basis size:   740
 Attributes:
 Sphericals:   T
 Basis set:  MP2FIT                  
 Basis size:   816
 Attributes:
 Sphericals:   T
 Basis set:  RI                      
 Basis size:   556
 Attributes:
 Sphericals:   T
 Basis set:  TDDFT                   
 Basis size:   816
 Attributes:
 Sphericals:   T

 **********************************************************************************************************************************


 Eigenvalues of metric

         1 0.104E-04 0.170E-04 0.328E-04 0.347E-04 0.435E-04 0.686E-04 0.833E-04 0.959E-04


 Contracted 2-electron integrals neglected if value below      1.0D-14
 AO integral compression algorithm  1   Integral accuracy      1.0D-14

     22067.282 MB (compressed) written to integral file ( 55.0%)

     Node minimum: 5311.824 MB, node maximum: 5695.341 MB


 NUMBER OF SORTED TWO-ELECTRON INTEGRALS: 1134451344.     BUFFER LENGTH:  32768
 NUMBER OF SEGMENTS:  36  SEGMENT LENGTH:   31999984      RECORD LENGTH: 524288

 Memory used in sort:      32.56 MW

 SORT1 READ  5012305700. AND WROTE   928236519. INTEGRALS IN   2670 RECORDS. CPU TIME:   378.17 SEC, REAL TIME:   443.08 SEC
 SORT2 READ  3710139177. AND WROTE  4537853011. INTEGRALS IN  83660 RECORDS. CPU TIME:    13.63 SEC, REAL TIME:   356.34 SEC

 Node minimum:  1134427528.  Node maximum:  1134498978. integrals

 OPERATOR DM      FOR CENTER  0  COORDINATES:    0.000000    0.000000    0.000000


 **********************************************************************************************************************************
 DATASETS  * FILE   NREC   LENGTH (MB)   RECORD NAMES
              1      18       37.06       500      610      700      900      950      970     1000      129      960     1100   
                                          VAR    BASINP    GEOM    SYMINP    ZMAT    AOBASIS   BASIS     P2S    ABASIS      S 
                                         1400     1410     1200     1210     1080     1600     1650     1700   
                                           T        V       H0       H01     AOSYM     SMH    MOLCAS    OPER   

 PROGRAMS   *        TOTAL       INT
 CPU TIMES  *       457.64    457.43
 REAL TIME  *       879.49 SEC
 DISK USED  *        37.58 MB (local),       66.43 GB (total)
 GA USED    *         0.00 MB       (max)       0.00 MB       (current)
 **********************************************************************************************************************************


 PROGRAM * RHF-SCF (CLOSED SHELL)       Authors: W. Meyer, H.-J. Werner


 NUMBER OF ELECTRONS:      10+   10-    SPACE SYMMETRY=1    SPIN SYMMETRY: Singlet 
 CONVERGENCE THRESHOLDS:    1.00E-08 (Density)    1.00E-11 (Energy)
 MAX. NUMBER OF ITERATIONS:       60
 INTERPOLATION TYPE:            DIIS
 INTERPOLATION STEPS:              2 (START)      1 (STEP)
 LEVEL SHIFTS:                  0.00 (CLOSED)  0.00 (OPEN) 



 Orbital guess generated from atomic densities. Full valence occupancy:   16

 Molecular orbital dump at record        2100.2

 Initial occupancy:  10

 ITERATION    DDIFF          GRAD             ENERGY        2-EL.EN.            DIPOLE MOMENTS         DIIS   ORB.
    1      0.000D+00      0.000D+00      -116.21935601    157.405676   -0.14340   -1.05290    0.47907    0    start
    2      0.000D+00      0.379D-02      -116.26345826    152.396413   -0.02213   -0.59350    0.27844    1    diag
    3      0.273D-02      0.224D-02      -116.27720017    154.481383   -0.05175   -0.71181    0.32924    2    diag
    4      0.955D-03      0.332D-03      -116.27786566    154.367853   -0.04909   -0.70188    0.32434    3    diag
    5      0.207D-03      0.980D-04      -116.27793633    154.363550   -0.04826   -0.70137    0.32410    4    diag
    6      0.847D-04      0.238D-04      -116.27794032    154.369225   -0.04799   -0.70060    0.32371    5    diag
    7      0.229D-04      0.484D-05      -116.27794057    154.367637   -0.04796   -0.70060    0.32370    6    diag
    8      0.675D-05      0.124D-05      -116.27794059    154.367820   -0.04792   -0.70053    0.32367    7    diag
    9      0.150D-05      0.291D-06      -116.27794059    154.367792   -0.04791   -0.70051    0.32366    8    diag
   10      0.449D-06      0.336D-07      -116.27794059    154.367792   -0.04791   -0.70051    0.32366    9    orth
   11      0.513D-07      0.778D-08      -116.27794059    154.367794   -0.04791   -0.70051    0.32366    9    diag
   12      0.104D-07      0.204D-08      -116.27794059    154.367793   -0.04791   -0.70051    0.32366    9    diag
   13      0.246D-08      0.531D-09      -116.27794059    154.367794   -0.04791   -0.70051    0.32366    0    orth

 Final occupancy:  10

 !RHF STATE  1.1 Energy              -116.277940587986
 Nuclear energy                        35.86337232
 One-electron energy                 -229.32520976
 Two-electron energy                   77.18389685
 Virial quotient                       -1.00086207
 !RHF STATE  1.1 Dipole moment         -0.04790844    -0.70051144     0.32366106
 Dipole moment /Debye                  -0.12176312    -1.78040587     0.82261047

 Orbital energies:

         1.1          2.1          3.1          4.1          5.1          6.1          7.1          8.1          9.1         10.1
    -20.570249   -11.191276    -1.340721    -0.945911    -0.705521    -0.580695    -0.547030    -0.545393    -0.542500    -0.509412

        11.1         12.1
      0.023224     0.035927


 HOMO     10.1    -0.509412 =     -13.8618eV
 LUMO     11.1     0.023224 =       0.6319eV
 LUMO-HOMO         0.532635 =      14.4937eV


 **********************************************************************************************************************************
 DATASETS  * FILE   NREC   LENGTH (MB)   RECORD NAMES
              1      18       37.06       500      610      700      900      950      970     1000      129      960     1100   
                                          VAR    BASINP    GEOM    SYMINP    ZMAT    AOBASIS   BASIS     P2S    ABASIS      S 
                                         1400     1410     1200     1210     1080     1600     1650     1700   
                                           T        V       H0       H01     AOSYM     SMH    MOLCAS    OPER   

              2       4        6.75       700     1000      520     2100   
                                         GEOM     BASIS   MCVARS     RHF  

 PROGRAMS   *        TOTAL    HF-SCF       INT
 CPU TIMES  *       637.98    180.33    457.43
 REAL TIME  *      1405.65 SEC
 DISK USED  *        57.63 MB (local),       66.51 GB (total)
 SF USED    *         0.76 MB
 GA USED    *         0.00 MB       (max)       0.00 MB       (current)
 **********************************************************************************************************************************

 Basis set:  JKFIT                   
 Basis size:   740
 Attributes:
 Sphericals:   T
 Basis set:  MP2FIT                  
 Basis size:   816
 Attributes:
 Sphericals:   T
 Basis set:  RI                      
 Basis size:   556
 Attributes:
 Sphericals:   T
 Basis set:  TDDFT                   
 Basis size:   816
 Attributes:
 Sphericals:   T

 PROGRAM * CCSD (Closed-shell coupled cluster)     Authors: C. Hampel, H.-J. Werner, 1991, M. Deegan, P.J. Knowles, 1992


 Convergence thresholds:  THRVAR = 1.00D-08  THRDEN = 1.00D-10

 CCSD(T)     terms to be evaluated (factor= 1.000)


 Number of core orbitals:           2 (   2 )
 Number of closed-shell orbitals:   8 (   8 )
 Number of external orbitals:     426 ( 426 )

 Molecular orbitals read from record     2100.2  Type=RHF/CANONICAL (state 1.1)

 Number of N-1 electron functions:               8
 Number of N-2 electron functions:              36
 Number of singly external CSFs:              3408
 Number of doubly external CSFs:           5808936
 Total number of CSFs:                     5812345

 Length of J-op  integral file:               0.00 MB
 Length of K-op  integral file:              13.08 MB
 Length of 3-ext integral record:             0.00 MB

 Memory could be reduced to 828.85 Mwords without degradation in triples

 Integral transformation finished. Total CPU: 450.84 sec, npass=  1  Memory used: 389.48 MW

 Reference energy:                   -116.27794059

 MP2 singlet pair energy:              -0.34108789
 MP2 triplet pair energy:              -0.15852215
 MP2 correlation energy:               -0.49961004
 MP2 total energy:                   -116.77755062

 SCS-MP2 correlation energy:           -0.50794147   (PS=  1.200000  PT=  0.333333)
 SCS-MP2 total energy:               -116.78588206

 ITER.      SQ.NORM     CORR.ENERGY   TOTAL ENERGY   ENERGY CHANGE        DEN1      VAR(S)    VAR(P)  DIIS     TIME  TIME/IT
   1      1.13600490    -0.51723903  -116.79517962    -0.01762899    -0.00610334  0.14D-02  0.20D-02  1  1   614.08   164.18
   2      1.14463842    -0.51858857  -116.79652916    -0.00134954    -0.01026068  0.27D-04  0.25D-03  2  2   778.32   165.91
   3      1.14786995    -0.51871225  -116.79665284    -0.00012368    -0.00226584  0.12D-04  0.13D-04  3  3   941.82   166.28
   4      1.14873630    -0.51871540  -116.79665599    -0.00000315    -0.00041102  0.59D-06  0.12D-05  4  4  1106.56   166.64
   5      1.14889387    -0.51871518  -116.79665577     0.00000022    -0.00004640  0.20D-06  0.86D-07  5  5  1270.67   166.63
   6      1.14894277    -0.51871146  -116.79665205     0.00000372    -0.00001173  0.19D-07  0.61D-08  6  6  1434.59   166.66
   7      1.14895207    -0.51871048  -116.79665107     0.00000098    -0.00000146  0.16D-08  0.83D-09  6  2  1598.74   166.69
   8      1.14895405    -0.51871036  -116.79665095     0.00000012     0.00000006  0.27D-09  0.86D-10  6  1  1763.33   166.75
   9      1.14895491    -0.51871030  -116.79665089     0.00000006    -0.00000004  0.18D-10  0.12D-10  6  3  1927.71   166.78
  10      1.14895501    -0.51871030  -116.79665089    -0.00000000     0.00000007  0.22D-11  0.15D-11  6  4  2091.51   166.76
  11      1.14895498    -0.51871031  -116.79665090    -0.00000001     0.00000006  0.41D-12  0.23D-12  6  5  2255.98   166.80
  12      1.14895495    -0.51871031  -116.79665090    -0.00000000     0.00000002  0.90D-13  0.29D-13  6  6  2420.14   166.77
  13      1.14895493    -0.51871031  -116.79665090    -0.00000000     0.00000001  0.16D-13  0.43D-14  6  2  2584.05   166.75
  14      1.14895493    -0.51871031  -116.79665090    -0.00000000     0.00000000  0.23D-14  0.98D-15  6  1  2748.17   166.74
  15      1.14895492    -0.51871031  -116.79665090    -0.00000000     0.00000000  0.27D-15  0.13D-15  6  3  2912.88   166.76
  16      1.14895492    -0.51871031  -116.79665090    -0.00000000    -0.00000000  0.43D-16  0.19D-16  6  4  3077.74   166.80
  17      1.14895492    -0.51871031  -116.79665090     0.00000000    -0.00000000  0.10D-16  0.34D-17  6  5  3242.09   166.81

 Norm of t1 vector:      0.05025117      S-energy:     0.00000000      T1 diagnostic:  0.00888324
                                                                       D1 diagnostic:  0.02059827

   CPU time for triples:   2024.39 sec for i =  1 -  7 /  8 (~  68.8 % done)
   CPU time for triples:    954.24 sec for i =  8 -  8 /  8 (  100.0 % done)

 Total CPU time for triples:   2982.96 sec


 RESULTS
 =======

  Reference energy                   -116.277940587989
  CCSD singlet pair energy             -0.373783719930
  CCSD triplet pair energy             -0.144926593274
  CCSD correlation energy              -0.518710313156

  Triples (T) contribution             -0.016657150580
  Total correlation energy             -0.535367463737

  CCSD total energy                  -116.796650901145
  CCSD[T] energy                     -116.813846862205
  CCSD-T energy                      -116.813082049194
 !CCSD(T) total energy               -116.813308051726

 Timing summary (sec):

 STEP                 CPU(USER)    SYS     CPU(TOT)    WALL
 Transformation        452.36      9.79    462.15    464.59
 CCSD iterations      2789.83     37.75   2827.58   2835.97
 Triples              2982.96     21.43   3004.39   3008.27

 Program statistics:

 Available memory in ccsd:              1999999734
 Min. memory needed in ccsd:              17010489
 Max. memory used in ccsd:                22038113
 Max. memory used in cckext:              15155228 (17 integral passes)



 **********************************************************************************************************************************
 DATASETS  * FILE   NREC   LENGTH (MB)   RECORD NAMES
              1      19     2602.11       500      610      700      900      950      970     1000      129      960     1100   
                                          VAR    BASINP    GEOM    SYMINP    ZMAT    AOBASIS   BASIS     P2S    ABASIS      S 
                                         1400     1410     1200     1210     1080     1600     1650     1700     1380   
                                           T        V       H0       H01     AOSYM     SMH    MOLCAS    OPER     JKOP   

              2       4        6.75       700     1000      520     2100   
                                         GEOM     BASIS   MCVARS     RHF  

 PROGRAMS   *        TOTAL   CCSD(T)    HF-SCF       INT
 CPU TIMES  *      6863.38   6225.40    180.33    457.43
 REAL TIME  *      7715.66 SEC
 DISK USED  *         3.24 GB (local),       77.34 GB (total)
 SF USED    *         3.08 GB
 GA USED    *         0.00 MB       (max)       0.00 MB       (current)
 **********************************************************************************************************************************

 Running procedure: SET_MONOMER1

 Dummy atoms: C1  H41  H42  H43  H44


 Recomputing one-electron integrals since nuclear charges changed


 PROGRAM * SEWARD (Integral evaluation for generally contracted gaussian basis sets)     Author: Roland Lindh, 1990

 Geometry written to block  1 of record 700


 Point group  C1  



 ATOMIC COORDINATES

 NR  ATOM    CHARGE       X              Y              Z

   1  O2      8.00   -0.132091856   -0.427456049    5.428616238
   2  H3      1.00    1.200731980   -1.541827545    5.988353116
   3  H4      1.00   -1.735713445   -1.363059454    5.806183518
   4  C1      0.00   -6.193010455    2.801518980    2.403542658
   5  H41     0.00   -4.656285171    1.699997622    3.119937832
   6  H42     0.00   -5.973046335    4.726205038    2.982932688
   7  H43     0.00   -7.940251230    2.077186956    3.118237078
   8  H44     0.00   -6.176569838    2.685300823    0.384937212

 Bond lengths in Bohr (Angstrom)

 1-2  1.825253018  1-3  1.894601009  4-5  2.021904040  4-6  2.022002335  4-7  2.021953343
     ( 0.965882301)     ( 1.002579678)     ( 1.069945541)     ( 1.069997556)     ( 1.069971630)

 4-8  2.022015060
     ( 1.070004290)

 Bond angles

  2-1-3  104.80057086   5-4-6  109.53398059   5-4-7  109.65604535   5-4-8  108.43490854

  6-4-7  109.49436728   6-4-8  109.86987750   7-4-8  109.83468330

 NUCLEAR CHARGE:                   10
 NUMBER OF PRIMITIVE AOS:         578
 NUMBER OF SYMMETRY AOS:          474
 NUMBER OF CONTRACTIONS:          436   (  436A   )
 NUMBER OF CORE ORBITALS:           1   (    1A   )
 NUMBER OF VALENCE ORBITALS:        6   (    6A   )

 MOLECULE CHANGED: INITIALIZING OCCUPATION AND DUMP RECORDS


 NUCLEAR REPULSION ENERGY    8.94474756

 Basis set:  JKFIT                   
 Basis size:   740
 Attributes:
 Sphericals:   T
 Basis set:  MP2FIT                  
 Basis size:   816
 Attributes:
 Sphericals:   T
 Basis set:  RI                      
 Basis size:   556
 Attributes:
 Sphericals:   T
 Basis set:  TDDFT                   
 Basis size:   816
 Attributes:
 Sphericals:   T

 Eigenvalues of metric

         1 0.104E-04 0.170E-04 0.328E-04 0.347E-04 0.435E-04 0.686E-04 0.833E-04 0.959E-04


 Contracted 2-electron integrals neglected if value below      1.0D-14

 OPERATOR DM      FOR CENTER  0  COORDINATES:    0.000000    0.000000    0.000000


 **********************************************************************************************************************************
 DATASETS  * FILE   NREC   LENGTH (MB)   RECORD NAMES
              1      18       37.06       500      610      700      900      950      970     1000      129      960     1100   
                                          VAR    BASINP    GEOM    SYMINP    ZMAT    AOBASIS   BASIS     P2S    ABASIS      S 
                                         1400     1410     1200     1210     1080     1600     1650     1700   
                                           T        V       H0       H01     AOSYM     SMH    MOLCAS    OPER   

              2       5       10.59       700     1000      520     2100      200   
                                         GEOM     BASIS   MCVARS     RHF    OPTIONS    

 PROGRAMS   *        TOTAL       INT   CCSD(T)    HF-SCF       INT
 CPU TIMES  *      6863.79      0.40   6225.40    180.33    457.43
 REAL TIME  *      7717.04 SEC
 DISK USED  *         3.24 GB (local),       77.35 GB (total)
 SF USED    *         3.08 GB
 GA USED    *         0.00 MB       (max)       0.00 MB       (current)
 **********************************************************************************************************************************


 PROGRAM * RHF-SCF (CLOSED SHELL)       Authors: W. Meyer, H.-J. Werner


 NUMBER OF ELECTRONS:       5+    5-    SPACE SYMMETRY=1    SPIN SYMMETRY: Singlet 
 CONVERGENCE THRESHOLDS:    1.00E-08 (Density)    1.00E-11 (Energy)
 MAX. NUMBER OF ITERATIONS:       60
 INTERPOLATION TYPE:            DIIS
 INTERPOLATION STEPS:              2 (START)      1 (STEP)
 LEVEL SHIFTS:                  0.00 (CLOSED)  0.00 (OPEN) 



 Orbital guess generated from atomic densities. Full valence occupancy:    7

 Molecular orbital dump at record        2101.2

 Initial occupancy:   5

 ITERATION    DDIFF          GRAD             ENERGY        2-EL.EN.            DIPOLE MOMENTS         DIIS   ORB.
    1      0.000D+00      0.000D+00       -76.02331156     77.334172   -0.15113   -1.05017    0.47977    0    start
    2      0.000D+00      0.468D-02       -76.05017789     73.653525   -0.07569   -0.60584    0.27717    1    diag
    3      0.223D-02      0.300D-02       -76.06198419     75.292123   -0.09216   -0.71717    0.32802    2    diag
    4      0.855D-03      0.280D-03       -76.06218374     75.200466   -0.08924   -0.71255    0.32599    3    diag
    5      0.107D-03      0.797D-04       -76.06220611     75.215126   -0.08803   -0.71084    0.32524    4    diag
    6      0.363D-04      0.161D-04       -76.06220762     75.214025   -0.08765   -0.71045    0.32507    5    diag
    7      0.972D-05      0.332D-05       -76.06220769     75.214172   -0.08755   -0.71032    0.32502    6    diag
    8      0.260D-05      0.608D-06       -76.06220769     75.214156   -0.08754   -0.71029    0.32500    7    diag
    9      0.461D-06      0.830D-07       -76.06220769     75.214147   -0.08753   -0.71028    0.32500    8    diag
   10      0.676D-07      0.199D-07       -76.06220769     75.214149   -0.08753   -0.71028    0.32500    9    orth
   11      0.171D-07      0.474D-08       -76.06220769     75.214149   -0.08753   -0.71028    0.32500    9    diag
   12      0.356D-08      0.926D-09       -76.06220769     75.214149   -0.08753   -0.71028    0.32500    0    orth

 Final occupancy:   5

 !RHF STATE  1.1 Energy               -76.062207693708
 Nuclear energy                         8.94474756
 One-electron energy                 -122.61402980
 Two-electron energy                   37.60707455
 Virial quotient                       -1.00221919
 !RHF STATE  1.1 Dipole moment         -0.08753389    -0.71028116     0.32499791
 Dipole moment /Debye                  -0.22247437    -1.80523639     0.82600819

 Orbital energies:

         1.1          2.1          3.1          4.1          5.1          6.1          7.1
    -20.569176    -1.339456    -0.703907    -0.579126    -0.508276     0.019841     0.033585


 HOMO      5.1    -0.508276 =     -13.8309eV
 LUMO      6.1     0.019841 =       0.5399eV
 LUMO-HOMO         0.528117 =      14.3708eV


 **********************************************************************************************************************************
 DATASETS  * FILE   NREC   LENGTH (MB)   RECORD NAMES
              1      18       37.06       500      610      700      900      950      970     1000      129      960     1100   
                                          VAR    BASINP    GEOM    SYMINP    ZMAT    AOBASIS   BASIS     P2S    ABASIS      S 
                                         1400     1410     1200     1210     1080     1600     1650     1700   
                                           T        V       H0       H01     AOSYM     SMH    MOLCAS    OPER   

              2       6       17.39       700     1000      520     2100      200     2101   
                                         GEOM     BASIS   MCVARS     RHF    OPTIONS    RHF  

 PROGRAMS   *        TOTAL    HF-SCF       INT   CCSD(T)    HF-SCF       INT
 CPU TIMES  *      7073.41    209.62      0.40   6225.40    180.33    457.43
 REAL TIME  *      7950.30 SEC
 DISK USED  *         3.24 GB (local),       77.35 GB (total)
 SF USED    *         3.08 GB
 GA USED    *         0.00 MB       (max)       0.00 MB       (current)
 **********************************************************************************************************************************

 Basis set:  JKFIT                   
 Basis size:   740
 Attributes:
 Sphericals:   T
 Basis set:  MP2FIT                  
 Basis size:   816
 Attributes:
 Sphericals:   T
 Basis set:  RI                      
 Basis size:   556
 Attributes:
 Sphericals:   T
 Basis set:  TDDFT                   
 Basis size:   816
 Attributes:
 Sphericals:   T

 PROGRAM * CCSD (Closed-shell coupled cluster)     Authors: C. Hampel, H.-J. Werner, 1991, M. Deegan, P.J. Knowles, 1992


 Convergence thresholds:  THRVAR = 1.00D-08  THRDEN = 1.00D-10

 CCSD(T)     terms to be evaluated (factor= 1.000)


 Number of core orbitals:           1 (   1 )
 Number of closed-shell orbitals:   4 (   4 )
 Number of external orbitals:     431 ( 431 )

 Molecular orbitals read from record     2101.2  Type=RHF/CANONICAL (state 1.1)

 Number of N-1 electron functions:               4
 Number of N-2 electron functions:              10
 Number of singly external CSFs:              1724
 Number of doubly external CSFs:           1486950
 Total number of CSFs:                     1488675

 Length of J-op  integral file:               0.00 MB
 Length of K-op  integral file:              13.08 MB
 Length of 3-ext integral record:             0.00 MB

 Memory could be reduced to 526.20 Mwords without degradation in triples

 Integral transformation finished. Total CPU: 235.99 sec, npass=  1  Memory used: 214.76 MW

 Reference energy:                    -76.06220769

 MP2 singlet pair energy:              -0.18648163
 MP2 triplet pair energy:              -0.10152733
 MP2 correlation energy:               -0.28800896
 MP2 total energy:                    -76.35021665

 SCS-MP2 correlation energy:           -0.28695052   (PS=  1.200000  PT=  0.333333)
 SCS-MP2 total energy:                -76.34915821

 ITER.      SQ.NORM     CORR.ENERGY   TOTAL ENERGY   ENERGY CHANGE        DEN1      VAR(S)    VAR(P)  DIIS     TIME  TIME/IT
   1      1.06479065    -0.28970437   -76.35191206    -0.00169541     0.00424003  0.86D-03  0.11D-02  1  1   288.94    53.89
   2      1.06849813    -0.28996298   -76.35217067    -0.00025861    -0.00496635  0.15D-04  0.12D-03  2  2   342.03    54.38
   3      1.06999191    -0.29004544   -76.35225313    -0.00008246    -0.00103661  0.90D-05  0.65D-05  3  3   395.26    54.61
   4      1.07047890    -0.29004498   -76.35225268     0.00000045    -0.00022579  0.49D-06  0.76D-06  4  4   448.26    54.69
   5      1.07058407    -0.29004271   -76.35225040     0.00000228    -0.00003242  0.17D-06  0.50D-07  5  5   502.21    54.88
   6      1.07062212    -0.29003953   -76.35224722     0.00000318    -0.00000872  0.15D-07  0.36D-08  6  6   555.93    54.97
   7      1.07062926    -0.29003918   -76.35224687     0.00000035    -0.00000053  0.10D-08  0.57D-09  6  1   610.08    55.08
   8      1.07063060    -0.29003912   -76.35224682     0.00000006     0.00000023  0.17D-09  0.63D-10  6  2   663.56    55.11
   9      1.07063123    -0.29003907   -76.35224676     0.00000005    -0.00000001  0.11D-10  0.63D-11  6  3   717.25    55.15
  10      1.07063130    -0.29003906   -76.35224676     0.00000000     0.00000003  0.19D-11  0.83D-12  6  4   770.69    55.16
  11      1.07063129    -0.29003907   -76.35224676    -0.00000000     0.00000002  0.41D-12  0.14D-12  6  5   824.16    55.17
  12      1.07063128    -0.29003907   -76.35224676    -0.00000000     0.00000001  0.80D-13  0.21D-13  6  6   877.90    55.20
  13      1.07063127    -0.29003907   -76.35224676    -0.00000000     0.00000000  0.11D-13  0.35D-14  6  1   931.54    55.23
  14      1.07063127    -0.29003907   -76.35224676    -0.00000000     0.00000000  0.11D-14  0.71D-15  6  2   984.97    55.24
  15      1.07063126    -0.29003907   -76.35224676    -0.00000000     0.00000000  0.12D-15  0.87D-16  6  3  1038.60    55.24
  16      1.07063126    -0.29003907   -76.35224676    -0.00000000     0.00000000  0.15D-16  0.11D-16  6  4  1091.83    55.23

 Norm of t1 vector:      0.03897527      S-energy:    -0.00000000      T1 diagnostic:  0.00974382
                                                                       D1 diagnostic:  0.02037505


 Total CPU time for triples:    443.81 sec


 RESULTS
 =======

  Reference energy                    -76.062207693707
  CCSD singlet pair energy             -0.200356639853
  CCSD triplet pair energy             -0.089682429619
  CCSD correlation energy              -0.290039069518

  Triples (T) contribution             -0.009656235067
  Total correlation energy             -0.299695304584

  CCSD total energy                   -76.352246763225
  CCSD[T] energy                      -76.362226216619
  CCSD-T energy                       -76.361746525460
 !CCSD(T) total energy                -76.361902998292

 Timing summary (sec):

 STEP                 CPU(USER)    SYS     CPU(TOT)    WALL
 Transformation        236.49      5.87    242.36    243.62
 CCSD iterations       855.44     27.00    882.44    883.87
 Triples               443.81      3.87    447.68    448.23

 Program statistics:

 Available memory in ccsd:              1999999921
 Min. memory needed in ccsd:               6768234
 Max. memory used in ccsd:                 7865440
 Max. memory used in cckext:               5182436 (16 integral passes)



 **********************************************************************************************************************************
 DATASETS  * FILE   NREC   LENGTH (MB)   RECORD NAMES
              1      19     1346.95       500      610      700      900      950      970     1000      129      960     1100   
                                          VAR    BASINP    GEOM    SYMINP    ZMAT    AOBASIS   BASIS     P2S    ABASIS      S 
                                         1400     1410     1200     1210     1080     1600     1650     1700     1380   
                                           T        V       H0       H01     AOSYM     SMH    MOLCAS    OPER     JKOP   

              2       6       17.39       700     1000      520     2100      200     2101   
                                         GEOM     BASIS   MCVARS     RHF    OPTIONS    RHF  

 PROGRAMS   *        TOTAL   CCSD(T)    HF-SCF       INT   CCSD(T)    HF-SCF       INT
 CPU TIMES  *      8609.40   1535.98    209.62      0.40   6225.40    180.33    457.43
 REAL TIME  *      9526.94 SEC
 DISK USED  *         3.24 GB (local),       77.35 GB (total)
 SF USED    *         3.08 GB
 GA USED    *         0.00 MB       (max)       0.00 MB       (current)
 **********************************************************************************************************************************

 Running procedure: SET_MONOMER2

 Dummy atoms: O2  H3  H4


 Recomputing one-electron integrals since nuclear charges changed


 PROGRAM * SEWARD (Integral evaluation for generally contracted gaussian basis sets)     Author: Roland Lindh, 1990

 Geometry written to block  1 of record 700


 Point group  C1  



 ATOMIC COORDINATES

 NR  ATOM    CHARGE       X              Y              Z

   1  O2      0.00   -0.132091856   -0.427456049    5.428616238
   2  H3      0.00    1.200731980   -1.541827545    5.988353116
   3  H4      0.00   -1.735713445   -1.363059454    5.806183518
   4  C1      6.00   -6.193010455    2.801518980    2.403542658
   5  H41     1.00   -4.656285171    1.699997622    3.119937832
   6  H42     1.00   -5.973046335    4.726205038    2.982932688
   7  H43     1.00   -7.940251230    2.077186956    3.118237078
   8  H44     1.00   -6.176569838    2.685300823    0.384937212

 Bond lengths in Bohr (Angstrom)

 1-2  1.825253018  1-3  1.894601009  4-5  2.021904040  4-6  2.022002335  4-7  2.021953343
     ( 0.965882301)     ( 1.002579678)     ( 1.069945541)     ( 1.069997556)     ( 1.069971630)

 4-8  2.022015060
     ( 1.070004290)

 Bond angles

  2-1-3  104.80057086   5-4-6  109.53398059   5-4-7  109.65604535   5-4-8  108.43490854

  6-4-7  109.49436728   6-4-8  109.86987750   7-4-8  109.83468330

 NUCLEAR CHARGE:                   10
 NUMBER OF PRIMITIVE AOS:         578
 NUMBER OF SYMMETRY AOS:          474
 NUMBER OF CONTRACTIONS:          436   (  436A   )
 NUMBER OF CORE ORBITALS:           1   (    1A   )
 NUMBER OF VALENCE ORBITALS:        8   (    8A   )

 MOLECULE CHANGED: INITIALIZING OCCUPATION AND DUMP RECORDS


 NUCLEAR REPULSION ENERGY   13.68681606

 Basis set:  JKFIT                   
 Basis size:   740
 Attributes:
 Sphericals:   T
 Basis set:  MP2FIT                  
 Basis size:   816
 Attributes:
 Sphericals:   T
 Basis set:  RI                      
 Basis size:   556
 Attributes:
 Sphericals:   T
 Basis set:  TDDFT                   
 Basis size:   816
 Attributes:
 Sphericals:   T

 Eigenvalues of metric

         1 0.104E-04 0.170E-04 0.328E-04 0.347E-04 0.435E-04 0.686E-04 0.833E-04 0.959E-04


 Contracted 2-electron integrals neglected if value below      1.0D-14

 OPERATOR DM      FOR CENTER  0  COORDINATES:    0.000000    0.000000    0.000000


 **********************************************************************************************************************************
 DATASETS  * FILE   NREC   LENGTH (MB)   RECORD NAMES
              1      18       37.06       500      610      700      900      950      970     1000      129      960     1100   
                                          VAR    BASINP    GEOM    SYMINP    ZMAT    AOBASIS   BASIS     P2S    ABASIS      S 
                                         1400     1410     1200     1210     1080     1600     1650     1700   
                                           T        V       H0       H01     AOSYM     SMH    MOLCAS    OPER   

              2       6       17.39       700     1000      520     2100      200     2101   
                                         GEOM     BASIS   MCVARS     RHF    OPTIONS    RHF  

 PROGRAMS   *        TOTAL       INT   CCSD(T)    HF-SCF       INT   CCSD(T)    HF-SCF       INT
 CPU TIMES  *      8609.82      0.40   1535.98    209.62      0.40   6225.40    180.33    457.43
 REAL TIME  *      9528.15 SEC
 DISK USED  *         3.24 GB (local),       77.35 GB (total)
 SF USED    *         3.08 GB
 GA USED    *         0.00 MB       (max)       0.00 MB       (current)
 **********************************************************************************************************************************


 PROGRAM * RHF-SCF (CLOSED SHELL)       Authors: W. Meyer, H.-J. Werner


 NUMBER OF ELECTRONS:       5+    5-    SPACE SYMMETRY=1    SPIN SYMMETRY: Singlet 
 CONVERGENCE THRESHOLDS:    1.00E-08 (Density)    1.00E-11 (Energy)
 MAX. NUMBER OF ITERATIONS:       60
 INTERPOLATION TYPE:            DIIS
 INTERPOLATION STEPS:              2 (START)      1 (STEP)
 LEVEL SHIFTS:                  0.00 (CLOSED)  0.00 (OPEN) 



 Orbital guess generated from atomic densities. Full valence occupancy:    9

 Molecular orbital dump at record        2102.2

 Initial occupancy:   5

 ITERATION    DDIFF          GRAD             ENERGY        2-EL.EN.            DIPOLE MOMENTS         DIIS   ORB.
    1      0.000D+00      0.000D+00       -40.19609512     53.506292    0.00411   -0.00276   -0.00131    0    start
    2      0.000D+00      0.257D-02       -40.21334919     52.217628    0.00129   -0.00087   -0.00039    1    diag
    3      0.158D-02      0.998D-03       -40.21562510     52.672087    0.00182   -0.00123   -0.00056    2    diag
    4      0.442D-03      0.249D-03       -40.21594456     52.617275    0.00162   -0.00109   -0.00049    3    diag
    5      0.169D-03      0.322D-04       -40.21595005     52.619423    0.00159   -0.00108   -0.00048    4    diag
    6      0.426D-04      0.264D-05       -40.21595009     52.619559    0.00159   -0.00108   -0.00048    5    diag
    7      0.577D-05      0.212D-06       -40.21595009     52.619520    0.00159   -0.00107   -0.00048    6    diag
    8      0.232D-06      0.170D-07       -40.21595009     52.619521    0.00159   -0.00108   -0.00048    7    diag
    9      0.823D-07      0.218D-08       -40.21595009     52.619521    0.00159   -0.00107   -0.00048    8    diag
   10      0.826D-08      0.596D-09       -40.21595009     52.619521    0.00159   -0.00107   -0.00048    0    orth

 Final occupancy:   5

 !RHF STATE  1.1 Energy               -40.215950090374
 Nuclear energy                        13.68681606
 One-electron energy                  -80.21252671
 Two-electron energy                   26.30976056
 Virial quotient                       -0.99838103
 !RHF STATE  1.1 Dipole moment          0.00158731    -0.00107494    -0.00048265
 Dipole moment /Debye                   0.00403427    -0.00273203    -0.00122669

 Orbital energies:

         1.1          2.1          3.1          4.1          5.1          6.1          7.1
    -11.196223    -0.950661    -0.551889    -0.549954    -0.547776     0.023470     0.035873


 HOMO      5.1    -0.547776 =     -14.9057eV
 LUMO      6.1     0.023470 =       0.6386eV
 LUMO-HOMO         0.571245 =      15.5444eV


 **********************************************************************************************************************************
 DATASETS  * FILE   NREC   LENGTH (MB)   RECORD NAMES
              1      18       37.06       500      610      700      900      950      970     1000      129      960     1100   
                                          VAR    BASINP    GEOM    SYMINP    ZMAT    AOBASIS   BASIS     P2S    ABASIS      S 
                                         1400     1410     1200     1210     1080     1600     1650     1700   
                                           T        V       H0       H01     AOSYM     SMH    MOLCAS    OPER   

              2       7       27.51       700     1000      520     2100      200     2101     2102   
                                         GEOM     BASIS   MCVARS     RHF    OPTIONS    RHF      RHF  

 PROGRAMS   *        TOTAL    HF-SCF       INT   CCSD(T)    HF-SCF       INT   CCSD(T)    HF-SCF       INT
 CPU TIMES  *      8785.86    176.04      0.40   1535.98    209.62      0.40   6225.40    180.33    457.43
 REAL TIME  *      9723.15 SEC
 DISK USED  *         3.24 GB (local),       77.35 GB (total)
 SF USED    *         3.08 GB
 GA USED    *         0.00 MB       (max)       0.00 MB       (current)
 **********************************************************************************************************************************

 Basis set:  JKFIT                   
 Basis size:   740
 Attributes:
 Sphericals:   T
 Basis set:  MP2FIT                  
 Basis size:   816
 Attributes:
 Sphericals:   T
 Basis set:  RI                      
 Basis size:   556
 Attributes:
 Sphericals:   T
 Basis set:  TDDFT                   
 Basis size:   816
 Attributes:
 Sphericals:   T

 PROGRAM * CCSD (Closed-shell coupled cluster)     Authors: C. Hampel, H.-J. Werner, 1991, M. Deegan, P.J. Knowles, 1992


 Convergence thresholds:  THRVAR = 1.00D-08  THRDEN = 1.00D-10

 CCSD(T)     terms to be evaluated (factor= 1.000)


 Number of core orbitals:           1 (   1 )
 Number of closed-shell orbitals:   4 (   4 )
 Number of external orbitals:     431 ( 431 )

 Molecular orbitals read from record     2102.2  Type=RHF/CANONICAL (state 1.1)

 Number of N-1 electron functions:               4
 Number of N-2 electron functions:              10
 Number of singly external CSFs:              1724
 Number of doubly external CSFs:           1486950
 Total number of CSFs:                     1488675

 Length of J-op  integral file:               0.00 MB
 Length of K-op  integral file:              13.08 MB
 Length of 3-ext integral record:             0.00 MB

 Memory could be reduced to 526.20 Mwords without degradation in triples

 Integral transformation finished. Total CPU: 245.78 sec, npass=  1  Memory used: 214.76 MW

 Reference energy:                    -40.21595009

 MP2 singlet pair energy:              -0.15443085
 MP2 triplet pair energy:              -0.05646357
 MP2 correlation energy:               -0.21089442
 MP2 total energy:                    -40.42684451

 SCS-MP2 correlation energy:           -0.22044991   (PS=  1.200000  PT=  0.333333)
 SCS-MP2 total energy:                -40.43640000

 ITER.      SQ.NORM     CORR.ENERGY   TOTAL ENERGY   ENERGY CHANGE        DEN1      VAR(S)    VAR(P)  DIIS     TIME  TIME/IT
   1      1.07097385    -0.22687941   -40.44282950    -0.01598498    -0.01039773  0.55D-03  0.97D-03  1  1   298.95    54.09
   2      1.07611884    -0.22797947   -40.44392956    -0.00110007    -0.00547156  0.14D-04  0.91D-04  2  2   351.69    54.98
   3      1.07764014    -0.22801869   -40.44396878    -0.00003922    -0.00107328  0.18D-05  0.58D-05  3  3   404.00    55.93
   4      1.07799989    -0.22802438   -40.44397447    -0.00000569    -0.00017109  0.12D-06  0.28D-06  4  4   454.84    56.32
   5      1.07804793    -0.22802627   -40.44397636    -0.00000189    -0.00001303  0.10D-07  0.20D-07  5  5   507.31    55.94
   6      1.07805618    -0.22802505   -40.44397514     0.00000122    -0.00000328  0.63D-09  0.14D-08  6  6   560.14    55.70
   7      1.07805721    -0.22802476   -40.44397485     0.00000029    -0.00000055  0.45D-10  0.11D-09  6  1   612.84    55.54
   8      1.07805715    -0.22802481   -40.44397490    -0.00000005     0.00000022  0.45D-11  0.61D-11  6  3   665.57    55.41
   9      1.07805727    -0.22802480   -40.44397489     0.00000002    -0.00000008  0.38D-12  0.51D-12  6  2   718.29    55.30
  10      1.07805728    -0.22802480   -40.44397489     0.00000000     0.00000000  0.45D-13  0.54D-13  6  4   770.68    55.21
  11      1.07805728    -0.22802480   -40.44397489     0.00000000     0.00000000  0.42D-14  0.55D-14  6  5   823.17    55.15
  12      1.07805728    -0.22802479   -40.44397489     0.00000000     0.00000000  0.98D-16  0.61D-15  6  6   875.80    55.09
  13      1.07805728    -0.22802479   -40.44397489    -0.00000000     0.00000000  0.76D-17  0.61D-16  6  1   928.36    55.04
  14      1.07805728    -0.22802479   -40.44397489    -0.00000000     0.00000000  0.11D-17  0.79D-17  6  3   981.36    55.02

 Norm of t1 vector:      0.03128361      S-energy:    -0.00000000      T1 diagnostic:  0.00782090
                                                                       D1 diagnostic:  0.01257232

 Total CPU time for triples:    445.72 sec


 RESULTS
 =======

  Reference energy                    -40.215950090374
  CCSD singlet pair energy             -0.173329463787
  CCSD triplet pair energy             -0.054695331119
  CCSD correlation energy              -0.228024794911

  Triples (T) contribution             -0.006882159464
  Total correlation energy             -0.234906954376

  CCSD total energy                   -40.443974885285
  CCSD[T] energy                      -40.451070199451
  CCSD-T energy                       -40.450789435736
 !CCSD(T) total energy                -40.450857044749

 Timing summary (sec):

 STEP                 CPU(USER)    SYS     CPU(TOT)    WALL
 Transformation        246.27      5.63    251.90    252.27
 CCSD iterations       735.17     24.52    759.69    770.45
 Triples               445.72      3.61    449.33    450.05

 Program statistics:

 Available memory in ccsd:              1999999916
 Min. memory needed in ccsd:               6768234
 Max. memory used in ccsd:                 7865440
 Max. memory used in cckext:               5182436 (14 integral passes)



 **********************************************************************************************************************************
 DATASETS  * FILE   NREC   LENGTH (MB)   RECORD NAMES
              1      19     1346.95       500      610      700      900      950      970     1000      129      960     1100   
                                          VAR    BASINP    GEOM    SYMINP    ZMAT    AOBASIS   BASIS     P2S    ABASIS      S 
                                         1400     1410     1200     1210     1080     1600     1650     1700     1380   
                                           T        V       H0       H01     AOSYM     SMH    MOLCAS    OPER     JKOP   

              2       7       27.51       700     1000      520     2100      200     2101     2102   
                                         GEOM     BASIS   MCVARS     RHF    OPTIONS    RHF      RHF  

 PROGRAMS   *        TOTAL   CCSD(T)    HF-SCF       INT   CCSD(T)    HF-SCF       INT   CCSD(T)    HF-SCF       INT
 CPU TIMES  *     10213.25   1427.39    176.04      0.40   1535.98    209.62      0.40   6225.40    180.33    457.43
 REAL TIME  *     11196.71 SEC
 DISK USED  *         3.24 GB (local),       77.35 GB (total)
 SF USED    *         3.08 GB
 GA USED    *         0.00 MB       (max)       0.00 MB       (current)
 **********************************************************************************************************************************
 Molecular orbitals read from record     2102.2  Type=RHF/CANONICAL (state 1.1)
 Occupation numbers read from record     2102.2  Type=RHF/RHF (state 1.1)
 Orbital energies read from record       2102.2  Type=RHF/CANONICAL (state 1.1)
 Redundancy group numbers read from rec  2102.2  Type=RHF/RHF (state 1.1)

 CCSD(T)/aug-cc-pVQZ energy=    -40.450857044749

         CCSD(T)          HF-SCF         CCSD(T)          HF-SCF         CCSD(T)          HF-SCF
    -40.45085704    -40.21595009    -76.36190300    -76.06220769   -116.81330805   -116.27794059
 **********************************************************************************************************************************
 Molpro calculation terminated
