
 Primary working directories    : /scratch/klimes/383106/molpro.N5CO0yAHQ1
 Secondary working directories  : /scratch/klimes/383106/molpro.N5CO0yAHQ1
 Wavefunction directory         : /scratch/klimes/383106/
 Main file repository           : /scratch/klimes/383106/molpro.N5CO0yAHQ1/

 id        : karlovklimes

 Nodes                      nprocs
 nc-22.cc.karlov.mff.cuni.cz    4

 Using customized tuning parameters: mindgm=1; mindgv=20; mindgc=4; mindgr=1; noblas=0; minvec=7
 default implementation of scratch files=sf  


 Variables initialized (930), CPU time= 0.01 sec
                                                                                 !gdirect
 memory,2000,m
 gthresh,orbital=1d-10,energy=1d-10,grid=1d-8
 
 symmetry,nosym
 angstrom
 geometry={
 O3        -0.151700000000      2.697200000000     -0.844800000000
 H5         0.533400000000      2.998100000000     -1.454900000000
 H6        -1.003200000000      2.770600000000     -1.357600000000
 C1        -3.277200000000      1.482500000000      1.271900000000
 H41        -2.464000000000      0.899600000000      1.651000000000
 H42        -3.160800000000      2.501000000000      1.578500000000
 H43        -4.201800000000      1.099200000000      1.650100000000
 H44        -3.268500000000      1.421000000000      0.203700000000
 }
 
 nkerna=1
 nkernb=1
 
 gf=0
 sing=1
 thrdum=1d-4
 gridthr=1d-8
 
 basis={
 set,orbital
 default,avqz
 set,jkfit
 default,avqz/jkfit
 set,mp2fit
 default,avqz/mp2fit
 set,ri
 default,avqz/optri
 set,tddft
 default,avqz/mp2fit
 }
 
 proc set_monomer1
 dummy,4,5,6,7,8
 endproc
 
 proc set_monomer2
 dummy,1,2,3
 endproc
 
                                                                                 !1234 energy
 {hf,accu=1.d-16}
 ccsd(t)
 
 set_monomer1
 {hf,accu=1.d-16}
 ccsd(t)
 
 set_monomer2
 {hf,accu=1.d-16}
 ccsd(t)
 
 Commands  initialized (760), CPU time= 0.01 sec, 617 directives.
 Default parameters read. Elapsed time= 0.20 sec

 Checking input...
 Passed
1


                                         ***  PROGRAM SYSTEM MOLPRO  ***
                                       Copyright, TTI GmbH Stuttgart, 2015
                                    Version 2019.1 linked Jan 14 2019 13:09:19


 **********************************************************************************************************************************
 LABEL *                                                                                 
  64 bit mpp version                                                                     DATE: 11-Mar-20          TIME: 13:21:23  
 **********************************************************************************************************************************

 SHA1:             d688ac825633d238f2093ded1675ba87ccd55965
 **********************************************************************************************************************************

 THRESHOLDS:

 ZERO    =  1.00D-12  ONEINT  =  1.00D-12  TWOINT  =  1.00D-11  PREFAC  =  1.00D-14  XXXXXX  =  1.00D-09  EORDER  =  1.00D-04
 ENERGY  =  1.00D-10  ETEST   =  0.00D+00  EDENS   =  0.00D+00  THRDEDEF=  1.00D-06  GRADIENT=  1.00D-02  STEP    =  1.00D-03
 ORBITAL =  1.00D-10  CIVEC   =  1.00D-05  COEFF   =  1.00D-04  PRINTCI =  5.00D-02  PUNCHCI =  9.90D+01  OPTGRAD =  3.00D-04
 OPTENERG=  1.00D-06  OPTSTEP =  3.00D-04  THRGRAD =  1.00D-10  COMPRESS=  1.00D-11  VARMIN  =  1.00D-07  VARMAX  =  1.00D-03
 THRDOUB =  0.00D+00  THRDIV  =  1.00D-05  THRRED  =  1.00D-07  THRPSP  =  1.00D+00  THRDC   =  1.00D-10  THRCS   =  1.00D-10
 THRNRM  =  1.00D-08  THREQ   =  0.00D+00  THRDE   =  1.00D+00  THRREF  =  1.00D-05  SPARFAC =  1.00D+00  THRDLP  =  1.00D-07
 THRDIA  =  1.00D-10  THRDLS  =  1.00D-07  THRGPS  =  0.00D+00  THRKEX  =  0.00D+00  THRDIS  =  2.00D-01  THRVAR  =  1.00D-10
 THRLOC  =  1.00D-06  THRGAP  =  1.00D-06  THRLOCT = -1.00D+00  THRGAPT = -1.00D+00  THRORB  =  1.00D-06  THRMLTP =  0.00D+00
 THRCPQCI=  1.00D-10  KEXTA   =  0.00D+00  THRCOARS=  0.00D+00  SYMTOL  =  1.00D-06  GRADTOL =  1.00D-06  THROVL  =  1.00D-08
 THRORTH =  1.00D-08  GRID    =  1.00D-08  GRIDMAX =  1.00D-03  DTMAX   =  0.00D+00  THROCCDE=  1.00D-01  THROCCDE=  1.00D-01
 THRPRINT=  2.50D-01


 Variable memory set to 2000000000 words,  buffer space 

 ZSYMEL=NOSYM
 ZUNIT=ANG


Geometry recognized as XYZ

 SETTING NKERNA         =         1.00000000                                  
 SETTING NKERNB         =         1.00000000                                  
 SETTING GF             =     0.00000000D+00                                  
 SETTING SING           =         1.00000000                                  
 SETTING THRDUM         =     1.00000000D-04                                  
 SETTING GRIDTHR        =     1.00000000D-08                                  
 SETTING BASIS          =    AVQZ


 Recomputing integrals since basis changed


 Using spherical harmonics

 Library entry O      S aug-cc-pVQZ          selected for orbital group  1
 Library entry O      P aug-cc-pVQZ          selected for orbital group  1
 Library entry O      D aug-cc-pVQZ          selected for orbital group  1
 Library entry O      F aug-cc-pVQZ          selected for orbital group  1
 Library entry O      G aug-cc-pVQZ          selected for orbital group  1
 Library entry H      S aug-cc-pVQZ          selected for orbital group  2
 Library entry H      P aug-cc-pVQZ          selected for orbital group  2
 Library entry H      D aug-cc-pVQZ          selected for orbital group  2
 Library entry H      F aug-cc-pVQZ          selected for orbital group  2
 Library entry C      S aug-cc-pVQZ          selected for orbital group  3
 Library entry C      P aug-cc-pVQZ          selected for orbital group  3
 Library entry C      D aug-cc-pVQZ          selected for orbital group  3
 Library entry C      F aug-cc-pVQZ          selected for orbital group  3
 Library entry C      G aug-cc-pVQZ          selected for orbital group  3


 PROGRAM * SEWARD (Integral evaluation for generally contracted gaussian basis sets)     Author: Roland Lindh, 1990

 Geometry written to block  1 of record 700


 Point group  C1  



 ATOMIC COORDINATES

 NR  ATOM    CHARGE       X              Y              Z

   1  O3      8.00   -0.286671453    5.096969303   -1.596440630
   2  H5      1.00    1.007979915    5.665587894   -2.749362539
   3  H6      1.00   -1.895773248    5.235675201   -2.565492187
   4  C1      6.00   -6.193010455    2.801518980    2.403542658
   5  H41     1.00   -4.656285171    1.699997622    3.119937832
   6  H42     1.00   -5.973046335    4.726205038    2.982932688
   7  H43     1.00   -7.940251230    2.077186956    3.118237078
   8  H44     1.00   -6.176569838    2.685300823    0.384937212

 Bond lengths in Bohr (Angstrom)

 1-2  1.824466550  1-3  1.883483165  4-5  2.021904040  4-6  2.022002335  4-7  2.021953343
     ( 0.965466121)     ( 0.996696368)     ( 1.069945541)     ( 1.069997556)     ( 1.069971630)

 4-8  2.022015060
     ( 1.070004290)

 Bond angles

  2-1-3  104.96066383   5-4-6  109.53398059   5-4-7  109.65604535   5-4-8  108.43490854

  6-4-7  109.49436728   6-4-8  109.86987750   7-4-8  109.83468330

 NUCLEAR CHARGE:                   20
 NUMBER OF PRIMITIVE AOS:         578
 NUMBER OF SYMMETRY AOS:          474
 NUMBER OF CONTRACTIONS:          436   (  436A   )
 NUMBER OF CORE ORBITALS:           2   (    2A   )
 NUMBER OF VALENCE ORBITALS:       14   (   14A   )


 NUCLEAR REPULSION ENERGY   35.80046073


 Basis set:  JKFIT                   
 Basis size:   740
 Attributes:
 Sphericals:   T
 Basis set:  MP2FIT                  
 Basis size:   816
 Attributes:
 Sphericals:   T
 Basis set:  RI                      
 Basis size:   556
 Attributes:
 Sphericals:   T
 Basis set:  TDDFT                   
 Basis size:   816
 Attributes:
 Sphericals:   T

 **********************************************************************************************************************************


 Eigenvalues of metric

         1 0.152E-04 0.202E-04 0.341E-04 0.383E-04 0.622E-04 0.855E-04 0.913E-04 0.977E-04


 Contracted 2-electron integrals neglected if value below      1.0D-14
 AO integral compression algorithm  1   Integral accuracy      1.0D-14

     21915.501 MB (compressed) written to integral file ( 54.7%)

     Node minimum: 4944.822 MB, node maximum: 5803.868 MB


 NUMBER OF SORTED TWO-ELECTRON INTEGRALS: 1134451344.     BUFFER LENGTH:  32768
 NUMBER OF SEGMENTS:  36  SEGMENT LENGTH:   31999984      RECORD LENGTH: 524288

 Memory used in sort:      32.56 MW

 SORT1 READ  5012305700. AND WROTE   927092624. INTEGRALS IN   2668 RECORDS. CPU TIME:   357.78 SEC, REAL TIME:   409.36 SEC
 SORT2 READ  3707944828. AND WROTE  4537853011. INTEGRALS IN  75452 RECORDS. CPU TIME:    18.53 SEC, REAL TIME:   272.06 SEC

 Node minimum:  1134427528.  Node maximum:  1134498978. integrals

 OPERATOR DM      FOR CENTER  0  COORDINATES:    0.000000    0.000000    0.000000


 **********************************************************************************************************************************
 DATASETS  * FILE   NREC   LENGTH (MB)   RECORD NAMES
              1      18       37.06       500      610      700      900      950      970     1000      129      960     1100   
                                          VAR    BASINP    GEOM    SYMINP    ZMAT    AOBASIS   BASIS     P2S    ABASIS      S 
                                         1400     1410     1200     1210     1080     1600     1650     1700   
                                           T        V       H0       H01     AOSYM     SMH    MOLCAS    OPER   

 PROGRAMS   *        TOTAL       INT
 CPU TIMES  *       438.61    438.39
 REAL TIME  *       756.59 SEC
 DISK USED  *        37.58 MB (local),       66.40 GB (total)
 GA USED    *         0.00 MB       (max)       0.00 MB       (current)
 **********************************************************************************************************************************


 PROGRAM * RHF-SCF (CLOSED SHELL)       Authors: W. Meyer, H.-J. Werner


 NUMBER OF ELECTRONS:      10+   10-    SPACE SYMMETRY=1    SPIN SYMMETRY: Singlet 
 CONVERGENCE THRESHOLDS:    1.00E-08 (Density)    1.00E-11 (Energy)
 MAX. NUMBER OF ITERATIONS:       60
 INTERPOLATION TYPE:            DIIS
 INTERPOLATION STEPS:              2 (START)      1 (STEP)
 LEVEL SHIFTS:                  0.00 (CLOSED)  0.00 (OPEN) 



 Orbital guess generated from atomic densities. Full valence occupancy:   16

 Molecular orbital dump at record        2100.2

 Initial occupancy:  10

 ITERATION    DDIFF          GRAD             ENERGY        2-EL.EN.            DIPOLE MOMENTS         DIIS   ORB.
    1      0.000D+00      0.000D+00      -116.21971794    157.327650   -0.16735    0.35795   -1.08729    0    start
    2      0.000D+00      0.380D-02      -116.26406075    152.268326   -0.04918    0.20825   -0.60728    1    diag
    3      0.274D-02      0.224D-02      -116.27792207    154.366625   -0.07825    0.24679   -0.72933    2    diag
    4      0.958D-03      0.331D-03      -116.27858364    154.253433   -0.07551    0.24348   -0.71884    3    diag
    5      0.203D-03      0.973D-04      -116.27865316    154.248308   -0.07469    0.24353   -0.71836    4    diag
    6      0.821D-04      0.236D-04      -116.27865702    154.253946   -0.07432    0.24332   -0.71764    5    diag
    7      0.219D-04      0.472D-05      -116.27865725    154.252314   -0.07428    0.24333   -0.71767    6    diag
    8      0.651D-05      0.121D-05      -116.27865727    154.252485   -0.07423    0.24332   -0.71762    7    diag
    9      0.148D-05      0.283D-06      -116.27865727    154.252459   -0.07423    0.24331   -0.71760    8    diag
   10      0.420D-06      0.324D-07      -116.27865727    154.252460   -0.07422    0.24331   -0.71760    9    orth
   11      0.431D-07      0.744D-08      -116.27865727    154.252461   -0.07422    0.24331   -0.71760    9    diag
   12      0.916D-08      0.195D-08      -116.27865727    154.252461   -0.07422    0.24331   -0.71760    0    orth

 Final occupancy:  10

 !RHF STATE  1.1 Energy              -116.278657270580
 Nuclear energy                        35.80046073
 One-electron energy                 -229.20534860
 Two-electron energy                   77.12623060
 Virial quotient                       -1.00079852
 !RHF STATE  1.1 Dipole moment         -0.07422386     0.24330912    -0.71759674
 Dipole moment /Debye                  -0.18864588     0.61838959    -1.82382952

 Orbital energies:

         1.1          2.1          3.1          4.1          5.1          6.1          7.1          8.1          9.1         10.1
    -20.568331   -11.191938    -1.340554    -0.946195    -0.705639    -0.579277    -0.547660    -0.545376    -0.543276    -0.508197

        11.1         12.1
      0.024362     0.034913


 HOMO     10.1    -0.508197 =     -13.8287eV
 LUMO     11.1     0.024362 =       0.6629eV
 LUMO-HOMO         0.532559 =      14.4917eV


 **********************************************************************************************************************************
 DATASETS  * FILE   NREC   LENGTH (MB)   RECORD NAMES
              1      18       37.06       500      610      700      900      950      970     1000      129      960     1100   
                                          VAR    BASINP    GEOM    SYMINP    ZMAT    AOBASIS   BASIS     P2S    ABASIS      S 
                                         1400     1410     1200     1210     1080     1600     1650     1700   
                                           T        V       H0       H01     AOSYM     SMH    MOLCAS    OPER   

              2       4        6.75       700     1000      520     2100   
                                         GEOM     BASIS   MCVARS     RHF  

 PROGRAMS   *        TOTAL    HF-SCF       INT
 CPU TIMES  *       596.97    158.36    438.39
 REAL TIME  *      1250.21 SEC
 DISK USED  *        57.63 MB (local),       66.48 GB (total)
 SF USED    *         0.76 MB
 GA USED    *         0.00 MB       (max)       0.00 MB       (current)
 **********************************************************************************************************************************

 Basis set:  JKFIT                   
 Basis size:   740
 Attributes:
 Sphericals:   T
 Basis set:  MP2FIT                  
 Basis size:   816
 Attributes:
 Sphericals:   T
 Basis set:  RI                      
 Basis size:   556
 Attributes:
 Sphericals:   T
 Basis set:  TDDFT                   
 Basis size:   816
 Attributes:
 Sphericals:   T

 PROGRAM * CCSD (Closed-shell coupled cluster)     Authors: C. Hampel, H.-J. Werner, 1991, M. Deegan, P.J. Knowles, 1992


 Convergence thresholds:  THRVAR = 1.00D-08  THRDEN = 1.00D-10

 CCSD(T)     terms to be evaluated (factor= 1.000)


 Number of core orbitals:           2 (   2 )
 Number of closed-shell orbitals:   8 (   8 )
 Number of external orbitals:     426 ( 426 )

 Molecular orbitals read from record     2100.2  Type=RHF/CANONICAL (state 1.1)

 Number of N-1 electron functions:               8
 Number of N-2 electron functions:              36
 Number of singly external CSFs:              3408
 Number of doubly external CSFs:           5808936
 Total number of CSFs:                     5812345

 Length of J-op  integral file:               0.00 MB
 Length of K-op  integral file:              13.08 MB
 Length of 3-ext integral record:             0.00 MB

 Memory could be reduced to 828.85 Mwords without degradation in triples

 Integral transformation finished. Total CPU: 295.51 sec, npass=  1  Memory used: 389.48 MW

 Reference energy:                   -116.27865727

 MP2 singlet pair energy:              -0.34086322
 MP2 triplet pair energy:              -0.15824986
 MP2 correlation energy:               -0.49911308
 MP2 total energy:                   -116.77777035

 SCS-MP2 correlation energy:           -0.50750244   (PS=  1.200000  PT=  0.333333)
 SCS-MP2 total energy:               -116.78615971

 ITER.      SQ.NORM     CORR.ENERGY   TOTAL ENERGY   ENERGY CHANGE        DEN1      VAR(S)    VAR(P)  DIIS     TIME  TIME/IT
   1      1.13575079    -0.51679480  -116.79545207    -0.01768172    -0.00619224  0.14D-02  0.20D-02  1  1   448.77   154.22
   2      1.14435935    -0.51814797  -116.79680524    -0.00135317    -0.01023999  0.27D-04  0.25D-03  2  2   603.09   155.45
   3      1.14757440    -0.51827158  -116.79692885    -0.00012361    -0.00225666  0.11D-04  0.13D-04  3  3   757.71   156.17
   4      1.14843606    -0.51827492  -116.79693219    -0.00000334    -0.00040887  0.59D-06  0.12D-05  4  4   911.73   156.17
   5      1.14859224    -0.51827462  -116.79693189     0.00000030    -0.00004594  0.20D-06  0.85D-07  5  5  1066.17   156.28
   6      1.14864088    -0.51827089  -116.79692817     0.00000372    -0.00001168  0.19D-07  0.60D-08  6  6  1220.74   156.38
   7      1.14865017    -0.51826991  -116.79692718     0.00000098    -0.00000147  0.15D-08  0.81D-09  6  2  1375.18   156.39
   8      1.14865213    -0.51826979  -116.79692707     0.00000012     0.00000006  0.26D-09  0.84D-10  6  1  1529.84   156.43
   9      1.14865297    -0.51826974  -116.79692701     0.00000006    -0.00000004  0.18D-10  0.12D-10  6  3  1684.61   156.46
  10      1.14865307    -0.51826974  -116.79692701     0.00000000     0.00000007  0.22D-11  0.15D-11  6  4  1839.17   156.46
  11      1.14865303    -0.51826974  -116.79692701    -0.00000000     0.00000006  0.39D-12  0.22D-12  6  5  1993.41   156.46
  12      1.14865301    -0.51826974  -116.79692701    -0.00000000     0.00000002  0.84D-13  0.27D-13  6  6  2147.86   156.46
  13      1.14865299    -0.51826974  -116.79692701    -0.00000000     0.00000001  0.15D-13  0.42D-14  6  2  2302.38   156.47
  14      1.14865298    -0.51826974  -116.79692702    -0.00000000     0.00000000  0.20D-14  0.96D-15  6  1  2456.38   156.46
  15      1.14865298    -0.51826975  -116.79692702    -0.00000000     0.00000000  0.22D-15  0.12D-15  6  3  2610.95   156.46
  16      1.14865298    -0.51826975  -116.79692702    -0.00000000    -0.00000000  0.28D-16  0.17D-16  6  4  2765.45   156.48
  17      1.14865298    -0.51826975  -116.79692702     0.00000000    -0.00000000  0.52D-17  0.27D-17  6  5  2920.14   156.48

 Norm of t1 vector:      0.05014902      S-energy:    -0.00000000      T1 diagnostic:  0.00886518
                                                                       D1 diagnostic:  0.02045843

   CPU time for triples:   2021.49 sec for i =  1 -  7 /  8 (~  68.8 % done)
   CPU time for triples:    808.94 sec for i =  8 -  8 /  8 (  100.0 % done)

 Total CPU time for triples:   2833.43 sec


 RESULTS
 =======

  Reference energy                   -116.278657270581
  CCSD singlet pair energy             -0.373565347363
  CCSD triplet pair energy             -0.144704397432
  CCSD correlation energy              -0.518269745025

  Triples (T) contribution             -0.016584058619
  Total correlation energy             -0.534853803643

  CCSD total energy                  -116.796927015605
  CCSD[T] energy                     -116.814047411347
  CCSD-T energy                      -116.813286789532
 !CCSD(T) total energy               -116.813511074224

 Timing summary (sec):

 STEP                 CPU(USER)    SYS     CPU(TOT)    WALL
 Transformation        296.73      7.93    304.66    307.65
 CCSD iterations      2623.53     31.92   2655.45   2660.44
 Triples              2833.43      7.87   2841.30   2844.29

 Program statistics:

 Available memory in ccsd:              1999999734
 Min. memory needed in ccsd:              17010489
 Max. memory used in ccsd:                22038113
 Max. memory used in cckext:              15155228 (17 integral passes)



 **********************************************************************************************************************************
 DATASETS  * FILE   NREC   LENGTH (MB)   RECORD NAMES
              1      19     2602.11       500      610      700      900      950      970     1000      129      960     1100   
                                          VAR    BASINP    GEOM    SYMINP    ZMAT    AOBASIS   BASIS     P2S    ABASIS      S 
                                         1400     1410     1200     1210     1080     1600     1650     1700     1380   
                                           T        V       H0       H01     AOSYM     SMH    MOLCAS    OPER     JKOP   

              2       4        6.75       700     1000      520     2100   
                                         GEOM     BASIS   MCVARS     RHF  

 PROGRAMS   *        TOTAL   CCSD(T)    HF-SCF       INT
 CPU TIMES  *      6350.93   5753.94    158.36    438.39
 REAL TIME  *      7063.61 SEC
 DISK USED  *         3.24 GB (local),       77.31 GB (total)
 SF USED    *         3.08 GB
 GA USED    *         0.00 MB       (max)       0.00 MB       (current)
 **********************************************************************************************************************************

 Running procedure: SET_MONOMER1

 Dummy atoms: C1  H41  H42  H43  H44


 Recomputing one-electron integrals since nuclear charges changed


 PROGRAM * SEWARD (Integral evaluation for generally contracted gaussian basis sets)     Author: Roland Lindh, 1990

 Geometry written to block  1 of record 700


 Point group  C1  



 ATOMIC COORDINATES

 NR  ATOM    CHARGE       X              Y              Z

   1  O3      8.00   -0.286671453    5.096969303   -1.596440630
   2  H5      1.00    1.007979915    5.665587894   -2.749362539
   3  H6      1.00   -1.895773248    5.235675201   -2.565492187
   4  C1      0.00   -6.193010455    2.801518980    2.403542658
   5  H41     0.00   -4.656285171    1.699997622    3.119937832
   6  H42     0.00   -5.973046335    4.726205038    2.982932688
   7  H43     0.00   -7.940251230    2.077186956    3.118237078
   8  H44     0.00   -6.176569838    2.685300823    0.384937212

 Bond lengths in Bohr (Angstrom)

 1-2  1.824466550  1-3  1.883483165  4-5  2.021904040  4-6  2.022002335  4-7  2.021953343
     ( 0.965466121)     ( 0.996696368)     ( 1.069945541)     ( 1.069997556)     ( 1.069971630)

 4-8  2.022015060
     ( 1.070004290)

 Bond angles

  2-1-3  104.96066383   5-4-6  109.53398059   5-4-7  109.65604535   5-4-8  108.43490854

  6-4-7  109.49436728   6-4-8  109.86987750   7-4-8  109.83468330

 NUCLEAR CHARGE:                   10
 NUMBER OF PRIMITIVE AOS:         578
 NUMBER OF SYMMETRY AOS:          474
 NUMBER OF CONTRACTIONS:          436   (  436A   )
 NUMBER OF CORE ORBITALS:           1   (    1A   )
 NUMBER OF VALENCE ORBITALS:        6   (    6A   )

 MOLECULE CHANGED: INITIALIZING OCCUPATION AND DUMP RECORDS


 NUCLEAR REPULSION ENERGY    8.97229507

 Basis set:  JKFIT                   
 Basis size:   740
 Attributes:
 Sphericals:   T
 Basis set:  MP2FIT                  
 Basis size:   816
 Attributes:
 Sphericals:   T
 Basis set:  RI                      
 Basis size:   556
 Attributes:
 Sphericals:   T
 Basis set:  TDDFT                   
 Basis size:   816
 Attributes:
 Sphericals:   T

 Eigenvalues of metric

         1 0.152E-04 0.202E-04 0.341E-04 0.383E-04 0.622E-04 0.855E-04 0.913E-04 0.977E-04


 Contracted 2-electron integrals neglected if value below      1.0D-14

 OPERATOR DM      FOR CENTER  0  COORDINATES:    0.000000    0.000000    0.000000


 **********************************************************************************************************************************
 DATASETS  * FILE   NREC   LENGTH (MB)   RECORD NAMES
              1      18       37.06       500      610      700      900      950      970     1000      129      960     1100   
                                          VAR    BASINP    GEOM    SYMINP    ZMAT    AOBASIS   BASIS     P2S    ABASIS      S 
                                         1400     1410     1200     1210     1080     1600     1650     1700   
                                           T        V       H0       H01     AOSYM     SMH    MOLCAS    OPER   

              2       5       10.59       700     1000      520     2100      200   
                                         GEOM     BASIS   MCVARS     RHF    OPTIONS    

 PROGRAMS   *        TOTAL       INT   CCSD(T)    HF-SCF       INT
 CPU TIMES  *      6351.32      0.39   5753.94    158.36    438.39
 REAL TIME  *      7064.85 SEC
 DISK USED  *         3.24 GB (local),       77.33 GB (total)
 SF USED    *         3.08 GB
 GA USED    *         0.00 MB       (max)       0.00 MB       (current)
 **********************************************************************************************************************************


 PROGRAM * RHF-SCF (CLOSED SHELL)       Authors: W. Meyer, H.-J. Werner


 NUMBER OF ELECTRONS:       5+    5-    SPACE SYMMETRY=1    SPIN SYMMETRY: Singlet 
 CONVERGENCE THRESHOLDS:    1.00E-08 (Density)    1.00E-11 (Energy)
 MAX. NUMBER OF ITERATIONS:       60
 INTERPOLATION TYPE:            DIIS
 INTERPOLATION STEPS:              2 (START)      1 (STEP)
 LEVEL SHIFTS:                  0.00 (CLOSED)  0.00 (OPEN) 



 Orbital guess generated from atomic densities. Full valence occupancy:    7

 Molecular orbital dump at record        2101.2

 Initial occupancy:   5

 ITERATION    DDIFF          GRAD             ENERGY        2-EL.EN.            DIPOLE MOMENTS         DIIS   ORB.
    1      0.000D+00      0.000D+00       -76.02411553     77.372867   -0.17154    0.36106   -1.08713    0    start
    2      0.000D+00      0.467D-02       -76.05095600     73.705389   -0.08960    0.21024   -0.62935    1    diag
    3      0.222D-02      0.299D-02       -76.06264246     75.335588   -0.10804    0.24822   -0.74384    2    diag
    4      0.847D-03      0.279D-03       -76.06283953     75.244127   -0.10542    0.24692   -0.73922    3    diag
    5      0.107D-03      0.788D-04       -76.06286125     75.258627   -0.10435    0.24646   -0.73751    4    diag
    6      0.352D-04      0.158D-04       -76.06286268     75.257562   -0.10402    0.24636   -0.73713    5    diag
    7      0.923D-05      0.324D-05       -76.06286275     75.257709   -0.10393    0.24633   -0.73701    6    diag
    8      0.255D-05      0.600D-06       -76.06286276     75.257693   -0.10392    0.24632   -0.73697    7    diag
    9      0.462D-06      0.812D-07       -76.06286276     75.257684   -0.10392    0.24632   -0.73696    8    diag
   10      0.511D-07      0.191D-07       -76.06286276     75.257687   -0.10392    0.24632   -0.73696    9    orth
   11      0.131D-07      0.433D-08       -76.06286276     75.257686   -0.10392    0.24632   -0.73696    9    diag
   12      0.335D-08      0.857D-09       -76.06286276     75.257686   -0.10392    0.24632   -0.73696    0    orth

 Final occupancy:   5

 !RHF STATE  1.1 Energy               -76.062862755088
 Nuclear energy                         8.97229507
 One-electron energy                 -122.66400093
 Two-electron energy                   37.62884311
 Virial quotient                       -1.00209027
 !RHF STATE  1.1 Dipole moment         -0.10391786     0.24631685    -0.73696357
 Dipole moment /Debye                  -0.26411555     0.62603398    -1.87305188

 Orbital energies:

         1.1          2.1          3.1          4.1          5.1          6.1          7.1
    -20.568597    -1.340797    -0.705840    -0.579460    -0.508463     0.021041     0.031816


 HOMO      5.1    -0.508463 =     -13.8360eV
 LUMO      6.1     0.021041 =       0.5725eV
 LUMO-HOMO         0.529504 =      14.4085eV


 **********************************************************************************************************************************
 DATASETS  * FILE   NREC   LENGTH (MB)   RECORD NAMES
              1      18       37.06       500      610      700      900      950      970     1000      129      960     1100   
                                          VAR    BASINP    GEOM    SYMINP    ZMAT    AOBASIS   BASIS     P2S    ABASIS      S 
                                         1400     1410     1200     1210     1080     1600     1650     1700   
                                           T        V       H0       H01     AOSYM     SMH    MOLCAS    OPER   

              2       6       17.39       700     1000      520     2100      200     2101   
                                         GEOM     BASIS   MCVARS     RHF    OPTIONS    RHF  

 PROGRAMS   *        TOTAL    HF-SCF       INT   CCSD(T)    HF-SCF       INT
 CPU TIMES  *      6543.99    192.67      0.39   5753.94    158.36    438.39
 REAL TIME  *      7275.68 SEC
 DISK USED  *         3.24 GB (local),       77.33 GB (total)
 SF USED    *         3.08 GB
 GA USED    *         0.00 MB       (max)       0.00 MB       (current)
 **********************************************************************************************************************************

 Basis set:  JKFIT                   
 Basis size:   740
 Attributes:
 Sphericals:   T
 Basis set:  MP2FIT                  
 Basis size:   816
 Attributes:
 Sphericals:   T
 Basis set:  RI                      
 Basis size:   556
 Attributes:
 Sphericals:   T
 Basis set:  TDDFT                   
 Basis size:   816
 Attributes:
 Sphericals:   T

 PROGRAM * CCSD (Closed-shell coupled cluster)     Authors: C. Hampel, H.-J. Werner, 1991, M. Deegan, P.J. Knowles, 1992


 Convergence thresholds:  THRVAR = 1.00D-08  THRDEN = 1.00D-10

 CCSD(T)     terms to be evaluated (factor= 1.000)


 Number of core orbitals:           1 (   1 )
 Number of closed-shell orbitals:   4 (   4 )
 Number of external orbitals:     431 ( 431 )

 Molecular orbitals read from record     2101.2  Type=RHF/CANONICAL (state 1.1)

 Number of N-1 electron functions:               4
 Number of N-2 electron functions:              10
 Number of singly external CSFs:              1724
 Number of doubly external CSFs:           1486950
 Total number of CSFs:                     1488675

 Length of J-op  integral file:               0.00 MB
 Length of K-op  integral file:              13.08 MB
 Length of 3-ext integral record:             0.00 MB

 Memory could be reduced to 526.20 Mwords without degradation in triples

 Integral transformation finished. Total CPU: 156.62 sec, npass=  1  Memory used: 214.76 MW

 Reference energy:                    -76.06286276

 MP2 singlet pair energy:              -0.18629793
 MP2 triplet pair energy:              -0.10143851
 MP2 correlation energy:               -0.28773644
 MP2 total energy:                    -76.35059919

 SCS-MP2 correlation energy:           -0.28667481   (PS=  1.200000  PT=  0.333333)
 SCS-MP2 total energy:                -76.34953756

 ITER.      SQ.NORM     CORR.ENERGY   TOTAL ENERGY   ENERGY CHANGE        DEN1      VAR(S)    VAR(P)  DIIS     TIME  TIME/IT
   1      1.06457882    -0.28947086   -76.35233362    -0.00173442     0.00415791  0.85D-03  0.11D-02  1  1   201.56    46.16
   2      1.06825064    -0.28972840   -76.35259115    -0.00025753    -0.00493586  0.14D-04  0.12D-03  2  2   247.13    46.56
   3      1.06972168    -0.28980895   -76.35267171    -0.00008056    -0.00102500  0.89D-05  0.63D-05  3  3   292.47    46.67
   4      1.07020072    -0.28980838   -76.35267113     0.00000058    -0.00022259  0.48D-06  0.74D-06  4  4   337.67    46.73
   5      1.07030375    -0.28980610   -76.35266885     0.00000228    -0.00003171  0.16D-06  0.48D-07  5  5   382.89    46.78
   6      1.07034116    -0.28980295   -76.35266570     0.00000315    -0.00000858  0.14D-07  0.34D-08  6  6   428.65    46.83
   7      1.07034814    -0.28980260   -76.35266536     0.00000035    -0.00000051  0.97D-09  0.55D-09  6  1   473.87    46.86
   8      1.07034944    -0.28980255   -76.35266530     0.00000005     0.00000023  0.16D-09  0.62D-10  6  2   519.42    46.86
   9      1.07035005    -0.28980250   -76.35266525     0.00000005    -0.00000001  0.11D-10  0.63D-11  6  3   564.95    46.88
  10      1.07035012    -0.28980249   -76.35266525     0.00000000     0.00000003  0.18D-11  0.82D-12  6  4   610.18    46.88
  11      1.07035011    -0.28980249   -76.35266525    -0.00000000     0.00000002  0.39D-12  0.13D-12  6  5   655.69    46.91
  12      1.07035010    -0.28980250   -76.35266525    -0.00000000     0.00000001  0.74D-13  0.19D-13  6  6   700.94    46.92
  13      1.07035009    -0.28980250   -76.35266525    -0.00000000     0.00000000  0.10D-13  0.34D-14  6  1   746.38    46.93
  14      1.07035009    -0.28980250   -76.35266525    -0.00000000     0.00000000  0.11D-14  0.69D-15  6  2   791.88    46.94
  15      1.07035009    -0.28980250   -76.35266525    -0.00000000     0.00000000  0.12D-15  0.86D-16  6  3   837.15    46.94
  16      1.07035009    -0.28980250   -76.35266525    -0.00000000     0.00000000  0.15D-16  0.11D-16  6  4   882.30    46.94

 Norm of t1 vector:      0.03874895      S-energy:    -0.00000000      T1 diagnostic:  0.00968724
                                                                       D1 diagnostic:  0.02024785


 Total CPU time for triples:    421.68 sec


 RESULTS
 =======

  Reference energy                    -76.062862755090
  CCSD singlet pair energy             -0.200140471025
  CCSD triplet pair energy             -0.089662026418
  CCSD correlation energy              -0.289802497489

  Triples (T) contribution             -0.009619791323
  Total correlation energy             -0.299422288812

  CCSD total energy                   -76.352665252578
  CCSD[T] energy                      -76.362605239397
  CCSD-T energy                       -76.362130121544
 !CCSD(T) total energy                -76.362285043901

 Timing summary (sec):

 STEP                 CPU(USER)    SYS     CPU(TOT)    WALL
 Transformation        156.99      4.34    161.33    161.51
 CCSD iterations       725.40     25.10    750.50    751.27
 Triples               421.68      1.35    423.03    423.49

 Program statistics:

 Available memory in ccsd:              1999999921
 Min. memory needed in ccsd:               6768234
 Max. memory used in ccsd:                 7865440
 Max. memory used in cckext:               5182436 (16 integral passes)



 **********************************************************************************************************************************
 DATASETS  * FILE   NREC   LENGTH (MB)   RECORD NAMES
              1      19     1346.95       500      610      700      900      950      970     1000      129      960     1100   
                                          VAR    BASINP    GEOM    SYMINP    ZMAT    AOBASIS   BASIS     P2S    ABASIS      S 
                                         1400     1410     1200     1210     1080     1600     1650     1700     1380   
                                           T        V       H0       H01     AOSYM     SMH    MOLCAS    OPER     JKOP   

              2       6       17.39       700     1000      520     2100      200     2101   
                                         GEOM     BASIS   MCVARS     RHF    OPTIONS    RHF  

 PROGRAMS   *        TOTAL   CCSD(T)    HF-SCF       INT   CCSD(T)    HF-SCF       INT
 CPU TIMES  *      7848.30   1304.30    192.67      0.39   5753.94    158.36    438.39
 REAL TIME  *      8612.74 SEC
 DISK USED  *         3.24 GB (local),       77.33 GB (total)
 SF USED    *         3.08 GB
 GA USED    *         0.00 MB       (max)       0.00 MB       (current)
 **********************************************************************************************************************************

 Running procedure: SET_MONOMER2

 Dummy atoms: O3  H5  H6


 Recomputing one-electron integrals since nuclear charges changed


 PROGRAM * SEWARD (Integral evaluation for generally contracted gaussian basis sets)     Author: Roland Lindh, 1990

 Geometry written to block  1 of record 700


 Point group  C1  



 ATOMIC COORDINATES

 NR  ATOM    CHARGE       X              Y              Z

   1  O3      0.00   -0.286671453    5.096969303   -1.596440630
   2  H5      0.00    1.007979915    5.665587894   -2.749362539
   3  H6      0.00   -1.895773248    5.235675201   -2.565492187
   4  C1      6.00   -6.193010455    2.801518980    2.403542658
   5  H41     1.00   -4.656285171    1.699997622    3.119937832
   6  H42     1.00   -5.973046335    4.726205038    2.982932688
   7  H43     1.00   -7.940251230    2.077186956    3.118237078
   8  H44     1.00   -6.176569838    2.685300823    0.384937212

 Bond lengths in Bohr (Angstrom)

 1-2  1.824466550  1-3  1.883483165  4-5  2.021904040  4-6  2.022002335  4-7  2.021953343
     ( 0.965466121)     ( 0.996696368)     ( 1.069945541)     ( 1.069997556)     ( 1.069971630)

 4-8  2.022015060
     ( 1.070004290)

 Bond angles

  2-1-3  104.96066383   5-4-6  109.53398059   5-4-7  109.65604535   5-4-8  108.43490854

  6-4-7  109.49436728   6-4-8  109.86987750   7-4-8  109.83468330

 NUCLEAR CHARGE:                   10
 NUMBER OF PRIMITIVE AOS:         578
 NUMBER OF SYMMETRY AOS:          474
 NUMBER OF CONTRACTIONS:          436   (  436A   )
 NUMBER OF CORE ORBITALS:           1   (    1A   )
 NUMBER OF VALENCE ORBITALS:        8   (    8A   )

 MOLECULE CHANGED: INITIALIZING OCCUPATION AND DUMP RECORDS


 NUCLEAR REPULSION ENERGY   13.68681606

 Basis set:  JKFIT                   
 Basis size:   740
 Attributes:
 Sphericals:   T
 Basis set:  MP2FIT                  
 Basis size:   816
 Attributes:
 Sphericals:   T
 Basis set:  RI                      
 Basis size:   556
 Attributes:
 Sphericals:   T
 Basis set:  TDDFT                   
 Basis size:   816
 Attributes:
 Sphericals:   T

 Eigenvalues of metric

         1 0.152E-04 0.202E-04 0.341E-04 0.383E-04 0.622E-04 0.855E-04 0.913E-04 0.977E-04


 Contracted 2-electron integrals neglected if value below      1.0D-14

 OPERATOR DM      FOR CENTER  0  COORDINATES:    0.000000    0.000000    0.000000


 **********************************************************************************************************************************
 DATASETS  * FILE   NREC   LENGTH (MB)   RECORD NAMES
              1      18       37.06       500      610      700      900      950      970     1000      129      960     1100   
                                          VAR    BASINP    GEOM    SYMINP    ZMAT    AOBASIS   BASIS     P2S    ABASIS      S 
                                         1400     1410     1200     1210     1080     1600     1650     1700   
                                           T        V       H0       H01     AOSYM     SMH    MOLCAS    OPER   

              2       6       17.39       700     1000      520     2100      200     2101   
                                         GEOM     BASIS   MCVARS     RHF    OPTIONS    RHF  

 PROGRAMS   *        TOTAL       INT   CCSD(T)    HF-SCF       INT   CCSD(T)    HF-SCF       INT
 CPU TIMES  *      7848.65      0.35   1304.30    192.67      0.39   5753.94    158.36    438.39
 REAL TIME  *      8613.83 SEC
 DISK USED  *         3.24 GB (local),       77.33 GB (total)
 SF USED    *         3.08 GB
 GA USED    *         0.00 MB       (max)       0.00 MB       (current)
 **********************************************************************************************************************************


 PROGRAM * RHF-SCF (CLOSED SHELL)       Authors: W. Meyer, H.-J. Werner


 NUMBER OF ELECTRONS:       5+    5-    SPACE SYMMETRY=1    SPIN SYMMETRY: Singlet 
 CONVERGENCE THRESHOLDS:    1.00E-08 (Density)    1.00E-11 (Energy)
 MAX. NUMBER OF ITERATIONS:       60
 INTERPOLATION TYPE:            DIIS
 INTERPOLATION STEPS:              2 (START)      1 (STEP)
 LEVEL SHIFTS:                  0.00 (CLOSED)  0.00 (OPEN) 



 Orbital guess generated from atomic densities. Full valence occupancy:    9

 Molecular orbital dump at record        2102.2

 Initial occupancy:   5

 ITERATION    DDIFF          GRAD             ENERGY        2-EL.EN.            DIPOLE MOMENTS         DIIS   ORB.
    1      0.000D+00      0.000D+00       -40.19609608     53.506291    0.00410   -0.00276   -0.00131    0    start
    2      0.000D+00      0.257D-02       -40.21335023     52.217620    0.00129   -0.00088   -0.00039    1    diag
    3      0.159D-02      0.998D-03       -40.21562617     52.672080    0.00182   -0.00124   -0.00056    2    diag
    4      0.445D-03      0.249D-03       -40.21594562     52.617267    0.00162   -0.00110   -0.00049    3    diag
    5      0.165D-03      0.322D-04       -40.21595111     52.619415    0.00159   -0.00108   -0.00048    4    diag
    6      0.414D-04      0.264D-05       -40.21595116     52.619552    0.00159   -0.00108   -0.00048    5    diag
    7      0.566D-05      0.212D-06       -40.21595116     52.619512    0.00159   -0.00108   -0.00048    6    diag
    8      0.211D-06      0.170D-07       -40.21595116     52.619513    0.00159   -0.00108   -0.00048    7    diag
    9      0.834D-07      0.217D-08       -40.21595116     52.619513    0.00159   -0.00108   -0.00048    8    diag
   10      0.857D-08      0.594D-09       -40.21595116     52.619513    0.00159   -0.00108   -0.00048    0    orth

 Final occupancy:   5

 !RHF STATE  1.1 Energy               -40.215951156790
 Nuclear energy                        13.68681606
 One-electron energy                  -80.21252391
 Two-electron energy                   26.30975670
 Virial quotient                       -0.99838112
 !RHF STATE  1.1 Dipole moment          0.00159077    -0.00108340    -0.00047855
 Dipole moment /Debye                   0.00404306    -0.00275356    -0.00121626

 Orbital energies:

         1.1          2.1          3.1          4.1          5.1          6.1          7.1
    -11.196224    -0.950661    -0.551889    -0.549955    -0.547776     0.023669     0.034981


 HOMO      5.1    -0.547776 =     -14.9057eV
 LUMO      6.1     0.023669 =       0.6441eV
 LUMO-HOMO         0.571445 =      15.5498eV


 **********************************************************************************************************************************
 DATASETS  * FILE   NREC   LENGTH (MB)   RECORD NAMES
              1      18       37.06       500      610      700      900      950      970     1000      129      960     1100   
                                          VAR    BASINP    GEOM    SYMINP    ZMAT    AOBASIS   BASIS     P2S    ABASIS      S 
                                         1400     1410     1200     1210     1080     1600     1650     1700   
                                           T        V       H0       H01     AOSYM     SMH    MOLCAS    OPER   

              2       7       27.51       700     1000      520     2100      200     2101     2102   
                                         GEOM     BASIS   MCVARS     RHF    OPTIONS    RHF      RHF  

 PROGRAMS   *        TOTAL    HF-SCF       INT   CCSD(T)    HF-SCF       INT   CCSD(T)    HF-SCF       INT
 CPU TIMES  *      8011.12    162.46      0.35   1304.30    192.67      0.39   5753.94    158.36    438.39
 REAL TIME  *      8791.86 SEC
 DISK USED  *         3.24 GB (local),       77.33 GB (total)
 SF USED    *         3.08 GB
 GA USED    *         0.00 MB       (max)       0.00 MB       (current)
 **********************************************************************************************************************************

 Basis set:  JKFIT                   
 Basis size:   740
 Attributes:
 Sphericals:   T
 Basis set:  MP2FIT                  
 Basis size:   816
 Attributes:
 Sphericals:   T
 Basis set:  RI                      
 Basis size:   556
 Attributes:
 Sphericals:   T
 Basis set:  TDDFT                   
 Basis size:   816
 Attributes:
 Sphericals:   T

 PROGRAM * CCSD (Closed-shell coupled cluster)     Authors: C. Hampel, H.-J. Werner, 1991, M. Deegan, P.J. Knowles, 1992


 Convergence thresholds:  THRVAR = 1.00D-08  THRDEN = 1.00D-10

 CCSD(T)     terms to be evaluated (factor= 1.000)


 Number of core orbitals:           1 (   1 )
 Number of closed-shell orbitals:   4 (   4 )
 Number of external orbitals:     431 ( 431 )

 Molecular orbitals read from record     2102.2  Type=RHF/CANONICAL (state 1.1)

 Number of N-1 electron functions:               4
 Number of N-2 electron functions:              10
 Number of singly external CSFs:              1724
 Number of doubly external CSFs:           1486950
 Total number of CSFs:                     1488675

 Length of J-op  integral file:               0.00 MB
 Length of K-op  integral file:              13.08 MB
 Length of 3-ext integral record:             0.00 MB

 Memory could be reduced to 526.20 Mwords without degradation in triples

 Integral transformation finished. Total CPU: 156.36 sec, npass=  1  Memory used: 214.76 MW

 Reference energy:                    -40.21595116

 MP2 singlet pair energy:              -0.15442340
 MP2 triplet pair energy:              -0.05646245
 MP2 correlation energy:               -0.21088585
 MP2 total energy:                    -40.42683701

 SCS-MP2 correlation energy:           -0.22044027   (PS=  1.200000  PT=  0.333333)
 SCS-MP2 total energy:                -40.43639143

 ITER.      SQ.NORM     CORR.ENERGY   TOTAL ENERGY   ENERGY CHANGE        DEN1      VAR(S)    VAR(P)  DIIS     TIME  TIME/IT
   1      1.07097421    -0.22687374   -40.44282490    -0.01598789    -0.01040088  0.54D-03  0.97D-03  1  1   201.55    46.15
   2      1.07611944    -0.22797378   -40.44392494    -0.00110004    -0.00547176  0.14D-04  0.91D-04  2  2   246.92    46.50
   3      1.07764041    -0.22801302   -40.44396418    -0.00003924    -0.00107291  0.18D-05  0.58D-05  3  3   292.26    46.63
   4      1.07800009    -0.22801872   -40.44396987    -0.00000569    -0.00017104  0.12D-06  0.28D-06  4  4   337.47    46.69
   5      1.07804810    -0.22802060   -40.44397176    -0.00000189    -0.00001301  0.10D-07  0.20D-07  5  5   382.92    46.76
   6      1.07805633    -0.22801938   -40.44397053     0.00000123    -0.00000329  0.62D-09  0.14D-08  6  6   428.03    46.78
   7      1.07805734    -0.22801910   -40.44397025     0.00000028    -0.00000054  0.45D-10  0.11D-09  6  1   473.36    46.81
   8      1.07805728    -0.22801915   -40.44397030    -0.00000005     0.00000023  0.44D-11  0.59D-11  6  3   518.82    46.82
   9      1.07805740    -0.22801913   -40.44397029     0.00000002    -0.00000008  0.36D-12  0.49D-12  6  2   564.21    46.84
  10      1.07805741    -0.22801913   -40.44397029     0.00000000     0.00000000  0.44D-13  0.53D-13  6  4   609.63    46.84
  11      1.07805741    -0.22801913   -40.44397028     0.00000000     0.00000000  0.41D-14  0.54D-14  6  5   655.10    46.85
  12      1.07805741    -0.22801913   -40.44397028     0.00000000     0.00000000  0.90D-16  0.58D-15  6  6   700.46    46.86
  13      1.07805741    -0.22801913   -40.44397028    -0.00000000     0.00000000  0.70D-17  0.57D-16  6  1   745.39    46.82
  14      1.07805741    -0.22801913   -40.44397028    -0.00000000     0.00000000  0.10D-17  0.78D-17  6  3   790.71    46.83

 Norm of t1 vector:      0.03128150      S-energy:    -0.00000000      T1 diagnostic:  0.00782038
                                                                       D1 diagnostic:  0.01257153

 Total CPU time for triples:    421.63 sec


 RESULTS
 =======

  Reference energy                    -40.215951156790
  CCSD singlet pair energy             -0.173324806375
  CCSD triplet pair energy             -0.054694321385
  CCSD correlation energy              -0.228019127765

  Triples (T) contribution             -0.006881592713
  Total correlation energy             -0.234900720478

  CCSD total energy                   -40.443970284555
  CCSD[T] energy                      -40.451065022159
  CCSD-T energy                       -40.450784269535
 !CCSD(T) total energy                -40.450851877267

 Timing summary (sec):

 STEP                 CPU(USER)    SYS     CPU(TOT)    WALL
 Transformation        156.74      4.49    161.23    161.71
 CCSD iterations       634.07     21.05    655.12    655.80
 Triples               421.63      1.26    422.89    423.33

 Program statistics:

 Available memory in ccsd:              1999999916
 Min. memory needed in ccsd:               6768234
 Max. memory used in ccsd:                 7865440
 Max. memory used in cckext:               5182436 (14 integral passes)



 **********************************************************************************************************************************
 DATASETS  * FILE   NREC   LENGTH (MB)   RECORD NAMES
              1      19     1346.95       500      610      700      900      950      970     1000      129      960     1100   
                                          VAR    BASINP    GEOM    SYMINP    ZMAT    AOBASIS   BASIS     P2S    ABASIS      S 
                                         1400     1410     1200     1210     1080     1600     1650     1700     1380   
                                           T        V       H0       H01     AOSYM     SMH    MOLCAS    OPER     JKOP   

              2       7       27.51       700     1000      520     2100      200     2101     2102   
                                         GEOM     BASIS   MCVARS     RHF    OPTIONS    RHF      RHF  

 PROGRAMS   *        TOTAL   CCSD(T)    HF-SCF       INT   CCSD(T)    HF-SCF       INT   CCSD(T)    HF-SCF       INT
 CPU TIMES  *      9223.76   1212.64    162.46      0.35   1304.30    192.67      0.39   5753.94    158.36    438.39
 REAL TIME  *     10033.60 SEC
 DISK USED  *         3.24 GB (local),       77.33 GB (total)
 SF USED    *         3.08 GB
 GA USED    *         0.00 MB       (max)       0.00 MB       (current)
 **********************************************************************************************************************************
 Molecular orbitals read from record     2102.2  Type=RHF/CANONICAL (state 1.1)
 Occupation numbers read from record     2102.2  Type=RHF/RHF (state 1.1)
 Orbital energies read from record       2102.2  Type=RHF/CANONICAL (state 1.1)
 Redundancy group numbers read from rec  2102.2  Type=RHF/RHF (state 1.1)

 CCSD(T)/aug-cc-pVQZ energy=    -40.450851877267

         CCSD(T)          HF-SCF         CCSD(T)          HF-SCF         CCSD(T)          HF-SCF
    -40.45085188    -40.21595116    -76.36228504    -76.06286276   -116.81351107   -116.27865727
 **********************************************************************************************************************************
 Molpro calculation terminated
