
 Primary working directories    : /scratch/klimes/383107/molpro.MqR8RoWBJU
 Secondary working directories  : /scratch/klimes/383107/molpro.MqR8RoWBJU
 Wavefunction directory         : /scratch/klimes/383107/
 Main file repository           : /scratch/klimes/383107/molpro.MqR8RoWBJU/

 id        : karlovklimes

 Nodes                      nprocs
 nc-20.cc.karlov.mff.cuni.cz    4

 Using customized tuning parameters: mindgm=1; mindgv=20; mindgc=4; mindgr=1; noblas=0; minvec=7
 default implementation of scratch files=sf  


 Variables initialized (930), CPU time= 0.01 sec
                                                                                 !gdirect
 memory,2000,m
 gthresh,orbital=1d-10,energy=1d-10,grid=1d-8
 
 symmetry,nosym
 angstrom
 geometry={
 O4        -2.158000000000     -1.371300000000     -0.952200000000
 H7        -2.663200000000     -0.760300000000     -1.523700000000
 H8        -1.370200000000     -0.860500000000     -0.644400000000
 C1        -3.277200000000      1.482500000000      1.271900000000
 H41        -2.464000000000      0.899600000000      1.651000000000
 H42        -3.160800000000      2.501000000000      1.578500000000
 H43        -4.201800000000      1.099200000000      1.650100000000
 H44        -3.268500000000      1.421000000000      0.203700000000
 }
 
 nkerna=1
 nkernb=1
 
 gf=0
 sing=1
 thrdum=1d-4
 gridthr=1d-8
 
 basis={
 set,orbital
 default,avqz
 set,jkfit
 default,avqz/jkfit
 set,mp2fit
 default,avqz/mp2fit
 set,ri
 default,avqz/optri
 set,tddft
 default,avqz/mp2fit
 }
 
 proc set_monomer1
 dummy,4,5,6,7,8
 endproc
 
 proc set_monomer2
 dummy,1,2,3
 endproc
 
                                                                                 !1234 energy
 {hf,accu=1.d-16}
 ccsd(t)
 
 set_monomer1
 {hf,accu=1.d-16}
 ccsd(t)
 
 set_monomer2
 {hf,accu=1.d-16}
 ccsd(t)
 
 Commands  initialized (760), CPU time= 0.01 sec, 617 directives.
 Default parameters read. Elapsed time= 0.23 sec

 Checking input...
 Passed
1


                                         ***  PROGRAM SYSTEM MOLPRO  ***
                                       Copyright, TTI GmbH Stuttgart, 2015
                                    Version 2019.1 linked Jan 14 2019 13:09:19


 **********************************************************************************************************************************
 LABEL *                                                                                 
  64 bit mpp version                                                                     DATE: 11-Mar-20          TIME: 13:21:22  
 **********************************************************************************************************************************

 SHA1:             d688ac825633d238f2093ded1675ba87ccd55965
 **********************************************************************************************************************************

 THRESHOLDS:

 ZERO    =  1.00D-12  ONEINT  =  1.00D-12  TWOINT  =  1.00D-11  PREFAC  =  1.00D-14  XXXXXX  =  1.00D-09  EORDER  =  1.00D-04
 ENERGY  =  1.00D-10  ETEST   =  0.00D+00  EDENS   =  0.00D+00  THRDEDEF=  1.00D-06  GRADIENT=  1.00D-02  STEP    =  1.00D-03
 ORBITAL =  1.00D-10  CIVEC   =  1.00D-05  COEFF   =  1.00D-04  PRINTCI =  5.00D-02  PUNCHCI =  9.90D+01  OPTGRAD =  3.00D-04
 OPTENERG=  1.00D-06  OPTSTEP =  3.00D-04  THRGRAD =  1.00D-10  COMPRESS=  1.00D-11  VARMIN  =  1.00D-07  VARMAX  =  1.00D-03
 THRDOUB =  0.00D+00  THRDIV  =  1.00D-05  THRRED  =  1.00D-07  THRPSP  =  1.00D+00  THRDC   =  1.00D-10  THRCS   =  1.00D-10
 THRNRM  =  1.00D-08  THREQ   =  0.00D+00  THRDE   =  1.00D+00  THRREF  =  1.00D-05  SPARFAC =  1.00D+00  THRDLP  =  1.00D-07
 THRDIA  =  1.00D-10  THRDLS  =  1.00D-07  THRGPS  =  0.00D+00  THRKEX  =  0.00D+00  THRDIS  =  2.00D-01  THRVAR  =  1.00D-10
 THRLOC  =  1.00D-06  THRGAP  =  1.00D-06  THRLOCT = -1.00D+00  THRGAPT = -1.00D+00  THRORB  =  1.00D-06  THRMLTP =  0.00D+00
 THRCPQCI=  1.00D-10  KEXTA   =  0.00D+00  THRCOARS=  0.00D+00  SYMTOL  =  1.00D-06  GRADTOL =  1.00D-06  THROVL  =  1.00D-08
 THRORTH =  1.00D-08  GRID    =  1.00D-08  GRIDMAX =  1.00D-03  DTMAX   =  0.00D+00  THROCCDE=  1.00D-01  THROCCDE=  1.00D-01
 THRPRINT=  2.50D-01


 Variable memory set to 2000000000 words,  buffer space 

 ZSYMEL=NOSYM
 ZUNIT=ANG


Geometry recognized as XYZ

 SETTING NKERNA         =         1.00000000                                  
 SETTING NKERNB         =         1.00000000                                  
 SETTING GF             =     0.00000000D+00                                  
 SETTING SING           =         1.00000000                                  
 SETTING THRDUM         =     1.00000000D-04                                  
 SETTING GRIDTHR        =     1.00000000D-08                                  
 SETTING BASIS          =    AVQZ


 Recomputing integrals since basis changed


 Using spherical harmonics

 Library entry O      S aug-cc-pVQZ          selected for orbital group  1
 Library entry O      P aug-cc-pVQZ          selected for orbital group  1
 Library entry O      D aug-cc-pVQZ          selected for orbital group  1
 Library entry O      F aug-cc-pVQZ          selected for orbital group  1
 Library entry O      G aug-cc-pVQZ          selected for orbital group  1
 Library entry H      S aug-cc-pVQZ          selected for orbital group  2
 Library entry H      P aug-cc-pVQZ          selected for orbital group  2
 Library entry H      D aug-cc-pVQZ          selected for orbital group  2
 Library entry H      F aug-cc-pVQZ          selected for orbital group  2
 Library entry C      S aug-cc-pVQZ          selected for orbital group  3
 Library entry C      P aug-cc-pVQZ          selected for orbital group  3
 Library entry C      D aug-cc-pVQZ          selected for orbital group  3
 Library entry C      F aug-cc-pVQZ          selected for orbital group  3
 Library entry C      G aug-cc-pVQZ          selected for orbital group  3


 PROGRAM * SEWARD (Integral evaluation for generally contracted gaussian basis sets)     Author: Roland Lindh, 1990

 Geometry written to block  1 of record 700


 Point group  C1  



 ATOMIC COORDINATES

 NR  ATOM    CHARGE       X              Y              Z

   1  O4      8.00   -4.078028977   -2.591381435   -1.799397216
   2  H7      1.00   -5.032718615   -1.436758773   -2.879375696
   3  H8      1.00   -2.589302736   -1.626109330   -1.217739515
   4  C1      6.00   -6.193010455    2.801518980    2.403542658
   5  H41     1.00   -4.656285171    1.699997622    3.119937832
   6  H42     1.00   -5.973046335    4.726205038    2.982932688
   7  H43     1.00   -7.940251230    2.077186956    3.118237078
   8  H44     1.00   -6.176569838    2.685300823    0.384937212

 Bond lengths in Bohr (Angstrom)

 1-2  1.846872847  1-3  1.867185512  4-5  2.021904040  4-6  2.022002335  4-7  2.021953343
     ( 0.977323022)     ( 0.988072022)     ( 1.069945541)     ( 1.069997556)     ( 1.069971630)

 4-8  2.022015060
     ( 1.070004290)

 Bond angles

  2-1-3  105.73056797   5-4-6  109.53398059   5-4-7  109.65604535   5-4-8  108.43490854

  6-4-7  109.49436728   6-4-8  109.86987750   7-4-8  109.83468330

 NUCLEAR CHARGE:                   20
 NUMBER OF PRIMITIVE AOS:         578
 NUMBER OF SYMMETRY AOS:          474
 NUMBER OF CONTRACTIONS:          436   (  436A   )
 NUMBER OF CORE ORBITALS:           2   (    2A   )
 NUMBER OF VALENCE ORBITALS:       14   (   14A   )


 NUCLEAR REPULSION ENERGY   36.73664214


 Basis set:  JKFIT                   
 Basis size:   740
 Attributes:
 Sphericals:   T
 Basis set:  MP2FIT                  
 Basis size:   816
 Attributes:
 Sphericals:   T
 Basis set:  RI                      
 Basis size:   556
 Attributes:
 Sphericals:   T
 Basis set:  TDDFT                   
 Basis size:   816
 Attributes:
 Sphericals:   T

 **********************************************************************************************************************************


 Eigenvalues of metric

         1 0.157E-04 0.292E-04 0.318E-04 0.357E-04 0.645E-04 0.924E-04 0.980E-04 0.105E-03


 Contracted 2-electron integrals neglected if value below      1.0D-14
 AO integral compression algorithm  1   Integral accuracy      1.0D-14

     24146.870 MB (compressed) written to integral file ( 60.2%)

     Node minimum: 5192.286 MB, node maximum: 6663.700 MB


 NUMBER OF SORTED TWO-ELECTRON INTEGRALS: 1134451344.     BUFFER LENGTH:  32768
 NUMBER OF SEGMENTS:  36  SEGMENT LENGTH:   31999984      RECORD LENGTH: 524288

 Memory used in sort:      32.56 MW

 SORT1 READ  5012305700. AND WROTE   990390225. INTEGRALS IN   2853 RECORDS. CPU TIME:   119.18 SEC, REAL TIME:   139.09 SEC
 SORT2 READ  3960996436. AND WROTE  4537853011. INTEGRALS IN  79228 RECORDS. CPU TIME:    15.05 SEC, REAL TIME:   120.73 SEC

 Node minimum:  1134427528.  Node maximum:  1134498978. integrals

 OPERATOR DM      FOR CENTER  0  COORDINATES:    0.000000    0.000000    0.000000


 **********************************************************************************************************************************
 DATASETS  * FILE   NREC   LENGTH (MB)   RECORD NAMES
              1      18       37.06       500      610      700      900      950      970     1000      129      960     1100   
                                          VAR    BASINP    GEOM    SYMINP    ZMAT    AOBASIS   BASIS     P2S    ABASIS      S 
                                         1400     1410     1200     1210     1080     1600     1650     1700   
                                           T        V       H0       H01     AOSYM     SMH    MOLCAS    OPER   

 PROGRAMS   *        TOTAL       INT
 CPU TIMES  *       198.80    198.58
 REAL TIME  *       337.93 SEC
 DISK USED  *        37.58 MB (local),       72.00 GB (total)
 GA USED    *         0.00 MB       (max)       0.00 MB       (current)
 **********************************************************************************************************************************


 PROGRAM * RHF-SCF (CLOSED SHELL)       Authors: W. Meyer, H.-J. Werner


 NUMBER OF ELECTRONS:      10+   10-    SPACE SYMMETRY=1    SPIN SYMMETRY: Singlet 
 CONVERGENCE THRESHOLDS:    1.00E-08 (Density)    1.00E-11 (Energy)
 MAX. NUMBER OF ITERATIONS:       60
 INTERPOLATION TYPE:            DIIS
 INTERPOLATION STEPS:              2 (START)      1 (STEP)
 LEVEL SHIFTS:                  0.00 (CLOSED)  0.00 (OPEN) 



 Orbital guess generated from atomic densities. Full valence occupancy:   16

 Molecular orbital dump at record        2100.2

 Initial occupancy:  10

 ITERATION    DDIFF          GRAD             ENERGY        2-EL.EN.            DIPOLE MOMENTS         DIIS   ORB.
    1      0.000D+00      0.000D+00      -116.21964750    158.920485    0.28059    1.08401   -0.25378    0    start
    2      0.000D+00      0.379D-02      -116.26387441    154.064562    0.13317    0.61356   -0.10930    1    diag
    3      0.273D-02      0.223D-02      -116.27757087    156.100489    0.17083    0.73372   -0.14764    2    diag
    4      0.950D-03      0.332D-03      -116.27823935    155.988036    0.16829    0.72325   -0.14658    3    diag
    5      0.203D-03      0.977D-04      -116.27830961    155.982472    0.16770    0.72307   -0.14624    4    diag
    6      0.813D-04      0.238D-04      -116.27831352    155.988195    0.16743    0.72236   -0.14606    5    diag
    7      0.218D-04      0.474D-05      -116.27831376    155.986506    0.16741    0.72239   -0.14608    6    diag
    8      0.628D-05      0.121D-05      -116.27831377    155.986683    0.16738    0.72234   -0.14606    7    diag
    9      0.134D-05      0.282D-06      -116.27831378    155.986656    0.16737    0.72231   -0.14606    8    diag
   10      0.401D-06      0.335D-07      -116.27831378    155.986657    0.16737    0.72231   -0.14606    9    orth
   11      0.444D-07      0.825D-08      -116.27831378    155.986658    0.16737    0.72231   -0.14606    9    diag
   12      0.919D-08      0.228D-08      -116.27831378    155.986658    0.16737    0.72231   -0.14606    0    orth

 Final occupancy:  10

 !RHF STATE  1.1 Energy              -116.278313775225
 Nuclear energy                        36.73664214
 One-electron energy                 -231.00828510
 Two-electron energy                   77.99332919
 Virial quotient                       -1.00084359
 !RHF STATE  1.1 Dipole moment          0.16737332     0.72231274    -0.14605746
 Dipole moment /Debye                   0.42539268     1.83581562    -0.37121673

 Orbital energies:

         1.1          2.1          3.1          4.1          5.1          6.1          7.1          8.1          9.1         10.1
    -20.567555   -11.199908    -1.338555    -0.954209    -0.705604    -0.577774    -0.555858    -0.553005    -0.551601    -0.506744

        11.1         12.1
      0.023528     0.038160


 HOMO     10.1    -0.506744 =     -13.7892eV
 LUMO     11.1     0.023528 =       0.6402eV
 LUMO-HOMO         0.530273 =      14.4294eV


 **********************************************************************************************************************************
 DATASETS  * FILE   NREC   LENGTH (MB)   RECORD NAMES
              1      18       37.06       500      610      700      900      950      970     1000      129      960     1100   
                                          VAR    BASINP    GEOM    SYMINP    ZMAT    AOBASIS   BASIS     P2S    ABASIS      S 
                                         1400     1410     1200     1210     1080     1600     1650     1700   
                                           T        V       H0       H01     AOSYM     SMH    MOLCAS    OPER   

              2       4        6.75       700     1000      520     2100   
                                         GEOM     BASIS   MCVARS     RHF  

 PROGRAMS   *        TOTAL    HF-SCF       INT
 CPU TIMES  *       428.52    229.72    198.58
 REAL TIME  *       629.34 SEC
 DISK USED  *        57.63 MB (local),       72.08 GB (total)
 SF USED    *         0.76 MB
 GA USED    *         0.00 MB       (max)       0.00 MB       (current)
 **********************************************************************************************************************************

 Basis set:  JKFIT                   
 Basis size:   740
 Attributes:
 Sphericals:   T
 Basis set:  MP2FIT                  
 Basis size:   816
 Attributes:
 Sphericals:   T
 Basis set:  RI                      
 Basis size:   556
 Attributes:
 Sphericals:   T
 Basis set:  TDDFT                   
 Basis size:   816
 Attributes:
 Sphericals:   T

 PROGRAM * CCSD (Closed-shell coupled cluster)     Authors: C. Hampel, H.-J. Werner, 1991, M. Deegan, P.J. Knowles, 1992


 Convergence thresholds:  THRVAR = 1.00D-08  THRDEN = 1.00D-10

 CCSD(T)     terms to be evaluated (factor= 1.000)


 Number of core orbitals:           2 (   2 )
 Number of closed-shell orbitals:   8 (   8 )
 Number of external orbitals:     426 ( 426 )

 Molecular orbitals read from record     2100.2  Type=RHF/CANONICAL (state 1.1)

 Number of N-1 electron functions:               8
 Number of N-2 electron functions:              36
 Number of singly external CSFs:              3408
 Number of doubly external CSFs:           5808936
 Total number of CSFs:                     5812345

 Length of J-op  integral file:               0.00 MB
 Length of K-op  integral file:              13.08 MB
 Length of 3-ext integral record:             0.00 MB

 Memory could be reduced to 828.85 Mwords without degradation in triples

 Integral transformation finished. Total CPU: 324.95 sec, npass=  1  Memory used: 389.48 MW

 Reference energy:                   -116.27831378

 MP2 singlet pair energy:              -0.34101392
 MP2 triplet pair energy:              -0.15848001
 MP2 correlation energy:               -0.49949393
 MP2 total energy:                   -116.77780770

 SCS-MP2 correlation energy:           -0.50782649   (PS=  1.200000  PT=  0.333333)
 SCS-MP2 total energy:               -116.78614026

 ITER.      SQ.NORM     CORR.ENERGY   TOTAL ENERGY   ENERGY CHANGE        DEN1      VAR(S)    VAR(P)  DIIS     TIME  TIME/IT
   1      1.13592675    -0.51719021  -116.79550399    -0.01769629    -0.00618396  0.14D-02  0.20D-02  1  1   488.57   164.19
   2      1.14456042    -0.51854798  -116.79686175    -0.00135776    -0.01025282  0.27D-04  0.25D-03  2  2   651.89   164.95
   3      1.14779661    -0.51867118  -116.79698496    -0.00012321    -0.00226587  0.12D-04  0.13D-04  3  3   815.18   165.19
   4      1.14866328    -0.51867357  -116.79698734    -0.00000238    -0.00041157  0.59D-06  0.12D-05  4  4   979.29   165.39
   5      1.14882276    -0.51867328  -116.79698705     0.00000029    -0.00004700  0.21D-06  0.87D-07  5  5  1143.57   165.59
   6      1.14887193    -0.51866955  -116.79698332     0.00000373    -0.00001184  0.20D-07  0.67D-08  6  6  1307.79   165.77
   7      1.14888132    -0.51866856  -116.79698233     0.00000099    -0.00000151  0.19D-08  0.10D-08  6  2  1472.21   165.90
   8      1.14888339    -0.51866840  -116.79698218     0.00000015    -0.00000006  0.38D-09  0.12D-09  6  1  1635.89   165.91
   9      1.14888431    -0.51866835  -116.79698213     0.00000005     0.00000003  0.31D-10  0.15D-10  6  3  1799.88   165.94
  10      1.14888433    -0.51866836  -116.79698213    -0.00000001     0.00000012  0.64D-11  0.35D-11  6  1  1964.00   165.98
  11      1.14888442    -0.51866836  -116.79698213     0.00000000     0.00000002  0.62D-12  0.28D-12  6  4  2128.09   166.00
  12      1.14888441    -0.51866836  -116.79698213    -0.00000000     0.00000001  0.12D-12  0.44D-13  6  5  2292.18   166.03
  13      1.14888440    -0.51866836  -116.79698213    -0.00000000     0.00000000  0.21D-13  0.63D-14  6  6  2456.48   166.05
  14      1.14888439    -0.51866836  -116.79698213    -0.00000000     0.00000000  0.30D-14  0.12D-14  6  2  2620.87   166.08
  15      1.14888439    -0.51866836  -116.79698213    -0.00000000     0.00000000  0.41D-15  0.18D-15  6  3  2784.63   166.07
  16      1.14888439    -0.51866836  -116.79698213    -0.00000000     0.00000000  0.45D-16  0.34D-16  6  1  2948.73   166.08
  17      1.14888439    -0.51866836  -116.79698213    -0.00000000     0.00000000  0.47D-17  0.35D-17  6  4  3112.20   166.05

 Norm of t1 vector:      0.05049376      S-energy:    -0.00000000      T1 diagnostic:  0.00892612
                                                                       D1 diagnostic:  0.02082117

   CPU time for triples:   2056.16 sec for i =  1 -  7 /  8 (~  68.8 % done)
   CPU time for triples:    826.99 sec for i =  8 -  8 /  8 (  100.0 % done)

 Total CPU time for triples:   2907.27 sec


 RESULTS
 =======

  Reference energy                   -116.278313775224
  CCSD singlet pair energy             -0.373707378866
  CCSD triplet pair energy             -0.144960979550
  CCSD correlation energy              -0.518668358682

  Triples (T) contribution             -0.016663996086
  Total correlation energy             -0.535332354769

  CCSD total energy                  -116.796982133907
  CCSD[T] energy                     -116.814185903454
  CCSD-T energy                      -116.813419639140
 !CCSD(T) total energy               -116.813646129993

 Timing summary (sec):

 STEP                 CPU(USER)    SYS     CPU(TOT)    WALL
 Transformation        326.12      7.44    333.56    335.07
 CCSD iterations      2786.18     33.32   2819.50   2823.08
 Triples              2907.27      6.78   2914.05   2917.60

 Program statistics:

 Available memory in ccsd:              1999999734
 Min. memory needed in ccsd:              17010489
 Max. memory used in ccsd:                22038113
 Max. memory used in cckext:              15155228 (17 integral passes)



 **********************************************************************************************************************************
 DATASETS  * FILE   NREC   LENGTH (MB)   RECORD NAMES
              1      19     2602.11       500      610      700      900      950      970     1000      129      960     1100   
                                          VAR    BASINP    GEOM    SYMINP    ZMAT    AOBASIS   BASIS     P2S    ABASIS      S 
                                         1400     1410     1200     1210     1080     1600     1650     1700     1380   
                                           T        V       H0       H01     AOSYM     SMH    MOLCAS    OPER     JKOP   

              2       4        6.75       700     1000      520     2100   
                                         GEOM     BASIS   MCVARS     RHF  

 PROGRAMS   *        TOTAL   CCSD(T)    HF-SCF       INT
 CPU TIMES  *      6448.32   6019.79    229.72    198.58
 REAL TIME  *      6705.99 SEC
 DISK USED  *         3.24 GB (local),       82.92 GB (total)
 SF USED    *         3.08 GB
 GA USED    *         0.00 MB       (max)       0.00 MB       (current)
 **********************************************************************************************************************************

 Running procedure: SET_MONOMER1

 Dummy atoms: C1  H41  H42  H43  H44


 Recomputing one-electron integrals since nuclear charges changed


 PROGRAM * SEWARD (Integral evaluation for generally contracted gaussian basis sets)     Author: Roland Lindh, 1990

 Geometry written to block  1 of record 700


 Point group  C1  



 ATOMIC COORDINATES

 NR  ATOM    CHARGE       X              Y              Z

   1  O4      8.00   -4.078028977   -2.591381435   -1.799397216
   2  H7      1.00   -5.032718615   -1.436758773   -2.879375696
   3  H8      1.00   -2.589302736   -1.626109330   -1.217739515
   4  C1      0.00   -6.193010455    2.801518980    2.403542658
   5  H41     0.00   -4.656285171    1.699997622    3.119937832
   6  H42     0.00   -5.973046335    4.726205038    2.982932688
   7  H43     0.00   -7.940251230    2.077186956    3.118237078
   8  H44     0.00   -6.176569838    2.685300823    0.384937212

 Bond lengths in Bohr (Angstrom)

 1-2  1.846872847  1-3  1.867185512  4-5  2.021904040  4-6  2.022002335  4-7  2.021953343
     ( 0.977323022)     ( 0.988072022)     ( 1.069945541)     ( 1.069997556)     ( 1.069971630)

 4-8  2.022015060
     ( 1.070004290)

 Bond angles

  2-1-3  105.73056797   5-4-6  109.53398059   5-4-7  109.65604535   5-4-8  108.43490854

  6-4-7  109.49436728   6-4-8  109.86987750   7-4-8  109.83468330

 NUCLEAR CHARGE:                   10
 NUMBER OF PRIMITIVE AOS:         578
 NUMBER OF SYMMETRY AOS:          474
 NUMBER OF CONTRACTIONS:          436   (  436A   )
 NUMBER OF CORE ORBITALS:           1   (    1A   )
 NUMBER OF VALENCE ORBITALS:        6   (    6A   )

 MOLECULE CHANGED: INITIALIZING OCCUPATION AND DUMP RECORDS


 NUCLEAR REPULSION ENERGY    8.95390023

 Basis set:  JKFIT                   
 Basis size:   740
 Attributes:
 Sphericals:   T
 Basis set:  MP2FIT                  
 Basis size:   816
 Attributes:
 Sphericals:   T
 Basis set:  RI                      
 Basis size:   556
 Attributes:
 Sphericals:   T
 Basis set:  TDDFT                   
 Basis size:   816
 Attributes:
 Sphericals:   T

 Eigenvalues of metric

         1 0.157E-04 0.292E-04 0.318E-04 0.357E-04 0.645E-04 0.924E-04 0.980E-04 0.105E-03


 Contracted 2-electron integrals neglected if value below      1.0D-14

 OPERATOR DM      FOR CENTER  0  COORDINATES:    0.000000    0.000000    0.000000


 **********************************************************************************************************************************
 DATASETS  * FILE   NREC   LENGTH (MB)   RECORD NAMES
              1      18       37.06       500      610      700      900      950      970     1000      129      960     1100   
                                          VAR    BASINP    GEOM    SYMINP    ZMAT    AOBASIS   BASIS     P2S    ABASIS      S 
                                         1400     1410     1200     1210     1080     1600     1650     1700   
                                           T        V       H0       H01     AOSYM     SMH    MOLCAS    OPER   

              2       5       10.59       700     1000      520     2100      200   
                                         GEOM     BASIS   MCVARS     RHF    OPTIONS    

 PROGRAMS   *        TOTAL       INT   CCSD(T)    HF-SCF       INT
 CPU TIMES  *      6448.71      0.39   6019.79    229.72    198.58
 REAL TIME  *      6707.30 SEC
 DISK USED  *         3.24 GB (local),       82.93 GB (total)
 SF USED    *         3.08 GB
 GA USED    *         0.00 MB       (max)       0.00 MB       (current)
 **********************************************************************************************************************************


 PROGRAM * RHF-SCF (CLOSED SHELL)       Authors: W. Meyer, H.-J. Werner


 NUMBER OF ELECTRONS:       5+    5-    SPACE SYMMETRY=1    SPIN SYMMETRY: Singlet 
 CONVERGENCE THRESHOLDS:    1.00E-08 (Density)    1.00E-11 (Energy)
 MAX. NUMBER OF ITERATIONS:       60
 INTERPOLATION TYPE:            DIIS
 INTERPOLATION STEPS:              2 (START)      1 (STEP)
 LEVEL SHIFTS:                  0.00 (CLOSED)  0.00 (OPEN) 



 Orbital guess generated from atomic densities. Full valence occupancy:    7

 Molecular orbital dump at record        2101.2

 Initial occupancy:   5

 ITERATION    DDIFF          GRAD             ENERGY        2-EL.EN.            DIPOLE MOMENTS         DIIS   ORB.
    1      0.000D+00      0.000D+00       -76.02433385     77.350401    0.27712    1.08788   -0.25373    0    start
    2      0.000D+00      0.467D-02       -76.05105931     73.680803    0.15760    0.62978   -0.14869    1    diag
    3      0.222D-02      0.299D-02       -76.06273496     75.312024    0.18681    0.74396   -0.17526    2    diag
    4      0.844D-03      0.279D-03       -76.06293162     75.220543    0.18503    0.73919   -0.17451    3    diag
    5      0.104D-03      0.786D-04       -76.06295315     75.234942    0.18435    0.73739   -0.17424    4    diag
    6      0.323D-04      0.157D-04       -76.06295457     75.233879    0.18416    0.73698   -0.17419    5    diag
    7      0.820D-05      0.321D-05       -76.06295464     75.234028    0.18411    0.73685   -0.17417    6    diag
    8      0.230D-05      0.603D-06       -76.06295464     75.234012    0.18410    0.73681   -0.17417    7    diag
    9      0.423D-06      0.822D-07       -76.06295464     75.234003    0.18409    0.73680   -0.17417    8    diag
   10      0.562D-07      0.188D-07       -76.06295464     75.234007    0.18409    0.73680   -0.17417    9    orth
   11      0.145D-07      0.329D-08       -76.06295464     75.234006    0.18409    0.73680   -0.17417    9    diag
   12      0.267D-08      0.582D-09       -76.06295464     75.234006    0.18409    0.73680   -0.17417    0    orth

 Final occupancy:   5

 !RHF STATE  1.1 Energy               -76.062954644538
 Nuclear energy                         8.95390023
 One-electron energy                 -122.63385786
 Two-electron energy                   37.61700298
 Virial quotient                       -1.00220423
 !RHF STATE  1.1 Dipole moment          0.18409489     0.73680280    -0.17416611
 Dipole moment /Debye                   0.46789190     1.87264326    -0.44265709

 Orbital energies:

         1.1          2.1          3.1          4.1          5.1          6.1          7.1
    -20.568545    -1.339279    -0.706288    -0.577733    -0.508080     0.017761     0.036029


 HOMO      5.1    -0.508080 =     -13.8255eV
 LUMO      6.1     0.017761 =       0.4833eV
 LUMO-HOMO         0.525840 =      14.3088eV


 **********************************************************************************************************************************
 DATASETS  * FILE   NREC   LENGTH (MB)   RECORD NAMES
              1      18       37.06       500      610      700      900      950      970     1000      129      960     1100   
                                          VAR    BASINP    GEOM    SYMINP    ZMAT    AOBASIS   BASIS     P2S    ABASIS      S 
                                         1400     1410     1200     1210     1080     1600     1650     1700   
                                           T        V       H0       H01     AOSYM     SMH    MOLCAS    OPER   

              2       6       17.39       700     1000      520     2100      200     2101   
                                         GEOM     BASIS   MCVARS     RHF    OPTIONS    RHF  

 PROGRAMS   *        TOTAL    HF-SCF       INT   CCSD(T)    HF-SCF       INT
 CPU TIMES  *      6667.64    218.93      0.39   6019.79    229.72    198.58
 REAL TIME  *      6953.76 SEC
 DISK USED  *         3.24 GB (local),       82.93 GB (total)
 SF USED    *         3.08 GB
 GA USED    *         0.00 MB       (max)       0.00 MB       (current)
 **********************************************************************************************************************************

 Basis set:  JKFIT                   
 Basis size:   740
 Attributes:
 Sphericals:   T
 Basis set:  MP2FIT                  
 Basis size:   816
 Attributes:
 Sphericals:   T
 Basis set:  RI                      
 Basis size:   556
 Attributes:
 Sphericals:   T
 Basis set:  TDDFT                   
 Basis size:   816
 Attributes:
 Sphericals:   T

 PROGRAM * CCSD (Closed-shell coupled cluster)     Authors: C. Hampel, H.-J. Werner, 1991, M. Deegan, P.J. Knowles, 1992


 Convergence thresholds:  THRVAR = 1.00D-08  THRDEN = 1.00D-10

 CCSD(T)     terms to be evaluated (factor= 1.000)


 Number of core orbitals:           1 (   1 )
 Number of closed-shell orbitals:   4 (   4 )
 Number of external orbitals:     431 ( 431 )

 Molecular orbitals read from record     2101.2  Type=RHF/CANONICAL (state 1.1)

 Number of N-1 electron functions:               4
 Number of N-2 electron functions:              10
 Number of singly external CSFs:              1724
 Number of doubly external CSFs:           1486950
 Total number of CSFs:                     1488675

 Length of J-op  integral file:               0.00 MB
 Length of K-op  integral file:              13.08 MB
 Length of 3-ext integral record:             0.00 MB

 Memory could be reduced to 526.20 Mwords without degradation in triples

 Integral transformation finished. Total CPU: 165.57 sec, npass=  1  Memory used: 214.76 MW

 Reference energy:                    -76.06295464

 MP2 singlet pair energy:              -0.18637250
 MP2 triplet pair energy:              -0.10146700
 MP2 correlation energy:               -0.28783950
 MP2 total energy:                    -76.35079414

 SCS-MP2 correlation energy:           -0.28678202   (PS=  1.200000  PT=  0.333333)
 SCS-MP2 total energy:                -76.34973667

 ITER.      SQ.NORM     CORR.ENERGY   TOTAL ENERGY   ENERGY CHANGE        DEN1      VAR(S)    VAR(P)  DIIS     TIME  TIME/IT
   1      1.06465137    -0.28955541   -76.35251005    -0.00171591     0.00418987  0.85D-03  0.11D-02  1  1   214.11    50.90
   2      1.06833367    -0.28981274   -76.35276739    -0.00025734    -0.00494515  0.14D-04  0.12D-03  2  2   264.07    51.32
   3      1.06980868    -0.28989368   -76.35284832    -0.00008093    -0.00102795  0.89D-05  0.64D-05  3  3   312.52    51.38
   4      1.07028692    -0.28989310   -76.35284774     0.00000058    -0.00022274  0.49D-06  0.77D-06  4  4   362.72    51.49
   5      1.07039178    -0.28989081   -76.35284545     0.00000229    -0.00003273  0.17D-06  0.52D-07  5  5   411.50    51.55
   6      1.07042910    -0.28988775   -76.35284239     0.00000306    -0.00000852  0.18D-07  0.43D-08  6  6   461.51    51.59
   7      1.07043668    -0.28988735   -76.35284199     0.00000040    -0.00000058  0.15D-08  0.85D-09  6  1   510.78    51.67
   8      1.07043847    -0.28988725   -76.35284189     0.00000010    -0.00000006  0.26D-09  0.98D-10  6  2   559.18    51.67
   9      1.07043915    -0.28988721   -76.35284185     0.00000004     0.00000012  0.20D-10  0.88D-11  6  3   608.82    51.63
  10      1.07043931    -0.28988719   -76.35284184     0.00000001     0.00000001  0.24D-11  0.13D-11  6  4   657.67    51.63
  11      1.07043930    -0.28988719   -76.35284184    -0.00000000     0.00000002  0.56D-12  0.17D-12  6  5   707.87    51.64
  12      1.07043930    -0.28988720   -76.35284184    -0.00000000     0.00000001  0.96D-13  0.29D-13  6  6   756.34    51.56
  13      1.07043930    -0.28988720   -76.35284184    -0.00000000     0.00000000  0.17D-13  0.55D-14  6  1   805.74    51.55
  14      1.07043929    -0.28988720   -76.35284184    -0.00000000     0.00000000  0.17D-14  0.79D-15  6  2   854.47    51.48
  15      1.07043929    -0.28988720   -76.35284184    -0.00000000     0.00000000  0.19D-15  0.13D-15  6  3   904.28    51.47
  16      1.07043929    -0.28988720   -76.35284184    -0.00000000    -0.00000000  0.42D-16  0.20D-16  6  4   953.63    51.44

 Norm of t1 vector:      0.03876616      S-energy:    -0.00000000      T1 diagnostic:  0.00969154
                                                                       D1 diagnostic:  0.02024284


 Total CPU time for triples:    438.38 sec


 RESULTS
 =======

  Reference energy                    -76.062954644538
  CCSD singlet pair energy             -0.200220861904
  CCSD triplet pair energy             -0.089666334606
  CCSD correlation energy              -0.289887196605

  Triples (T) contribution             -0.009634255234
  Total correlation energy             -0.299521451839

  CCSD total energy                   -76.352841841143
  CCSD[T] energy                      -76.362797043110
  CCSD-T energy                       -76.362320894530
 !CCSD(T) total energy                -76.362476096377

 Timing summary (sec):

 STEP                 CPU(USER)    SYS     CPU(TOT)    WALL
 Transformation        165.93      5.45    171.38    172.68
 CCSD iterations       787.79     28.56    816.35    823.19
 Triples               438.38      4.09    442.47    447.32

 Program statistics:

 Available memory in ccsd:              1999999921
 Min. memory needed in ccsd:               6768234
 Max. memory used in ccsd:                 7865440
 Max. memory used in cckext:               5182436 (16 integral passes)



 **********************************************************************************************************************************
 DATASETS  * FILE   NREC   LENGTH (MB)   RECORD NAMES
              1      19     1346.95       500      610      700      900      950      970     1000      129      960     1100   
                                          VAR    BASINP    GEOM    SYMINP    ZMAT    AOBASIS   BASIS     P2S    ABASIS      S 
                                         1400     1410     1200     1210     1080     1600     1650     1700     1380   
                                           T        V       H0       H01     AOSYM     SMH    MOLCAS    OPER     JKOP   

              2       6       17.39       700     1000      520     2100      200     2101   
                                         GEOM     BASIS   MCVARS     RHF    OPTIONS    RHF  

 PROGRAMS   *        TOTAL   CCSD(T)    HF-SCF       INT   CCSD(T)    HF-SCF       INT
 CPU TIMES  *      8059.97   1392.32    218.93      0.39   6019.79    229.72    198.58
 REAL TIME  *      8397.84 SEC
 DISK USED  *         3.24 GB (local),       82.93 GB (total)
 SF USED    *         3.08 GB
 GA USED    *         0.00 MB       (max)       0.00 MB       (current)
 **********************************************************************************************************************************

 Running procedure: SET_MONOMER2

 Dummy atoms: O4  H7  H8


 Recomputing one-electron integrals since nuclear charges changed


 PROGRAM * SEWARD (Integral evaluation for generally contracted gaussian basis sets)     Author: Roland Lindh, 1990

 Geometry written to block  1 of record 700


 Point group  C1  



 ATOMIC COORDINATES

 NR  ATOM    CHARGE       X              Y              Z

   1  O4      0.00   -4.078028977   -2.591381435   -1.799397216
   2  H7      0.00   -5.032718615   -1.436758773   -2.879375696
   3  H8      0.00   -2.589302736   -1.626109330   -1.217739515
   4  C1      6.00   -6.193010455    2.801518980    2.403542658
   5  H41     1.00   -4.656285171    1.699997622    3.119937832
   6  H42     1.00   -5.973046335    4.726205038    2.982932688
   7  H43     1.00   -7.940251230    2.077186956    3.118237078
   8  H44     1.00   -6.176569838    2.685300823    0.384937212

 Bond lengths in Bohr (Angstrom)

 1-2  1.846872847  1-3  1.867185512  4-5  2.021904040  4-6  2.022002335  4-7  2.021953343
     ( 0.977323022)     ( 0.988072022)     ( 1.069945541)     ( 1.069997556)     ( 1.069971630)

 4-8  2.022015060
     ( 1.070004290)

 Bond angles

  2-1-3  105.73056797   5-4-6  109.53398059   5-4-7  109.65604535   5-4-8  108.43490854

  6-4-7  109.49436728   6-4-8  109.86987750   7-4-8  109.83468330

 NUCLEAR CHARGE:                   10
 NUMBER OF PRIMITIVE AOS:         578
 NUMBER OF SYMMETRY AOS:          474
 NUMBER OF CONTRACTIONS:          436   (  436A   )
 NUMBER OF CORE ORBITALS:           1   (    1A   )
 NUMBER OF VALENCE ORBITALS:        8   (    8A   )

 MOLECULE CHANGED: INITIALIZING OCCUPATION AND DUMP RECORDS


 NUCLEAR REPULSION ENERGY   13.68681606

 Basis set:  JKFIT                   
 Basis size:   740
 Attributes:
 Sphericals:   T
 Basis set:  MP2FIT                  
 Basis size:   816
 Attributes:
 Sphericals:   T
 Basis set:  RI                      
 Basis size:   556
 Attributes:
 Sphericals:   T
 Basis set:  TDDFT                   
 Basis size:   816
 Attributes:
 Sphericals:   T

 Eigenvalues of metric

         1 0.157E-04 0.292E-04 0.318E-04 0.357E-04 0.645E-04 0.924E-04 0.980E-04 0.105E-03


 Contracted 2-electron integrals neglected if value below      1.0D-14

 OPERATOR DM      FOR CENTER  0  COORDINATES:    0.000000    0.000000    0.000000


 **********************************************************************************************************************************
 DATASETS  * FILE   NREC   LENGTH (MB)   RECORD NAMES
              1      18       37.06       500      610      700      900      950      970     1000      129      960     1100   
                                          VAR    BASINP    GEOM    SYMINP    ZMAT    AOBASIS   BASIS     P2S    ABASIS      S 
                                         1400     1410     1200     1210     1080     1600     1650     1700   
                                           T        V       H0       H01     AOSYM     SMH    MOLCAS    OPER   

              2       6       17.39       700     1000      520     2100      200     2101   
                                         GEOM     BASIS   MCVARS     RHF    OPTIONS    RHF  

 PROGRAMS   *        TOTAL       INT   CCSD(T)    HF-SCF       INT   CCSD(T)    HF-SCF       INT
 CPU TIMES  *      8060.36      0.38   1392.32    218.93      0.39   6019.79    229.72    198.58
 REAL TIME  *      8398.96 SEC
 DISK USED  *         3.24 GB (local),       82.93 GB (total)
 SF USED    *         3.08 GB
 GA USED    *         0.00 MB       (max)       0.00 MB       (current)
 **********************************************************************************************************************************


 PROGRAM * RHF-SCF (CLOSED SHELL)       Authors: W. Meyer, H.-J. Werner


 NUMBER OF ELECTRONS:       5+    5-    SPACE SYMMETRY=1    SPIN SYMMETRY: Singlet 
 CONVERGENCE THRESHOLDS:    1.00E-08 (Density)    1.00E-11 (Energy)
 MAX. NUMBER OF ITERATIONS:       60
 INTERPOLATION TYPE:            DIIS
 INTERPOLATION STEPS:              2 (START)      1 (STEP)
 LEVEL SHIFTS:                  0.00 (CLOSED)  0.00 (OPEN) 



 Orbital guess generated from atomic densities. Full valence occupancy:    9

 Molecular orbital dump at record        2102.2

 Initial occupancy:   5

 ITERATION    DDIFF          GRAD             ENERGY        2-EL.EN.            DIPOLE MOMENTS         DIIS   ORB.
    1      0.000D+00      0.000D+00       -40.19609587     53.506293    0.00410   -0.00275   -0.00130    0    start
    2      0.000D+00      0.257D-02       -40.21334997     52.217625    0.00127   -0.00087   -0.00037    1    diag
    3      0.158D-02      0.998D-03       -40.21562589     52.672085    0.00180   -0.00123   -0.00054    2    diag
    4      0.443D-03      0.249D-03       -40.21594535     52.617272    0.00160   -0.00110   -0.00047    3    diag
    5      0.166D-03      0.322D-04       -40.21595084     52.619419    0.00157   -0.00108   -0.00046    4    diag
    6      0.408D-04      0.264D-05       -40.21595088     52.619556    0.00157   -0.00108   -0.00046    5    diag
    7      0.543D-05      0.212D-06       -40.21595088     52.619517    0.00157   -0.00108   -0.00046    6    diag
    8      0.219D-06      0.170D-07       -40.21595088     52.619518    0.00157   -0.00108   -0.00046    7    diag
    9      0.823D-07      0.217D-08       -40.21595088     52.619518    0.00157   -0.00108   -0.00046    8    diag
   10      0.827D-08      0.594D-09       -40.21595088     52.619518    0.00157   -0.00108   -0.00046    0    orth

 Final occupancy:   5

 !RHF STATE  1.1 Energy               -40.215950879457
 Nuclear energy                        13.68681606
 One-electron energy                  -80.21252584
 Two-electron energy                   26.30975890
 Virial quotient                       -0.99838098
 !RHF STATE  1.1 Dipole moment          0.00157227    -0.00107880    -0.00046328
 Dipole moment /Debye                   0.00399604    -0.00274185    -0.00117745

 Orbital energies:

         1.1          2.1          3.1          4.1          5.1          6.1          7.1
    -11.196224    -0.950661    -0.551889    -0.549955    -0.547775     0.024955     0.038135


 HOMO      5.1    -0.547775 =     -14.9057eV
 LUMO      6.1     0.024955 =       0.6790eV
 LUMO-HOMO         0.572730 =      15.5848eV


 **********************************************************************************************************************************
 DATASETS  * FILE   NREC   LENGTH (MB)   RECORD NAMES
              1      18       37.06       500      610      700      900      950      970     1000      129      960     1100   
                                          VAR    BASINP    GEOM    SYMINP    ZMAT    AOBASIS   BASIS     P2S    ABASIS      S 
                                         1400     1410     1200     1210     1080     1600     1650     1700   
                                           T        V       H0       H01     AOSYM     SMH    MOLCAS    OPER   

              2       7       27.51       700     1000      520     2100      200     2101     2102   
                                         GEOM     BASIS   MCVARS     RHF    OPTIONS    RHF      RHF  

 PROGRAMS   *        TOTAL    HF-SCF       INT   CCSD(T)    HF-SCF       INT   CCSD(T)    HF-SCF       INT
 CPU TIMES  *      8242.52    182.15      0.38   1392.32    218.93      0.39   6019.79    229.72    198.58
 REAL TIME  *      8597.84 SEC
 DISK USED  *         3.24 GB (local),       82.93 GB (total)
 SF USED    *         3.08 GB
 GA USED    *         0.00 MB       (max)       0.00 MB       (current)
 **********************************************************************************************************************************

 Basis set:  JKFIT                   
 Basis size:   740
 Attributes:
 Sphericals:   T
 Basis set:  MP2FIT                  
 Basis size:   816
 Attributes:
 Sphericals:   T
 Basis set:  RI                      
 Basis size:   556
 Attributes:
 Sphericals:   T
 Basis set:  TDDFT                   
 Basis size:   816
 Attributes:
 Sphericals:   T

 PROGRAM * CCSD (Closed-shell coupled cluster)     Authors: C. Hampel, H.-J. Werner, 1991, M. Deegan, P.J. Knowles, 1992


 Convergence thresholds:  THRVAR = 1.00D-08  THRDEN = 1.00D-10

 CCSD(T)     terms to be evaluated (factor= 1.000)


 Number of core orbitals:           1 (   1 )
 Number of closed-shell orbitals:   4 (   4 )
 Number of external orbitals:     431 ( 431 )

 Molecular orbitals read from record     2102.2  Type=RHF/CANONICAL (state 1.1)

 Number of N-1 electron functions:               4
 Number of N-2 electron functions:              10
 Number of singly external CSFs:              1724
 Number of doubly external CSFs:           1486950
 Total number of CSFs:                     1488675

 Length of J-op  integral file:               0.00 MB
 Length of K-op  integral file:              13.08 MB
 Length of 3-ext integral record:             0.00 MB

 Memory could be reduced to 526.20 Mwords without degradation in triples

 Integral transformation finished. Total CPU: 166.35 sec, npass=  1  Memory used: 214.76 MW

 Reference energy:                    -40.21595088

 MP2 singlet pair energy:              -0.15443070
 MP2 triplet pair energy:              -0.05646358
 MP2 correlation energy:               -0.21089427
 MP2 total energy:                    -40.42684515

 SCS-MP2 correlation energy:           -0.22044973   (PS=  1.200000  PT=  0.333333)
 SCS-MP2 total energy:                -40.43640061

 ITER.      SQ.NORM     CORR.ENERGY   TOTAL ENERGY   ENERGY CHANGE        DEN1      VAR(S)    VAR(P)  DIIS     TIME  TIME/IT
   1      1.07097411    -0.22687927   -40.44283015    -0.01598500    -0.01039778  0.55D-03  0.97D-03  1  1   215.70    50.57
   2      1.07611918    -0.22797935   -40.44393023    -0.00110007    -0.00547159  0.14D-04  0.91D-04  2  2   265.24    50.91
   3      1.07764044    -0.22801856   -40.44396944    -0.00003921    -0.00107324  0.18D-05  0.58D-05  3  3   314.87    51.04
   4      1.07800015    -0.22802425   -40.44397513    -0.00000569    -0.00017107  0.12D-06  0.28D-06  4  4   365.19    51.29
   5      1.07804819    -0.22802614   -40.44397702    -0.00000189    -0.00001303  0.10D-07  0.20D-07  5  5   414.90    51.31
   6      1.07805644    -0.22802492   -40.44397580     0.00000122    -0.00000328  0.64D-09  0.14D-08  6  6   465.04    51.39
   7      1.07805748    -0.22802464   -40.44397551     0.00000029    -0.00000055  0.46D-10  0.11D-09  6  1   515.10    51.43
   8      1.07805743    -0.22802469   -40.44397556    -0.00000005     0.00000022  0.46D-11  0.66D-11  6  3   564.63    51.37
   9      1.07805755    -0.22802467   -40.44397555     0.00000002    -0.00000008  0.39D-12  0.54D-12  6  2   613.42    51.25
  10      1.07805755    -0.22802467   -40.44397555     0.00000000     0.00000000  0.46D-13  0.56D-13  6  4   662.69    51.22
  11      1.07805756    -0.22802467   -40.44397555     0.00000000     0.00000000  0.43D-14  0.56D-14  6  5   711.55    51.15
  12      1.07805755    -0.22802467   -40.44397555     0.00000000     0.00000000  0.99D-16  0.61D-15  6  6   760.89    51.15
  13      1.07805755    -0.22802467   -40.44397555    -0.00000000     0.00000000  0.74D-17  0.59D-16  6  1   809.38    51.10
  14      1.07805755    -0.22802467   -40.44397555    -0.00000000     0.00000000  0.10D-17  0.75D-17  6  3   858.70    51.09

 Norm of t1 vector:      0.03128297      S-energy:    -0.00000000      T1 diagnostic:  0.00782074
                                                                       D1 diagnostic:  0.01257148

 Total CPU time for triples:    433.64 sec


 RESULTS
 =======

  Reference energy                    -40.215950879457
  CCSD singlet pair energy             -0.173329339910
  CCSD triplet pair energy             -0.054695326600
  CCSD correlation energy              -0.228024666514

  Triples (T) contribution             -0.006882155102
  Total correlation energy             -0.234906821617

  CCSD total energy                   -40.443975545971
  CCSD[T] energy                      -40.451070850775
  CCSD-T energy                       -40.450790092422
 !CCSD(T) total energy                -40.450857701074

 Timing summary (sec):

 STEP                 CPU(USER)    SYS     CPU(TOT)    WALL
 Transformation        166.72      4.65    171.37    171.83
 CCSD iterations       692.07     21.90    713.97    715.41
 Triples               433.64      2.90    436.54    439.54

 Program statistics:

 Available memory in ccsd:              1999999916
 Min. memory needed in ccsd:               6768234
 Max. memory used in ccsd:                 7865440
 Max. memory used in cckext:               5182436 (14 integral passes)



 **********************************************************************************************************************************
 DATASETS  * FILE   NREC   LENGTH (MB)   RECORD NAMES
              1      19     1346.95       500      610      700      900      950      970     1000      129      960     1100   
                                          VAR    BASINP    GEOM    SYMINP    ZMAT    AOBASIS   BASIS     P2S    ABASIS      S 
                                         1400     1410     1200     1210     1080     1600     1650     1700     1380   
                                           T        V       H0       H01     AOSYM     SMH    MOLCAS    OPER     JKOP   

              2       7       27.51       700     1000      520     2100      200     2101     2102   
                                         GEOM     BASIS   MCVARS     RHF    OPTIONS    RHF      RHF  

 PROGRAMS   *        TOTAL   CCSD(T)    HF-SCF       INT   CCSD(T)    HF-SCF       INT   CCSD(T)    HF-SCF       INT
 CPU TIMES  *      9535.19   1292.67    182.15      0.38   1392.32    218.93      0.39   6019.79    229.72    198.58
 REAL TIME  *      9925.52 SEC
 DISK USED  *         3.24 GB (local),       82.93 GB (total)
 SF USED    *         3.08 GB
 GA USED    *         0.00 MB       (max)       0.00 MB       (current)
 **********************************************************************************************************************************
 Molecular orbitals read from record     2102.2  Type=RHF/CANONICAL (state 1.1)
 Occupation numbers read from record     2102.2  Type=RHF/RHF (state 1.1)
 Orbital energies read from record       2102.2  Type=RHF/CANONICAL (state 1.1)
 Redundancy group numbers read from rec  2102.2  Type=RHF/RHF (state 1.1)

 CCSD(T)/aug-cc-pVQZ energy=    -40.450857701074

         CCSD(T)          HF-SCF         CCSD(T)          HF-SCF         CCSD(T)          HF-SCF
    -40.45085770    -40.21595088    -76.36247610    -76.06295464   -116.81364613   -116.27831378
 **********************************************************************************************************************************
 Molpro calculation terminated
