
 Primary working directories    : /scratch/klimes/383108/molpro.0Fw7yYU1n0
 Secondary working directories  : /scratch/klimes/383108/molpro.0Fw7yYU1n0
 Wavefunction directory         : /scratch/klimes/383108/
 Main file repository           : /scratch/klimes/383108/molpro.0Fw7yYU1n0/

 id        : karlovklimes

 Nodes                      nprocs
 nc-20.cc.karlov.mff.cuni.cz    4

 Using customized tuning parameters: mindgm=1; mindgv=20; mindgc=4; mindgr=1; noblas=0; minvec=7
 default implementation of scratch files=sf  


 Variables initialized (930), CPU time= 0.01 sec
                                                                                 !gdirect
 memory,2000,m
 gthresh,orbital=1d-10,energy=1d-10,grid=1d-8
 
 symmetry,nosym
 angstrom
 geometry={
 O5        -0.319200000000      2.341100000000      3.764400000000
 H9         0.407500000000      2.568500000000      4.358500000000
 H10        -0.153000000000      1.405800000000      3.495900000000
 C1        -3.277200000000      1.482500000000      1.271900000000
 H41        -2.464000000000      0.899600000000      1.651000000000
 H42        -3.160800000000      2.501000000000      1.578500000000
 H43        -4.201800000000      1.099200000000      1.650100000000
 H44        -3.268500000000      1.421000000000      0.203700000000
 }
 
 nkerna=1
 nkernb=1
 
 gf=0
 sing=1
 thrdum=1d-4
 gridthr=1d-8
 
 basis={
 set,orbital
 default,avqz
 set,jkfit
 default,avqz/jkfit
 set,mp2fit
 default,avqz/mp2fit
 set,ri
 default,avqz/optri
 set,tddft
 default,avqz/mp2fit
 }
 
 proc set_monomer1
 dummy,4,5,6,7,8
 endproc
 
 proc set_monomer2
 dummy,1,2,3
 endproc
 
                                                                                 !1234 energy
 {hf,accu=1.d-16}
 ccsd(t)
 
 set_monomer1
 {hf,accu=1.d-16}
 ccsd(t)
 
 set_monomer2
 {hf,accu=1.d-16}
 ccsd(t)
 
 Commands  initialized (760), CPU time= 0.01 sec, 617 directives.
 Default parameters read. Elapsed time= 0.23 sec

 Checking input...
 Passed
1


                                         ***  PROGRAM SYSTEM MOLPRO  ***
                                       Copyright, TTI GmbH Stuttgart, 2015
                                    Version 2019.1 linked Jan 14 2019 13:09:19


 **********************************************************************************************************************************
 LABEL *                                                                                 
  64 bit mpp version                                                                     DATE: 11-Mar-20          TIME: 13:21:26  
 **********************************************************************************************************************************

 SHA1:             d688ac825633d238f2093ded1675ba87ccd55965
 **********************************************************************************************************************************

 THRESHOLDS:

 ZERO    =  1.00D-12  ONEINT  =  1.00D-12  TWOINT  =  1.00D-11  PREFAC  =  1.00D-14  XXXXXX  =  1.00D-09  EORDER  =  1.00D-04
 ENERGY  =  1.00D-10  ETEST   =  0.00D+00  EDENS   =  0.00D+00  THRDEDEF=  1.00D-06  GRADIENT=  1.00D-02  STEP    =  1.00D-03
 ORBITAL =  1.00D-10  CIVEC   =  1.00D-05  COEFF   =  1.00D-04  PRINTCI =  5.00D-02  PUNCHCI =  9.90D+01  OPTGRAD =  3.00D-04
 OPTENERG=  1.00D-06  OPTSTEP =  3.00D-04  THRGRAD =  1.00D-10  COMPRESS=  1.00D-11  VARMIN  =  1.00D-07  VARMAX  =  1.00D-03
 THRDOUB =  0.00D+00  THRDIV  =  1.00D-05  THRRED  =  1.00D-07  THRPSP  =  1.00D+00  THRDC   =  1.00D-10  THRCS   =  1.00D-10
 THRNRM  =  1.00D-08  THREQ   =  0.00D+00  THRDE   =  1.00D+00  THRREF  =  1.00D-05  SPARFAC =  1.00D+00  THRDLP  =  1.00D-07
 THRDIA  =  1.00D-10  THRDLS  =  1.00D-07  THRGPS  =  0.00D+00  THRKEX  =  0.00D+00  THRDIS  =  2.00D-01  THRVAR  =  1.00D-10
 THRLOC  =  1.00D-06  THRGAP  =  1.00D-06  THRLOCT = -1.00D+00  THRGAPT = -1.00D+00  THRORB  =  1.00D-06  THRMLTP =  0.00D+00
 THRCPQCI=  1.00D-10  KEXTA   =  0.00D+00  THRCOARS=  0.00D+00  SYMTOL  =  1.00D-06  GRADTOL =  1.00D-06  THROVL  =  1.00D-08
 THRORTH =  1.00D-08  GRID    =  1.00D-08  GRIDMAX =  1.00D-03  DTMAX   =  0.00D+00  THROCCDE=  1.00D-01  THROCCDE=  1.00D-01
 THRPRINT=  2.50D-01


 Variable memory set to 2000000000 words,  buffer space 

 ZSYMEL=NOSYM
 ZUNIT=ANG


Geometry recognized as XYZ

 SETTING NKERNA         =         1.00000000                                  
 SETTING NKERNB         =         1.00000000                                  
 SETTING GF             =     0.00000000D+00                                  
 SETTING SING           =         1.00000000                                  
 SETTING THRDUM         =     1.00000000D-04                                  
 SETTING GRIDTHR        =     1.00000000D-08                                  
 SETTING BASIS          =    AVQZ


 Recomputing integrals since basis changed


 Using spherical harmonics

 Library entry O      S aug-cc-pVQZ          selected for orbital group  1
 Library entry O      P aug-cc-pVQZ          selected for orbital group  1
 Library entry O      D aug-cc-pVQZ          selected for orbital group  1
 Library entry O      F aug-cc-pVQZ          selected for orbital group  1
 Library entry O      G aug-cc-pVQZ          selected for orbital group  1
 Library entry H      S aug-cc-pVQZ          selected for orbital group  2
 Library entry H      P aug-cc-pVQZ          selected for orbital group  2
 Library entry H      D aug-cc-pVQZ          selected for orbital group  2
 Library entry H      F aug-cc-pVQZ          selected for orbital group  2
 Library entry C      S aug-cc-pVQZ          selected for orbital group  3
 Library entry C      P aug-cc-pVQZ          selected for orbital group  3
 Library entry C      D aug-cc-pVQZ          selected for orbital group  3
 Library entry C      F aug-cc-pVQZ          selected for orbital group  3
 Library entry C      G aug-cc-pVQZ          selected for orbital group  3


 PROGRAM * SEWARD (Integral evaluation for generally contracted gaussian basis sets)     Author: Roland Lindh, 1990

 Geometry written to block  1 of record 700


 Point group  C1  



 ATOMIC COORDINATES

 NR  ATOM    CHARGE       X              Y              Z

   1  O5      8.00   -0.603200579    4.424037830    7.113685023
   2  H9      1.00    0.770063396    4.853761551    8.236371314
   3  H10     1.00   -0.289128097    2.656576986    6.606293559
   4  C1      6.00   -6.193010455    2.801518980    2.403542658
   5  H41     1.00   -4.656285171    1.699997622    3.119937832
   6  H42     1.00   -5.973046335    4.726205038    2.982932688
   7  H43     1.00   -7.940251230    2.077186956    3.118237078
   8  H44     1.00   -6.176569838    2.685300823    0.384937212

 Bond lengths in Bohr (Angstrom)

 1-2  1.825086553  1-3  1.865477274  4-5  2.021904040  4-6  2.022002335  4-7  2.021953343
     ( 0.965794212)     ( 0.987168061)     ( 1.069945541)     ( 1.069997556)     ( 1.069971630)

 4-8  2.022015060
     ( 1.070004290)

 Bond angles

  2-1-3  105.29057030   5-4-6  109.53398059   5-4-7  109.65604535   5-4-8  108.43490854

  6-4-7  109.49436728   6-4-8  109.86987750   7-4-8  109.83468330

 NUCLEAR CHARGE:                   20
 NUMBER OF PRIMITIVE AOS:         578
 NUMBER OF SYMMETRY AOS:          474
 NUMBER OF CONTRACTIONS:          436   (  436A   )
 NUMBER OF CORE ORBITALS:           2   (    2A   )
 NUMBER OF VALENCE ORBITALS:       14   (   14A   )


 NUCLEAR REPULSION ENERGY   35.83278858


 Basis set:  JKFIT                   
 Basis size:   740
 Attributes:
 Sphericals:   T
 Basis set:  MP2FIT                  
 Basis size:   816
 Attributes:
 Sphericals:   T
 Basis set:  RI                      
 Basis size:   556
 Attributes:
 Sphericals:   T
 Basis set:  TDDFT                   
 Basis size:   816
 Attributes:
 Sphericals:   T

 **********************************************************************************************************************************


 Eigenvalues of metric

         1 0.162E-04 0.292E-04 0.350E-04 0.370E-04 0.630E-04 0.836E-04 0.983E-04 0.106E-03


 Contracted 2-electron integrals neglected if value below      1.0D-14
 AO integral compression algorithm  1   Integral accuracy      1.0D-14

     21636.579 MB (compressed) written to integral file ( 54.0%)

     Node minimum: 4604.559 MB, node maximum: 6309.282 MB


 NUMBER OF SORTED TWO-ELECTRON INTEGRALS: 1134451344.     BUFFER LENGTH:  32768
 NUMBER OF SEGMENTS:  36  SEGMENT LENGTH:   31999984      RECORD LENGTH: 524288

 Memory used in sort:      32.56 MW

 SORT1 READ  5012305700. AND WROTE   917397535. INTEGRALS IN   2642 RECORDS. CPU TIME:   116.95 SEC, REAL TIME:   137.94 SEC
 SORT2 READ  3669497308. AND WROTE  4537853011. INTEGRALS IN  96272 RECORDS. CPU TIME:    16.31 SEC, REAL TIME:   101.54 SEC

 Node minimum:  1134427528.  Node maximum:  1134498978. integrals

 OPERATOR DM      FOR CENTER  0  COORDINATES:    0.000000    0.000000    0.000000


 **********************************************************************************************************************************
 DATASETS  * FILE   NREC   LENGTH (MB)   RECORD NAMES
              1      18       37.06       500      610      700      900      950      970     1000      129      960     1100   
                                          VAR    BASINP    GEOM    SYMINP    ZMAT    AOBASIS   BASIS     P2S    ABASIS      S 
                                         1400     1410     1200     1210     1080     1600     1650     1700   
                                           T        V       H0       H01     AOSYM     SMH    MOLCAS    OPER   

 PROGRAMS   *        TOTAL       INT
 CPU TIMES  *       195.86    195.66
 REAL TIME  *       316.34 SEC
 DISK USED  *        37.58 MB (local),       65.95 GB (total)
 GA USED    *         0.00 MB       (max)       0.00 MB       (current)
 **********************************************************************************************************************************


 PROGRAM * RHF-SCF (CLOSED SHELL)       Authors: W. Meyer, H.-J. Werner


 NUMBER OF ELECTRONS:      10+   10-    SPACE SYMMETRY=1    SPIN SYMMETRY: Singlet 
 CONVERGENCE THRESHOLDS:    1.00E-08 (Density)    1.00E-11 (Energy)
 MAX. NUMBER OF ITERATIONS:       60
 INTERPOLATION TYPE:            DIIS
 INTERPOLATION STEPS:              2 (START)      1 (STEP)
 LEVEL SHIFTS:                  0.00 (CLOSED)  0.00 (OPEN) 



 Orbital guess generated from atomic densities. Full valence occupancy:   16

 Molecular orbital dump at record        2100.2

 Initial occupancy:  10

 ITERATION    DDIFF          GRAD             ENERGY        2-EL.EN.            DIPOLE MOMENTS         DIIS   ORB.
    1      0.000D+00      0.000D+00      -116.22075530    157.411638    0.86662   -0.69279    0.31068    0    start
    2      0.000D+00      0.380D-02      -116.26504881    152.357836    0.51460   -0.35495    0.20908    1    diag
    3      0.273D-02      0.223D-02      -116.27871004    154.446094    0.60413   -0.43892    0.23547    2    diag
    4      0.942D-03      0.330D-03      -116.27936748    154.332918    0.59575   -0.43175    0.23244    3    diag
    5      0.202D-03      0.966D-04      -116.27943586    154.327992    0.59549   -0.43083    0.23267    4    diag
    6      0.817D-04      0.234D-04      -116.27943962    154.333585    0.59492   -0.43024    0.23250    5    diag
    7      0.219D-04      0.458D-05      -116.27943984    154.331999    0.59492   -0.43022    0.23250    6    diag
    8      0.632D-05      0.114D-05      -116.27943985    154.332160    0.59487   -0.43017    0.23250    7    diag
    9      0.130D-05      0.274D-06      -116.27943985    154.332134    0.59486   -0.43016    0.23249    8    diag
   10      0.378D-06      0.321D-07      -116.27943985    154.332135    0.59486   -0.43015    0.23249    9    orth
   11      0.409D-07      0.721D-08      -116.27943985    154.332136    0.59486   -0.43015    0.23249    9    diag
   12      0.864D-08      0.189D-08      -116.27943985    154.332136    0.59486   -0.43015    0.23249    0    orth

 Final occupancy:  10

 !RHF STATE  1.1 Energy              -116.279439854177
 Nuclear energy                        35.83278858
 One-electron energy                 -229.27829634
 Two-electron energy                   77.16606790
 Virial quotient                       -1.00066811
 !RHF STATE  1.1 Dipole moment          0.59485696    -0.43015404     0.23249046
 Dipole moment /Debye                   1.51187656    -1.09327090     0.59089311

 Orbital energies:

         1.1          2.1          3.1          4.1          5.1          6.1          7.1          8.1          9.1         10.1
    -20.567813   -11.189937    -1.342874    -0.944206    -0.709115    -0.580105    -0.545757    -0.542625    -0.541805    -0.508843

        11.1         12.1
      0.024494     0.035982


 HOMO     10.1    -0.508843 =     -13.8463eV
 LUMO     11.1     0.024494 =       0.6665eV
 LUMO-HOMO         0.533337 =      14.5128eV


 **********************************************************************************************************************************
 DATASETS  * FILE   NREC   LENGTH (MB)   RECORD NAMES
              1      18       37.06       500      610      700      900      950      970     1000      129      960     1100   
                                          VAR    BASINP    GEOM    SYMINP    ZMAT    AOBASIS   BASIS     P2S    ABASIS      S 
                                         1400     1410     1200     1210     1080     1600     1650     1700   
                                           T        V       H0       H01     AOSYM     SMH    MOLCAS    OPER   

              2       4        6.75       700     1000      520     2100   
                                         GEOM     BASIS   MCVARS     RHF  

 PROGRAMS   *        TOTAL    HF-SCF       INT
 CPU TIMES  *       407.05    211.19    195.66
 REAL TIME  *       578.03 SEC
 DISK USED  *        57.63 MB (local),       66.03 GB (total)
 SF USED    *         0.76 MB
 GA USED    *         0.00 MB       (max)       0.00 MB       (current)
 **********************************************************************************************************************************

 Basis set:  JKFIT                   
 Basis size:   740
 Attributes:
 Sphericals:   T
 Basis set:  MP2FIT                  
 Basis size:   816
 Attributes:
 Sphericals:   T
 Basis set:  RI                      
 Basis size:   556
 Attributes:
 Sphericals:   T
 Basis set:  TDDFT                   
 Basis size:   816
 Attributes:
 Sphericals:   T

 PROGRAM * CCSD (Closed-shell coupled cluster)     Authors: C. Hampel, H.-J. Werner, 1991, M. Deegan, P.J. Knowles, 1992


 Convergence thresholds:  THRVAR = 1.00D-08  THRDEN = 1.00D-10

 CCSD(T)     terms to be evaluated (factor= 1.000)


 Number of core orbitals:           2 (   2 )
 Number of closed-shell orbitals:   8 (   8 )
 Number of external orbitals:     426 ( 426 )

 Molecular orbitals read from record     2100.2  Type=RHF/CANONICAL (state 1.1)

 Number of N-1 electron functions:               8
 Number of N-2 electron functions:              36
 Number of singly external CSFs:              3408
 Number of doubly external CSFs:           5808936
 Total number of CSFs:                     5812345

 Length of J-op  integral file:               0.00 MB
 Length of K-op  integral file:              13.08 MB
 Length of 3-ext integral record:             0.00 MB

 Memory could be reduced to 828.85 Mwords without degradation in triples

 Integral transformation finished. Total CPU: 332.02 sec, npass=  1  Memory used: 389.48 MW

 Reference energy:                   -116.27943985

 MP2 singlet pair energy:              -0.34063169
 MP2 triplet pair energy:              -0.15814417
 MP2 correlation energy:               -0.49877586
 MP2 total energy:                   -116.77821571

 SCS-MP2 correlation energy:           -0.50715885   (PS=  1.200000  PT=  0.333333)
 SCS-MP2 total energy:               -116.78659870

 ITER.      SQ.NORM     CORR.ENERGY   TOTAL ENERGY   ENERGY CHANGE        DEN1      VAR(S)    VAR(P)  DIIS     TIME  TIME/IT
   1      1.13545488    -0.51651206  -116.79595192    -0.01773620    -0.00630746  0.14D-02  0.20D-02  1  1   486.98   155.31
   2      1.14400570    -0.51786209  -116.79730195    -0.00135003    -0.01018941  0.27D-04  0.25D-03  2  2   642.63   156.43
   3      1.14719207    -0.51798302  -116.79742287    -0.00012092    -0.00224653  0.11D-04  0.12D-04  3  3   798.46   156.82
   4      1.14804137    -0.51798609  -116.79742595    -0.00000308    -0.00040395  0.57D-06  0.12D-05  4  4   954.16   156.99
   5      1.14819471    -0.51798581  -116.79742567     0.00000028    -0.00004529  0.19D-06  0.83D-07  5  5  1109.99   157.13
   6      1.14824211    -0.51798217  -116.79742202     0.00000365    -0.00001138  0.18D-07  0.58D-08  6  6  1265.74   157.25
   7      1.14825096    -0.51798121  -116.79742106     0.00000095    -0.00000135  0.14D-08  0.77D-09  6  2  1421.84   157.33
   8      1.14825282    -0.51798110  -116.79742095     0.00000011     0.00000007  0.25D-09  0.78D-10  6  1  1577.89   157.40
   9      1.14825363    -0.51798104  -116.79742089     0.00000006    -0.00000004  0.17D-10  0.11D-10  6  3  1734.16   157.47
  10      1.14825373    -0.51798104  -116.79742089     0.00000000     0.00000007  0.20D-11  0.14D-11  6  4  1889.79   157.50
  11      1.14825369    -0.51798104  -116.79742090    -0.00000000     0.00000005  0.35D-12  0.21D-12  6  5  2045.48   157.52
  12      1.14825367    -0.51798105  -116.79742090    -0.00000000     0.00000002  0.74D-13  0.25D-13  6  6  2201.49   157.56
  13      1.14825365    -0.51798105  -116.79742090    -0.00000000     0.00000001  0.13D-13  0.37D-14  6  2  2357.47   157.58
  14      1.14825364    -0.51798105  -116.79742090    -0.00000000     0.00000000  0.18D-14  0.84D-15  6  1  2513.31   157.60
  15      1.14825364    -0.51798105  -116.79742090    -0.00000000     0.00000000  0.19D-15  0.11D-15  6  3  2669.35   157.63
  16      1.14825364    -0.51798105  -116.79742090    -0.00000000    -0.00000000  0.19D-16  0.14D-16  6  4  2825.58   157.66
  17      1.14825364    -0.51798105  -116.79742090     0.00000000    -0.00000000  0.24D-17  0.20D-17  6  5  2981.30   157.67

 Norm of t1 vector:      0.04983907      S-energy:    -0.00000000      T1 diagnostic:  0.00881039
                                                                       D1 diagnostic:  0.02025331

   CPU time for triples:   2063.78 sec for i =  1 -  7 /  8 (~  68.8 % done)
   CPU time for triples:    825.34 sec for i =  8 -  8 /  8 (  100.0 % done)

 Total CPU time for triples:   2895.21 sec


 RESULTS
 =======

  Reference energy                   -116.279439854180
  CCSD singlet pair energy             -0.373278135940
  CCSD triplet pair energy             -0.144702912392
  CCSD correlation energy              -0.517981048556

  Triples (T) contribution             -0.016538649437
  Total correlation energy             -0.534519697993

  CCSD total energy                  -116.797420902735
  CCSD[T] energy                     -116.814491435689
  CCSD-T energy                      -116.813737445537
 !CCSD(T) total energy               -116.813959552172

 Timing summary (sec):

 STEP                 CPU(USER)    SYS     CPU(TOT)    WALL
 Transformation        333.20      7.71    340.91    342.56
 CCSD iterations      2648.21     29.33   2677.54   2680.59
 Triples              2895.21      6.04   2901.25   2904.61

 Program statistics:

 Available memory in ccsd:              1999999734
 Min. memory needed in ccsd:              17010489
 Max. memory used in ccsd:                22038113
 Max. memory used in cckext:              15155228 (17 integral passes)



 **********************************************************************************************************************************
 DATASETS  * FILE   NREC   LENGTH (MB)   RECORD NAMES
              1      19     2602.11       500      610      700      900      950      970     1000      129      960     1100   
                                          VAR    BASINP    GEOM    SYMINP    ZMAT    AOBASIS   BASIS     P2S    ABASIS      S 
                                         1400     1410     1200     1210     1080     1600     1650     1700     1380   
                                           T        V       H0       H01     AOSYM     SMH    MOLCAS    OPER     JKOP   

              2       4        6.75       700     1000      520     2100   
                                         GEOM     BASIS   MCVARS     RHF  

 PROGRAMS   *        TOTAL   CCSD(T)    HF-SCF       INT
 CPU TIMES  *      6283.91   5876.85    211.19    195.66
 REAL TIME  *      6506.93 SEC
 DISK USED  *         3.24 GB (local),       76.86 GB (total)
 SF USED    *         3.08 GB
 GA USED    *         0.00 MB       (max)       0.00 MB       (current)
 **********************************************************************************************************************************

 Running procedure: SET_MONOMER1

 Dummy atoms: C1  H41  H42  H43  H44


 Recomputing one-electron integrals since nuclear charges changed


 PROGRAM * SEWARD (Integral evaluation for generally contracted gaussian basis sets)     Author: Roland Lindh, 1990

 Geometry written to block  1 of record 700


 Point group  C1  



 ATOMIC COORDINATES

 NR  ATOM    CHARGE       X              Y              Z

   1  O5      8.00   -0.603200579    4.424037830    7.113685023
   2  H9      1.00    0.770063396    4.853761551    8.236371314
   3  H10     1.00   -0.289128097    2.656576986    6.606293559
   4  C1      0.00   -6.193010455    2.801518980    2.403542658
   5  H41     0.00   -4.656285171    1.699997622    3.119937832
   6  H42     0.00   -5.973046335    4.726205038    2.982932688
   7  H43     0.00   -7.940251230    2.077186956    3.118237078
   8  H44     0.00   -6.176569838    2.685300823    0.384937212

 Bond lengths in Bohr (Angstrom)

 1-2  1.825086553  1-3  1.865477274  4-5  2.021904040  4-6  2.022002335  4-7  2.021953343
     ( 0.965794212)     ( 0.987168061)     ( 1.069945541)     ( 1.069997556)     ( 1.069971630)

 4-8  2.022015060
     ( 1.070004290)

 Bond angles

  2-1-3  105.29057030   5-4-6  109.53398059   5-4-7  109.65604535   5-4-8  108.43490854

  6-4-7  109.49436728   6-4-8  109.86987750   7-4-8  109.83468330

 NUCLEAR CHARGE:                   10
 NUMBER OF PRIMITIVE AOS:         578
 NUMBER OF SYMMETRY AOS:          474
 NUMBER OF CONTRACTIONS:          436   (  436A   )
 NUMBER OF CORE ORBITALS:           1   (    1A   )
 NUMBER OF VALENCE ORBITALS:        6   (    6A   )

 MOLECULE CHANGED: INITIALIZING OCCUPATION AND DUMP RECORDS


 NUCLEAR REPULSION ENERGY    9.01266574

 Basis set:  JKFIT                   
 Basis size:   740
 Attributes:
 Sphericals:   T
 Basis set:  MP2FIT                  
 Basis size:   816
 Attributes:
 Sphericals:   T
 Basis set:  RI                      
 Basis size:   556
 Attributes:
 Sphericals:   T
 Basis set:  TDDFT                   
 Basis size:   816
 Attributes:
 Sphericals:   T

 Eigenvalues of metric

         1 0.162E-04 0.292E-04 0.350E-04 0.370E-04 0.630E-04 0.836E-04 0.983E-04 0.106E-03


 Contracted 2-electron integrals neglected if value below      1.0D-14

 OPERATOR DM      FOR CENTER  0  COORDINATES:    0.000000    0.000000    0.000000


 **********************************************************************************************************************************
 DATASETS  * FILE   NREC   LENGTH (MB)   RECORD NAMES
              1      18       37.06       500      610      700      900      950      970     1000      129      960     1100   
                                          VAR    BASINP    GEOM    SYMINP    ZMAT    AOBASIS   BASIS     P2S    ABASIS      S 
                                         1400     1410     1200     1210     1080     1600     1650     1700   
                                           T        V       H0       H01     AOSYM     SMH    MOLCAS    OPER   

              2       5       10.59       700     1000      520     2100      200   
                                         GEOM     BASIS   MCVARS     RHF    OPTIONS    

 PROGRAMS   *        TOTAL       INT   CCSD(T)    HF-SCF       INT
 CPU TIMES  *      6284.29      0.37   5876.85    211.19    195.66
 REAL TIME  *      6508.28 SEC
 DISK USED  *         3.24 GB (local),       76.88 GB (total)
 SF USED    *         3.08 GB
 GA USED    *         0.00 MB       (max)       0.00 MB       (current)
 **********************************************************************************************************************************


 PROGRAM * RHF-SCF (CLOSED SHELL)       Authors: W. Meyer, H.-J. Werner


 NUMBER OF ELECTRONS:       5+    5-    SPACE SYMMETRY=1    SPIN SYMMETRY: Singlet 
 CONVERGENCE THRESHOLDS:    1.00E-08 (Density)    1.00E-11 (Energy)
 MAX. NUMBER OF ITERATIONS:       60
 INTERPOLATION TYPE:            DIIS
 INTERPOLATION STEPS:              2 (START)      1 (STEP)
 LEVEL SHIFTS:                  0.00 (CLOSED)  0.00 (OPEN) 



 Orbital guess generated from atomic densities. Full valence occupancy:    7

 Molecular orbital dump at record        2101.2

 Initial occupancy:   5

 ITERATION    DDIFF          GRAD             ENERGY        2-EL.EN.            DIPOLE MOMENTS         DIIS   ORB.
    1      0.000D+00      0.000D+00       -76.02524073     77.430781    0.86246   -0.69117    0.31147    0    start
    2      0.000D+00      0.467D-02       -76.05203666     73.781694    0.50397   -0.39696    0.18484    1    diag
    3      0.221D-02      0.297D-02       -76.06354919     75.399754    0.59379   -0.46920    0.21717    2    diag
    4      0.835D-03      0.278D-03       -76.06374278     75.308629    0.59070   -0.46539    0.21660    3    diag
    5      0.105D-03      0.776D-04       -76.06376355     75.322880    0.58958   -0.46393    0.21642    4    diag
    6      0.325D-04      0.154D-04       -76.06376488     75.321865    0.58936   -0.46357    0.21642    5    diag
    7      0.815D-05      0.312D-05       -76.06376495     75.322011    0.58928   -0.46346    0.21641    6    diag
    8      0.217D-05      0.589D-06       -76.06376495     75.321996    0.58925   -0.46343    0.21640    7    diag
    9      0.407D-06      0.789D-07       -76.06376495     75.321988    0.58925   -0.46343    0.21640    8    diag
   10      0.465D-07      0.180D-07       -76.06376495     75.321990    0.58925   -0.46343    0.21640    9    orth
   11      0.116D-07      0.365D-08       -76.06376495     75.321990    0.58925   -0.46343    0.21640    9    diag
   12      0.251D-08      0.714D-09       -76.06376495     75.321990    0.58925   -0.46343    0.21640    0    orth

 Final occupancy:   5

 !RHF STATE  1.1 Energy               -76.063764953719
 Nuclear energy                         9.01266574
 One-electron energy                 -122.73742563
 Two-electron energy                   37.66099493
 Virial quotient                       -1.00189968
 !RHF STATE  1.1 Dipole moment          0.58924630    -0.46342923     0.21639727
 Dipole moment /Debye                   1.49761662    -1.17784247     0.54999098

 Orbital energies:

         1.1          2.1          3.1          4.1          5.1          6.1          7.1
    -20.567693    -1.342705    -0.708860    -0.579753    -0.508707     0.021515     0.032843


 HOMO      5.1    -0.508707 =     -13.8426eV
 LUMO      6.1     0.021515 =       0.5854eV
 LUMO-HOMO         0.530222 =      14.4281eV


 **********************************************************************************************************************************
 DATASETS  * FILE   NREC   LENGTH (MB)   RECORD NAMES
              1      18       37.06       500      610      700      900      950      970     1000      129      960     1100   
                                          VAR    BASINP    GEOM    SYMINP    ZMAT    AOBASIS   BASIS     P2S    ABASIS      S 
                                         1400     1410     1200     1210     1080     1600     1650     1700   
                                           T        V       H0       H01     AOSYM     SMH    MOLCAS    OPER   

              2       6       17.39       700     1000      520     2100      200     2101   
                                         GEOM     BASIS   MCVARS     RHF    OPTIONS    RHF  

 PROGRAMS   *        TOTAL    HF-SCF       INT   CCSD(T)    HF-SCF       INT
 CPU TIMES  *      6482.35    198.06      0.37   5876.85    211.19    195.66
 REAL TIME  *      6726.58 SEC
 DISK USED  *         3.24 GB (local),       76.88 GB (total)
 SF USED    *         3.08 GB
 GA USED    *         0.00 MB       (max)       0.00 MB       (current)
 **********************************************************************************************************************************

 Basis set:  JKFIT                   
 Basis size:   740
 Attributes:
 Sphericals:   T
 Basis set:  MP2FIT                  
 Basis size:   816
 Attributes:
 Sphericals:   T
 Basis set:  RI                      
 Basis size:   556
 Attributes:
 Sphericals:   T
 Basis set:  TDDFT                   
 Basis size:   816
 Attributes:
 Sphericals:   T

 PROGRAM * CCSD (Closed-shell coupled cluster)     Authors: C. Hampel, H.-J. Werner, 1991, M. Deegan, P.J. Knowles, 1992


 Convergence thresholds:  THRVAR = 1.00D-08  THRDEN = 1.00D-10

 CCSD(T)     terms to be evaluated (factor= 1.000)


 Number of core orbitals:           1 (   1 )
 Number of closed-shell orbitals:   4 (   4 )
 Number of external orbitals:     431 ( 431 )

 Molecular orbitals read from record     2101.2  Type=RHF/CANONICAL (state 1.1)

 Number of N-1 electron functions:               4
 Number of N-2 electron functions:              10
 Number of singly external CSFs:              1724
 Number of doubly external CSFs:           1486950
 Total number of CSFs:                     1488675

 Length of J-op  integral file:               0.00 MB
 Length of K-op  integral file:              13.08 MB
 Length of 3-ext integral record:             0.00 MB

 Memory could be reduced to 526.20 Mwords without degradation in triples

 Integral transformation finished. Total CPU: 172.26 sec, npass=  1  Memory used: 214.76 MW

 Reference energy:                    -76.06376495

 MP2 singlet pair energy:              -0.18605078
 MP2 triplet pair energy:              -0.10130884
 MP2 correlation energy:               -0.28735963
 MP2 total energy:                    -76.35112458

 SCS-MP2 correlation energy:           -0.28629755   (PS=  1.200000  PT=  0.333333)
 SCS-MP2 total energy:                -76.35006250

 ITER.      SQ.NORM     CORR.ENERGY   TOTAL ENERGY   ENERGY CHANGE        DEN1      VAR(S)    VAR(P)  DIIS     TIME  TIME/IT
   1      1.06426716    -0.28914473   -76.35290968    -0.00178510     0.00404581  0.84D-03  0.10D-02  1  1   220.18    48.99
   2      1.06788784    -0.28940032   -76.35316528    -0.00025559    -0.00489203  0.14D-04  0.12D-03  2  2   268.91    49.75
   3      1.06932557    -0.28947811   -76.35324306    -0.00007778    -0.00100818  0.87D-05  0.61D-05  3  3   314.35    48.76
   4      1.06979264    -0.28947732   -76.35324227     0.00000078    -0.00021788  0.47D-06  0.72D-06  4  4   359.47    48.24
   5      1.06989316    -0.28947504   -76.35324000     0.00000228    -0.00003099  0.16D-06  0.47D-07  5  5   405.16    48.02
   6      1.06992970    -0.28947194   -76.35323690     0.00000310    -0.00000837  0.14D-07  0.33D-08  6  6   451.28    47.96
   7      1.06993652    -0.28947160   -76.35323655     0.00000034    -0.00000050  0.91D-09  0.53D-09  6  1   497.54    47.91
   8      1.06993779    -0.28947155   -76.35323650     0.00000005     0.00000023  0.15D-09  0.57D-10  6  2   543.55    47.87
   9      1.06993838    -0.28947150   -76.35323645     0.00000005    -0.00000001  0.97D-11  0.57D-11  6  3   589.85    47.87
  10      1.06993845    -0.28947149   -76.35323645     0.00000000     0.00000003  0.17D-11  0.74D-12  6  4   636.33    47.86
  11      1.06993844    -0.28947149   -76.35323645    -0.00000000     0.00000002  0.36D-12  0.12D-12  6  5   682.99    47.87
  12      1.06993843    -0.28947149   -76.35323645    -0.00000000     0.00000001  0.69D-13  0.18D-13  6  6   729.38    47.88
  13      1.06993842    -0.28947150   -76.35323645    -0.00000000     0.00000000  0.96D-14  0.30D-14  6  1   775.79    47.88
  14      1.06993841    -0.28947150   -76.35323645    -0.00000000     0.00000000  0.10D-14  0.62D-15  6  2   822.12    47.88
  15      1.06993841    -0.28947150   -76.35323645    -0.00000000     0.00000000  0.11D-15  0.77D-16  6  3   868.38    47.89
  16      1.06993841    -0.28947150   -76.35323645    -0.00000000     0.00000000  0.14D-16  0.99D-17  6  4   914.71    47.88

 Norm of t1 vector:      0.03840982      S-energy:    -0.00000000      T1 diagnostic:  0.00960246
                                                                       D1 diagnostic:  0.02005323


 Total CPU time for triples:    435.53 sec


 RESULTS
 =======

  Reference energy                    -76.063764953720
  CCSD singlet pair energy             -0.199838536597
  CCSD triplet pair energy             -0.089632959954
  CCSD correlation energy              -0.289471496582

  Triples (T) contribution             -0.009568350579
  Total correlation energy             -0.299039847161

  CCSD total energy                   -76.353236450302
  CCSD[T] energy                      -76.363120624147
  CCSD-T energy                       -76.362652139265
 !CCSD(T) total energy                -76.362804800881

 Timing summary (sec):

 STEP                 CPU(USER)    SYS     CPU(TOT)    WALL
 Transformation        172.64      5.38    178.02    179.36
 CCSD iterations       742.16     23.11    765.27    766.22
 Triples               435.53      1.20    436.73    437.31

 Program statistics:

 Available memory in ccsd:              1999999921
 Min. memory needed in ccsd:               6768234
 Max. memory used in ccsd:                 7865440
 Max. memory used in cckext:               5182436 (16 integral passes)



 **********************************************************************************************************************************
 DATASETS  * FILE   NREC   LENGTH (MB)   RECORD NAMES
              1      19     1346.95       500      610      700      900      950      970     1000      129      960     1100   
                                          VAR    BASINP    GEOM    SYMINP    ZMAT    AOBASIS   BASIS     P2S    ABASIS      S 
                                         1400     1410     1200     1210     1080     1600     1650     1700     1380   
                                           T        V       H0       H01     AOSYM     SMH    MOLCAS    OPER     JKOP   

              2       6       17.39       700     1000      520     2100      200     2101   
                                         GEOM     BASIS   MCVARS     RHF    OPTIONS    RHF  

 PROGRAMS   *        TOTAL   CCSD(T)    HF-SCF       INT   CCSD(T)    HF-SCF       INT
 CPU TIMES  *      7832.91   1350.55    198.06      0.37   5876.85    211.19    195.66
 REAL TIME  *      8110.45 SEC
 DISK USED  *         3.24 GB (local),       76.88 GB (total)
 SF USED    *         3.08 GB
 GA USED    *         0.00 MB       (max)       0.00 MB       (current)
 **********************************************************************************************************************************

 Running procedure: SET_MONOMER2

 Dummy atoms: O5  H9  H10


 Recomputing one-electron integrals since nuclear charges changed


 PROGRAM * SEWARD (Integral evaluation for generally contracted gaussian basis sets)     Author: Roland Lindh, 1990

 Geometry written to block  1 of record 700


 Point group  C1  



 ATOMIC COORDINATES

 NR  ATOM    CHARGE       X              Y              Z

   1  O5      0.00   -0.603200579    4.424037830    7.113685023
   2  H9      0.00    0.770063396    4.853761551    8.236371314
   3  H10     0.00   -0.289128097    2.656576986    6.606293559
   4  C1      6.00   -6.193010455    2.801518980    2.403542658
   5  H41     1.00   -4.656285171    1.699997622    3.119937832
   6  H42     1.00   -5.973046335    4.726205038    2.982932688
   7  H43     1.00   -7.940251230    2.077186956    3.118237078
   8  H44     1.00   -6.176569838    2.685300823    0.384937212

 Bond lengths in Bohr (Angstrom)

 1-2  1.825086553  1-3  1.865477274  4-5  2.021904040  4-6  2.022002335  4-7  2.021953343
     ( 0.965794212)     ( 0.987168061)     ( 1.069945541)     ( 1.069997556)     ( 1.069971630)

 4-8  2.022015060
     ( 1.070004290)

 Bond angles

  2-1-3  105.29057030   5-4-6  109.53398059   5-4-7  109.65604535   5-4-8  108.43490854

  6-4-7  109.49436728   6-4-8  109.86987750   7-4-8  109.83468330

 NUCLEAR CHARGE:                   10
 NUMBER OF PRIMITIVE AOS:         578
 NUMBER OF SYMMETRY AOS:          474
 NUMBER OF CONTRACTIONS:          436   (  436A   )
 NUMBER OF CORE ORBITALS:           1   (    1A   )
 NUMBER OF VALENCE ORBITALS:        8   (    8A   )

 MOLECULE CHANGED: INITIALIZING OCCUPATION AND DUMP RECORDS


 NUCLEAR REPULSION ENERGY   13.68681606

 Basis set:  JKFIT                   
 Basis size:   740
 Attributes:
 Sphericals:   T
 Basis set:  MP2FIT                  
 Basis size:   816
 Attributes:
 Sphericals:   T
 Basis set:  RI                      
 Basis size:   556
 Attributes:
 Sphericals:   T
 Basis set:  TDDFT                   
 Basis size:   816
 Attributes:
 Sphericals:   T

 Eigenvalues of metric

         1 0.162E-04 0.292E-04 0.350E-04 0.370E-04 0.630E-04 0.836E-04 0.983E-04 0.106E-03


 Contracted 2-electron integrals neglected if value below      1.0D-14

 OPERATOR DM      FOR CENTER  0  COORDINATES:    0.000000    0.000000    0.000000


 **********************************************************************************************************************************
 DATASETS  * FILE   NREC   LENGTH (MB)   RECORD NAMES
              1      18       37.06       500      610      700      900      950      970     1000      129      960     1100   
                                          VAR    BASINP    GEOM    SYMINP    ZMAT    AOBASIS   BASIS     P2S    ABASIS      S 
                                         1400     1410     1200     1210     1080     1600     1650     1700   
                                           T        V       H0       H01     AOSYM     SMH    MOLCAS    OPER   

              2       6       17.39       700     1000      520     2100      200     2101   
                                         GEOM     BASIS   MCVARS     RHF    OPTIONS    RHF  

 PROGRAMS   *        TOTAL       INT   CCSD(T)    HF-SCF       INT   CCSD(T)    HF-SCF       INT
 CPU TIMES  *      7833.31      0.39   1350.55    198.06      0.37   5876.85    211.19    195.66
 REAL TIME  *      8111.61 SEC
 DISK USED  *         3.24 GB (local),       76.88 GB (total)
 SF USED    *         3.08 GB
 GA USED    *         0.00 MB       (max)       0.00 MB       (current)
 **********************************************************************************************************************************


 PROGRAM * RHF-SCF (CLOSED SHELL)       Authors: W. Meyer, H.-J. Werner


 NUMBER OF ELECTRONS:       5+    5-    SPACE SYMMETRY=1    SPIN SYMMETRY: Singlet 
 CONVERGENCE THRESHOLDS:    1.00E-08 (Density)    1.00E-11 (Energy)
 MAX. NUMBER OF ITERATIONS:       60
 INTERPOLATION TYPE:            DIIS
 INTERPOLATION STEPS:              2 (START)      1 (STEP)
 LEVEL SHIFTS:                  0.00 (CLOSED)  0.00 (OPEN) 



 Orbital guess generated from atomic densities. Full valence occupancy:    9

 Molecular orbital dump at record        2102.2

 Initial occupancy:   5

 ITERATION    DDIFF          GRAD             ENERGY        2-EL.EN.            DIPOLE MOMENTS         DIIS   ORB.
    1      0.000D+00      0.000D+00       -40.19609430     53.506279    0.00410   -0.00276   -0.00131    0    start
    2      0.000D+00      0.257D-02       -40.21334822     52.217618    0.00128   -0.00087   -0.00039    1    diag
    3      0.158D-02      0.998D-03       -40.21562412     52.672076    0.00181   -0.00123   -0.00056    2    diag
    4      0.441D-03      0.249D-03       -40.21594356     52.617263    0.00161   -0.00110   -0.00049    3    diag
    5      0.166D-03      0.322D-04       -40.21594905     52.619411    0.00158   -0.00108   -0.00048    4    diag
    6      0.417D-04      0.264D-05       -40.21594910     52.619548    0.00158   -0.00108   -0.00048    5    diag
    7      0.554D-05      0.212D-06       -40.21594910     52.619508    0.00158   -0.00108   -0.00048    6    diag
    8      0.216D-06      0.170D-07       -40.21594910     52.619509    0.00158   -0.00108   -0.00048    7    diag
    9      0.822D-07      0.218D-08       -40.21594910     52.619509    0.00158   -0.00108   -0.00048    8    diag
   10      0.824D-08      0.595D-09       -40.21594910     52.619509    0.00158   -0.00108   -0.00048    0    orth

 Final occupancy:   5

 !RHF STATE  1.1 Energy               -40.215949095454
 Nuclear energy                        13.68681606
 One-electron energy                  -80.21251985
 Two-electron energy                   26.30975470
 Virial quotient                       -0.99838093
 !RHF STATE  1.1 Dipole moment          0.00158150    -0.00107657    -0.00047779
 Dipole moment /Debye                   0.00401950    -0.00273619    -0.00121433

 Orbital energies:

         1.1          2.1          3.1          4.1          5.1          6.1          7.1
    -11.196224    -0.950662    -0.551889    -0.549955    -0.547776     0.023796     0.035868


 HOMO      5.1    -0.547776 =     -14.9057eV
 LUMO      6.1     0.023796 =       0.6475eV
 LUMO-HOMO         0.571572 =      15.5533eV


 **********************************************************************************************************************************
 DATASETS  * FILE   NREC   LENGTH (MB)   RECORD NAMES
              1      18       37.06       500      610      700      900      950      970     1000      129      960     1100   
                                          VAR    BASINP    GEOM    SYMINP    ZMAT    AOBASIS   BASIS     P2S    ABASIS      S 
                                         1400     1410     1200     1210     1080     1600     1650     1700   
                                           T        V       H0       H01     AOSYM     SMH    MOLCAS    OPER   

              2       7       27.51       700     1000      520     2100      200     2101     2102   
                                         GEOM     BASIS   MCVARS     RHF    OPTIONS    RHF      RHF  

 PROGRAMS   *        TOTAL    HF-SCF       INT   CCSD(T)    HF-SCF       INT   CCSD(T)    HF-SCF       INT
 CPU TIMES  *      8001.19    167.88      0.39   1350.55    198.06      0.37   5876.85    211.19    195.66
 REAL TIME  *      8293.58 SEC
 DISK USED  *         3.24 GB (local),       76.88 GB (total)
 SF USED    *         3.08 GB
 GA USED    *         0.00 MB       (max)       0.00 MB       (current)
 **********************************************************************************************************************************

 Basis set:  JKFIT                   
 Basis size:   740
 Attributes:
 Sphericals:   T
 Basis set:  MP2FIT                  
 Basis size:   816
 Attributes:
 Sphericals:   T
 Basis set:  RI                      
 Basis size:   556
 Attributes:
 Sphericals:   T
 Basis set:  TDDFT                   
 Basis size:   816
 Attributes:
 Sphericals:   T

 PROGRAM * CCSD (Closed-shell coupled cluster)     Authors: C. Hampel, H.-J. Werner, 1991, M. Deegan, P.J. Knowles, 1992


 Convergence thresholds:  THRVAR = 1.00D-08  THRDEN = 1.00D-10

 CCSD(T)     terms to be evaluated (factor= 1.000)


 Number of core orbitals:           1 (   1 )
 Number of closed-shell orbitals:   4 (   4 )
 Number of external orbitals:     431 ( 431 )

 Molecular orbitals read from record     2102.2  Type=RHF/CANONICAL (state 1.1)

 Number of N-1 electron functions:               4
 Number of N-2 electron functions:              10
 Number of singly external CSFs:              1724
 Number of doubly external CSFs:           1486950
 Total number of CSFs:                     1488675

 Length of J-op  integral file:               0.00 MB
 Length of K-op  integral file:              13.08 MB
 Length of 3-ext integral record:             0.00 MB

 Memory could be reduced to 526.20 Mwords without degradation in triples

 Integral transformation finished. Total CPU: 163.01 sec, npass=  1  Memory used: 214.76 MW

 Reference energy:                    -40.21594910

 MP2 singlet pair energy:              -0.15442525
 MP2 triplet pair energy:              -0.05646310
 MP2 correlation energy:               -0.21088835
 MP2 total energy:                    -40.42683744

 SCS-MP2 correlation energy:           -0.22044289   (PS=  1.200000  PT=  0.333333)
 SCS-MP2 total energy:                -40.43639199

 ITER.      SQ.NORM     CORR.ENERGY   TOTAL ENERGY   ENERGY CHANGE        DEN1      VAR(S)    VAR(P)  DIIS     TIME  TIME/IT
   1      1.07097445    -0.22687550   -40.44282460    -0.01598715    -0.01040011  0.55D-03  0.97D-03  1  1   210.70    48.55
   2      1.07611970    -0.22797555   -40.44392464    -0.00110005    -0.00547172  0.14D-04  0.91D-04  2  2   258.59    49.03
   3      1.07764072    -0.22801478   -40.44396387    -0.00003923    -0.00107296  0.18D-05  0.58D-05  3  3   307.38    49.48
   4      1.07800042    -0.22802047   -40.44396957    -0.00000569    -0.00017105  0.12D-06  0.28D-06  4  4   354.56    49.33
   5      1.07804844    -0.22802236   -40.44397145    -0.00000189    -0.00001301  0.10D-07  0.20D-07  5  5   399.75    48.79
   6      1.07805667    -0.22802113   -40.44397023     0.00000123    -0.00000329  0.62D-09  0.14D-08  6  6   444.88    48.41
   7      1.07805769    -0.22802085   -40.44396995     0.00000028    -0.00000054  0.45D-10  0.11D-09  6  1   490.84    48.27
   8      1.07805763    -0.22802090   -40.44397000    -0.00000005     0.00000023  0.43D-11  0.57D-11  6  3   536.93    48.17
   9      1.07805775    -0.22802089   -40.44396998     0.00000002    -0.00000008  0.35D-12  0.47D-12  6  2   582.96    48.10
  10      1.07805776    -0.22802088   -40.44396998     0.00000000     0.00000000  0.43D-13  0.51D-13  6  4   628.88    48.03
  11      1.07805776    -0.22802088   -40.44396998     0.00000000     0.00000000  0.41D-14  0.53D-14  6  5   674.84    47.98
  12      1.07805776    -0.22802088   -40.44396998     0.00000000     0.00000000  0.86D-16  0.57D-15  6  6   720.61    47.93
  13      1.07805776    -0.22802088   -40.44396998    -0.00000000     0.00000000  0.68D-17  0.56D-16  6  1   766.67    47.90
  14      1.07805776    -0.22802088   -40.44396998    -0.00000000     0.00000000  0.10D-17  0.77D-17  6  3   812.90    47.88

 Norm of t1 vector:      0.03128236      S-energy:    -0.00000000      T1 diagnostic:  0.00782059
                                                                       D1 diagnostic:  0.01257181

 Total CPU time for triples:    437.32 sec


 RESULTS
 =======

  Reference energy                    -40.215949095455
  CCSD singlet pair energy             -0.173325924834
  CCSD triplet pair energy             -0.054694958089
  CCSD correlation energy              -0.228020882927

  Triples (T) contribution             -0.006881844227
  Total correlation energy             -0.234902727154

  CCSD total energy                   -40.443969978381
  CCSD[T] energy                      -40.451064969714
  CCSD-T energy                       -40.450784215534
 !CCSD(T) total energy                -40.450851822608

 Timing summary (sec):

 STEP                 CPU(USER)    SYS     CPU(TOT)    WALL
 Transformation        163.38      4.39    167.77    168.06
 CCSD iterations       649.62     20.11    669.73    670.52
 Triples               437.32      1.14    438.46    438.99

 Program statistics:

 Available memory in ccsd:              1999999916
 Min. memory needed in ccsd:               6768234
 Max. memory used in ccsd:                 7865440
 Max. memory used in cckext:               5182436 (14 integral passes)



 **********************************************************************************************************************************
 DATASETS  * FILE   NREC   LENGTH (MB)   RECORD NAMES
              1      19     1346.95       500      610      700      900      950      970     1000      129      960     1100   
                                          VAR    BASINP    GEOM    SYMINP    ZMAT    AOBASIS   BASIS     P2S    ABASIS      S 
                                         1400     1410     1200     1210     1080     1600     1650     1700     1380   
                                           T        V       H0       H01     AOSYM     SMH    MOLCAS    OPER     JKOP   

              2       7       27.51       700     1000      520     2100      200     2101     2102   
                                         GEOM     BASIS   MCVARS     RHF    OPTIONS    RHF      RHF  

 PROGRAMS   *        TOTAL   CCSD(T)    HF-SCF       INT   CCSD(T)    HF-SCF       INT   CCSD(T)    HF-SCF       INT
 CPU TIMES  *      9251.73   1250.54    167.88      0.39   1350.55    198.06      0.37   5876.85    211.19    195.66
 REAL TIME  *      9572.15 SEC
 DISK USED  *         3.24 GB (local),       76.88 GB (total)
 SF USED    *         3.08 GB
 GA USED    *         0.00 MB       (max)       0.00 MB       (current)
 **********************************************************************************************************************************
 Molecular orbitals read from record     2102.2  Type=RHF/CANONICAL (state 1.1)
 Occupation numbers read from record     2102.2  Type=RHF/RHF (state 1.1)
 Orbital energies read from record       2102.2  Type=RHF/CANONICAL (state 1.1)
 Redundancy group numbers read from rec  2102.2  Type=RHF/RHF (state 1.1)

 CCSD(T)/aug-cc-pVQZ energy=    -40.450851822608

         CCSD(T)          HF-SCF         CCSD(T)          HF-SCF         CCSD(T)          HF-SCF
    -40.45085182    -40.21594910    -76.36280480    -76.06376495   -116.81395955   -116.27943985
 **********************************************************************************************************************************
 Molpro calculation terminated
