
 Primary working directories    : /scratch/klimes/383109/molpro.hP8qcfKFAg
 Secondary working directories  : /scratch/klimes/383109/molpro.hP8qcfKFAg
 Wavefunction directory         : /scratch/klimes/383109/
 Main file repository           : /scratch/klimes/383109/molpro.hP8qcfKFAg/

 id        : karlovklimes

 Nodes                      nprocs
 nc-20.cc.karlov.mff.cuni.cz    4

 Using customized tuning parameters: mindgm=1; mindgv=20; mindgc=4; mindgr=1; noblas=0; minvec=7
 default implementation of scratch files=sf  


 Variables initialized (930), CPU time= 0.01 sec
                                                                                 !gdirect
 memory,2000,m
 gthresh,orbital=1d-10,energy=1d-10,grid=1d-8
 
 symmetry,nosym
 angstrom
 geometry={
 O6        -0.534600000000      4.167800000000      1.543100000000
 H11        -0.433700000000      3.518000000000      2.262500000000
 H12        -0.341300000000      3.668400000000      0.725200000000
 C1        -3.277200000000      1.482500000000      1.271900000000
 H41        -2.464000000000      0.899600000000      1.651000000000
 H42        -3.160800000000      2.501000000000      1.578500000000
 H43        -4.201800000000      1.099200000000      1.650100000000
 H44        -3.268500000000      1.421000000000      0.203700000000
 }
 
 nkerna=1
 nkernb=1
 
 gf=0
 sing=1
 thrdum=1d-4
 gridthr=1d-8
 
 basis={
 set,orbital
 default,avqz
 set,jkfit
 default,avqz/jkfit
 set,mp2fit
 default,avqz/mp2fit
 set,ri
 default,avqz/optri
 set,tddft
 default,avqz/mp2fit
 }
 
 proc set_monomer1
 dummy,4,5,6,7,8
 endproc
 
 proc set_monomer2
 dummy,1,2,3
 endproc
 
                                                                                 !1234 energy
 {hf,accu=1.d-16}
 ccsd(t)
 
 set_monomer1
 {hf,accu=1.d-16}
 ccsd(t)
 
 set_monomer2
 {hf,accu=1.d-16}
 ccsd(t)
 
 Commands  initialized (760), CPU time= 0.01 sec, 617 directives.
 Default parameters read. Elapsed time= 0.25 sec

 Checking input...
 Passed
1


                                         ***  PROGRAM SYSTEM MOLPRO  ***
                                       Copyright, TTI GmbH Stuttgart, 2015
                                    Version 2019.1 linked Jan 14 2019 13:09:19


 **********************************************************************************************************************************
 LABEL *                                                                                 
  64 bit mpp version                                                                     DATE: 11-Mar-20          TIME: 13:21:26  
 **********************************************************************************************************************************

 SHA1:             d688ac825633d238f2093ded1675ba87ccd55965
 **********************************************************************************************************************************

 THRESHOLDS:

 ZERO    =  1.00D-12  ONEINT  =  1.00D-12  TWOINT  =  1.00D-11  PREFAC  =  1.00D-14  XXXXXX  =  1.00D-09  EORDER  =  1.00D-04
 ENERGY  =  1.00D-10  ETEST   =  0.00D+00  EDENS   =  0.00D+00  THRDEDEF=  1.00D-06  GRADIENT=  1.00D-02  STEP    =  1.00D-03
 ORBITAL =  1.00D-10  CIVEC   =  1.00D-05  COEFF   =  1.00D-04  PRINTCI =  5.00D-02  PUNCHCI =  9.90D+01  OPTGRAD =  3.00D-04
 OPTENERG=  1.00D-06  OPTSTEP =  3.00D-04  THRGRAD =  1.00D-10  COMPRESS=  1.00D-11  VARMIN  =  1.00D-07  VARMAX  =  1.00D-03
 THRDOUB =  0.00D+00  THRDIV  =  1.00D-05  THRRED  =  1.00D-07  THRPSP  =  1.00D+00  THRDC   =  1.00D-10  THRCS   =  1.00D-10
 THRNRM  =  1.00D-08  THREQ   =  0.00D+00  THRDE   =  1.00D+00  THRREF  =  1.00D-05  SPARFAC =  1.00D+00  THRDLP  =  1.00D-07
 THRDIA  =  1.00D-10  THRDLS  =  1.00D-07  THRGPS  =  0.00D+00  THRKEX  =  0.00D+00  THRDIS  =  2.00D-01  THRVAR  =  1.00D-10
 THRLOC  =  1.00D-06  THRGAP  =  1.00D-06  THRLOCT = -1.00D+00  THRGAPT = -1.00D+00  THRORB  =  1.00D-06  THRMLTP =  0.00D+00
 THRCPQCI=  1.00D-10  KEXTA   =  0.00D+00  THRCOARS=  0.00D+00  SYMTOL  =  1.00D-06  GRADTOL =  1.00D-06  THROVL  =  1.00D-08
 THRORTH =  1.00D-08  GRID    =  1.00D-08  GRIDMAX =  1.00D-03  DTMAX   =  0.00D+00  THROCCDE=  1.00D-01  THROCCDE=  1.00D-01
 THRPRINT=  2.50D-01


 Variable memory set to 2000000000 words,  buffer space 

 ZSYMEL=NOSYM
 ZUNIT=ANG


Geometry recognized as XYZ

 SETTING NKERNA         =         1.00000000                                  
 SETTING NKERNB         =         1.00000000                                  
 SETTING GF             =     0.00000000D+00                                  
 SETTING SING           =         1.00000000                                  
 SETTING THRDUM         =     1.00000000D-04                                  
 SETTING GRIDTHR        =     1.00000000D-08                                  
 SETTING BASIS          =    AVQZ


 Recomputing integrals since basis changed


 Using spherical harmonics

 Library entry O      S aug-cc-pVQZ          selected for orbital group  1
 Library entry O      P aug-cc-pVQZ          selected for orbital group  1
 Library entry O      D aug-cc-pVQZ          selected for orbital group  1
 Library entry O      F aug-cc-pVQZ          selected for orbital group  1
 Library entry O      G aug-cc-pVQZ          selected for orbital group  1
 Library entry H      S aug-cc-pVQZ          selected for orbital group  2
 Library entry H      P aug-cc-pVQZ          selected for orbital group  2
 Library entry H      D aug-cc-pVQZ          selected for orbital group  2
 Library entry H      F aug-cc-pVQZ          selected for orbital group  2
 Library entry C      S aug-cc-pVQZ          selected for orbital group  3
 Library entry C      P aug-cc-pVQZ          selected for orbital group  3
 Library entry C      D aug-cc-pVQZ          selected for orbital group  3
 Library entry C      F aug-cc-pVQZ          selected for orbital group  3
 Library entry C      G aug-cc-pVQZ          selected for orbital group  3


 PROGRAM * SEWARD (Integral evaluation for generally contracted gaussian basis sets)     Author: Roland Lindh, 1990

 Geometry written to block  1 of record 700


 Point group  C1  



 ATOMIC COORDINATES

 NR  ATOM    CHARGE       X              Y              Z

   1  O6      8.00   -1.010247586    7.876000542    2.916036383
   2  H11     1.00   -0.819574220    6.648056506    4.275505357
   3  H12     1.00   -0.644963526    6.932271315    1.370429386
   4  C1      6.00   -6.193010455    2.801518980    2.403542658
   5  H41     1.00   -4.656285171    1.699997622    3.119937832
   6  H42     1.00   -5.973046335    4.726205038    2.982932688
   7  H43     1.00   -7.940251230    2.077186956    3.118237078
   8  H44     1.00   -6.176569838    2.685300823    0.384937212

 Bond lengths in Bohr (Angstrom)

 1-2  1.841835709  1-3  1.847419359  4-5  2.021904040  4-6  2.022002335  4-7  2.021953343
     ( 0.974657483)     ( 0.977612224)     ( 1.069945541)     ( 1.069997556)     ( 1.069971630)

 4-8  2.022015060
     ( 1.070004290)

 Bond angles

  2-1-3  104.86126985   5-4-6  109.53398059   5-4-7  109.65604535   5-4-8  108.43490854

  6-4-7  109.49436728   6-4-8  109.86987750   7-4-8  109.83468330

 NUCLEAR CHARGE:                   20
 NUMBER OF PRIMITIVE AOS:         578
 NUMBER OF SYMMETRY AOS:          474
 NUMBER OF CONTRACTIONS:          436   (  436A   )
 NUMBER OF CORE ORBITALS:           2   (    2A   )
 NUMBER OF VALENCE ORBITALS:       14   (   14A   )


 NUCLEAR REPULSION ENERGY   36.57703656


 Basis set:  JKFIT                   
 Basis size:   740
 Attributes:
 Sphericals:   T
 Basis set:  MP2FIT                  
 Basis size:   816
 Attributes:
 Sphericals:   T
 Basis set:  RI                      
 Basis size:   556
 Attributes:
 Sphericals:   T
 Basis set:  TDDFT                   
 Basis size:   816
 Attributes:
 Sphericals:   T

 **********************************************************************************************************************************


 Eigenvalues of metric

         1 0.150E-04 0.241E-04 0.337E-04 0.373E-04 0.620E-04 0.842E-04 0.954E-04 0.104E-03


 Contracted 2-electron integrals neglected if value below      1.0D-14
 AO integral compression algorithm  1   Integral accuracy      1.0D-14

     23489.413 MB (compressed) written to integral file ( 58.6%)

     Node minimum: 5399.118 MB, node maximum: 6701.187 MB


 NUMBER OF SORTED TWO-ELECTRON INTEGRALS: 1134451344.     BUFFER LENGTH:  32768
 NUMBER OF SEGMENTS:  36  SEGMENT LENGTH:   31999984      RECORD LENGTH: 524288

 Memory used in sort:      32.56 MW

 SORT1 READ  5012305700. AND WROTE   978471683. INTEGRALS IN   2819 RECORDS. CPU TIME:   127.83 SEC, REAL TIME:   146.93 SEC
 SORT2 READ  3914171127. AND WROTE  4537853011. INTEGRALS IN 102252 RECORDS. CPU TIME:    16.37 SEC, REAL TIME:   155.06 SEC

 Node minimum:  1134427528.  Node maximum:  1134498978. integrals

 OPERATOR DM      FOR CENTER  0  COORDINATES:    0.000000    0.000000    0.000000


 **********************************************************************************************************************************
 DATASETS  * FILE   NREC   LENGTH (MB)   RECORD NAMES
              1      18       37.06       500      610      700      900      950      970     1000      129      960     1100   
                                          VAR    BASINP    GEOM    SYMINP    ZMAT    AOBASIS   BASIS     P2S    ABASIS      S 
                                         1400     1410     1200     1210     1080     1600     1650     1700   
                                           T        V       H0       H01     AOSYM     SMH    MOLCAS    OPER   

 PROGRAMS   *        TOTAL       INT
 CPU TIMES  *       209.29    209.06
 REAL TIME  *       378.43 SEC
 DISK USED  *        37.58 MB (local),       70.38 GB (total)
 GA USED    *         0.00 MB       (max)       0.00 MB       (current)
 **********************************************************************************************************************************


 PROGRAM * RHF-SCF (CLOSED SHELL)       Authors: W. Meyer, H.-J. Werner


 NUMBER OF ELECTRONS:      10+   10-    SPACE SYMMETRY=1    SPIN SYMMETRY: Singlet 
 CONVERGENCE THRESHOLDS:    1.00E-08 (Density)    1.00E-11 (Energy)
 MAX. NUMBER OF ITERATIONS:       60
 INTERPOLATION TYPE:            DIIS
 INTERPOLATION STEPS:              2 (START)      1 (STEP)
 LEVEL SHIFTS:                  0.00 (CLOSED)  0.00 (OPEN) 



 Orbital guess generated from atomic densities. Full valence occupancy:   16

 Molecular orbital dump at record        2100.2

 Initial occupancy:  10

 ITERATION    DDIFF          GRAD             ENERGY        2-EL.EN.            DIPOLE MOMENTS         DIIS   ORB.
    1      0.000D+00      0.000D+00      -116.22189362    158.567634    0.29094   -1.11220   -0.09783    0    start
    2      0.000D+00      0.378D-02      -116.26576856    153.751931    0.13500   -0.62374   -0.05738    1    diag
    3      0.273D-02      0.221D-02      -116.27914365    155.762321    0.17591   -0.74515   -0.06685    2    diag
    4      0.944D-03      0.330D-03      -116.27979769    155.650215    0.17411   -0.73349   -0.06526    3    diag
    5      0.204D-03      0.963D-04      -116.27986610    155.644596    0.17342   -0.73264   -0.06496    4    diag
    6      0.826D-04      0.235D-04      -116.27986995    155.650302    0.17310   -0.73175   -0.06479    5    diag
    7      0.225D-04      0.472D-05      -116.27987018    155.648609    0.17308   -0.73174   -0.06476    6    diag
    8      0.665D-05      0.119D-05      -116.27987020    155.648780    0.17304   -0.73168   -0.06475    7    diag
    9      0.147D-05      0.276D-06      -116.27987020    155.648753    0.17304   -0.73166   -0.06475    8    diag
   10      0.410D-06      0.327D-07      -116.27987020    155.648755    0.17304   -0.73166   -0.06475    9    orth
   11      0.443D-07      0.776D-08      -116.27987020    155.648756    0.17304   -0.73166   -0.06475    9    diag
   12      0.902D-08      0.204D-08      -116.27987020    155.648757    0.17304   -0.73166   -0.06475    0    orth

 Final occupancy:  10

 !RHF STATE  1.1 Energy              -116.279870201796
 Nuclear energy                        36.57703656
 One-electron energy                 -230.68128502
 Two-electron energy                   77.82437826
 Virial quotient                       -1.00063884
 !RHF STATE  1.1 Dipole moment          0.17303625    -0.73165635    -0.06474861
 Dipole moment /Debye                   0.43978548    -1.85956314    -0.16456378

 Orbital energies:

         1.1          2.1          3.1          4.1          5.1          6.1          7.1          8.1          9.1         10.1
    -20.567228   -11.198495    -1.342709    -0.953391    -0.707832    -0.580559    -0.554623    -0.552643    -0.551064    -0.507721

        11.1         12.1
      0.022833     0.037080


 HOMO     10.1    -0.507721 =     -13.8158eV
 LUMO     11.1     0.022833 =       0.6213eV
 LUMO-HOMO         0.530554 =      14.4371eV


 **********************************************************************************************************************************
 DATASETS  * FILE   NREC   LENGTH (MB)   RECORD NAMES
              1      18       37.06       500      610      700      900      950      970     1000      129      960     1100   
                                          VAR    BASINP    GEOM    SYMINP    ZMAT    AOBASIS   BASIS     P2S    ABASIS      S 
                                         1400     1410     1200     1210     1080     1600     1650     1700   
                                           T        V       H0       H01     AOSYM     SMH    MOLCAS    OPER   

              2       4        6.75       700     1000      520     2100   
                                         GEOM     BASIS   MCVARS     RHF  

 PROGRAMS   *        TOTAL    HF-SCF       INT
 CPU TIMES  *       408.96    199.67    209.06
 REAL TIME  *       605.69 SEC
 DISK USED  *        57.63 MB (local),       70.46 GB (total)
 SF USED    *         0.76 MB
 GA USED    *         0.00 MB       (max)       0.00 MB       (current)
 **********************************************************************************************************************************

 Basis set:  JKFIT                   
 Basis size:   740
 Attributes:
 Sphericals:   T
 Basis set:  MP2FIT                  
 Basis size:   816
 Attributes:
 Sphericals:   T
 Basis set:  RI                      
 Basis size:   556
 Attributes:
 Sphericals:   T
 Basis set:  TDDFT                   
 Basis size:   816
 Attributes:
 Sphericals:   T

 PROGRAM * CCSD (Closed-shell coupled cluster)     Authors: C. Hampel, H.-J. Werner, 1991, M. Deegan, P.J. Knowles, 1992


 Convergence thresholds:  THRVAR = 1.00D-08  THRDEN = 1.00D-10

 CCSD(T)     terms to be evaluated (factor= 1.000)


 Number of core orbitals:           2 (   2 )
 Number of closed-shell orbitals:   8 (   8 )
 Number of external orbitals:     426 ( 426 )

 Molecular orbitals read from record     2100.2  Type=RHF/CANONICAL (state 1.1)

 Number of N-1 electron functions:               8
 Number of N-2 electron functions:              36
 Number of singly external CSFs:              3408
 Number of doubly external CSFs:           5808936
 Total number of CSFs:                     5812345

 Length of J-op  integral file:               0.00 MB
 Length of K-op  integral file:              13.08 MB
 Length of 3-ext integral record:             0.00 MB

 Memory could be reduced to 828.85 Mwords without degradation in triples

 Integral transformation finished. Total CPU: 301.29 sec, npass=  1  Memory used: 389.48 MW

 Reference energy:                   -116.27987020

 MP2 singlet pair energy:              -0.34066271
 MP2 triplet pair energy:              -0.15834266
 MP2 correlation energy:               -0.49900537
 MP2 total energy:                   -116.77887557

 SCS-MP2 correlation energy:           -0.50731957   (PS=  1.200000  PT=  0.333333)
 SCS-MP2 total energy:               -116.78718978

 ITER.      SQ.NORM     CORR.ENERGY   TOTAL ENERGY   ENERGY CHANGE        DEN1      VAR(S)    VAR(P)  DIIS     TIME  TIME/IT
   1      1.13547648    -0.51674999  -116.79662019    -0.01774462    -0.00631921  0.14D-02  0.20D-02  1  1   459.18   158.34
   2      1.14402539    -0.51810139  -116.79797159    -0.00135140    -0.01018234  0.27D-04  0.25D-03  2  2   617.71   159.46
   3      1.14721851    -0.51822153  -116.79809174    -0.00012014    -0.00224774  0.12D-04  0.12D-04  3  3   776.31   159.87
   4      1.14806913    -0.51822376  -116.79809396    -0.00000222    -0.00040498  0.58D-06  0.12D-05  4  4   935.20   160.11
   5      1.14822530    -0.51822345  -116.79809365     0.00000031    -0.00004621  0.20D-06  0.84D-07  5  5  1093.75   160.18
   6      1.14827313    -0.51821979  -116.79808999     0.00000366    -0.00001151  0.19D-07  0.64D-08  6  6  1252.32   160.26
   7      1.14828206    -0.51821882  -116.79808902     0.00000097    -0.00000139  0.17D-08  0.94D-09  6  2  1410.99   160.30
   8      1.14828403    -0.51821867  -116.79808887     0.00000015    -0.00000005  0.34D-09  0.11D-09  6  1  1569.49   160.34
   9      1.14828490    -0.51821862  -116.79808882     0.00000005     0.00000003  0.26D-10  0.14D-10  6  3  1728.36   160.38
  10      1.14828506    -0.51821862  -116.79808882     0.00000001     0.00000005  0.27D-11  0.21D-11  6  4  1887.01   160.39
  11      1.14828503    -0.51821862  -116.79808882    -0.00000001     0.00000006  0.49D-12  0.26D-12  6  5  2046.06   160.45
  12      1.14828501    -0.51821862  -116.79808883    -0.00000000     0.00000002  0.83D-13  0.32D-13  6  6  2204.83   160.48
  13      1.14828499    -0.51821863  -116.79808883    -0.00000000     0.00000001  0.16D-13  0.49D-14  6  2  2363.15   160.47
  14      1.14828499    -0.51821863  -116.79808883    -0.00000000     0.00000000  0.24D-14  0.99D-15  6  1  2521.99   160.49
  15      1.14828499    -0.51821863  -116.79808883    -0.00000000     0.00000000  0.35D-15  0.16D-15  6  5  2680.19   160.47
  16      1.14828498    -0.51821863  -116.79808883    -0.00000000    -0.00000000  0.38D-16  0.14D-16  6  3  2838.80   160.48
  17      1.14828499    -0.51821863  -116.79808883     0.00000000    -0.00000000  0.70D-17  0.27D-17  6  4  2997.51   160.49

 Norm of t1 vector:      0.05013039      S-energy:    -0.00000000      T1 diagnostic:  0.00886189
                                                                       D1 diagnostic:  0.02065357

   CPU time for triples:   2005.97 sec for i =  1 -  7 /  8 (~  68.8 % done)
   CPU time for triples:    961.33 sec for i =  8 -  8 /  8 (  100.0 % done)

 Total CPU time for triples:   2967.44 sec


 RESULTS
 =======

  Reference energy                   -116.279870201795
  CCSD singlet pair energy             -0.373266442724
  CCSD triplet pair energy             -0.144952182674
  CCSD correlation energy              -0.518218625625

  Triples (T) contribution             -0.016587523813
  Total correlation energy             -0.534806149438

  CCSD total energy                  -116.798088827420
  CCSD[T] energy                     -116.815209940502
  CCSD-T energy                      -116.814453326292
 !CCSD(T) total energy               -116.814676351234

 Timing summary (sec):

 STEP                 CPU(USER)    SYS     CPU(TOT)    WALL
 Transformation        302.47      6.26    308.73    310.53
 CCSD iterations      2695.14     29.75   2724.89   2728.52
 Triples              2967.44      6.99   2974.43   2978.61

 Program statistics:

 Available memory in ccsd:              1999999734
 Min. memory needed in ccsd:              17010489
 Max. memory used in ccsd:                22038113
 Max. memory used in cckext:              15155228 (17 integral passes)



 **********************************************************************************************************************************
 DATASETS  * FILE   NREC   LENGTH (MB)   RECORD NAMES
              1      19     2602.11       500      610      700      900      950      970     1000      129      960     1100   
                                          VAR    BASINP    GEOM    SYMINP    ZMAT    AOBASIS   BASIS     P2S    ABASIS      S 
                                         1400     1410     1200     1210     1080     1600     1650     1700     1380   
                                           T        V       H0       H01     AOSYM     SMH    MOLCAS    OPER     JKOP   

              2       4        6.75       700     1000      520     2100   
                                         GEOM     BASIS   MCVARS     RHF  

 PROGRAMS   *        TOTAL   CCSD(T)    HF-SCF       INT
 CPU TIMES  *      6374.24   5965.28    199.67    209.06
 REAL TIME  *      6624.27 SEC
 DISK USED  *         3.24 GB (local),       81.29 GB (total)
 SF USED    *         3.08 GB
 GA USED    *         0.00 MB       (max)       0.00 MB       (current)
 **********************************************************************************************************************************

 Running procedure: SET_MONOMER1

 Dummy atoms: C1  H41  H42  H43  H44


 Recomputing one-electron integrals since nuclear charges changed


 PROGRAM * SEWARD (Integral evaluation for generally contracted gaussian basis sets)     Author: Roland Lindh, 1990

 Geometry written to block  1 of record 700


 Point group  C1  



 ATOMIC COORDINATES

 NR  ATOM    CHARGE       X              Y              Z

   1  O6      8.00   -1.010247586    7.876000542    2.916036383
   2  H11     1.00   -0.819574220    6.648056506    4.275505357
   3  H12     1.00   -0.644963526    6.932271315    1.370429386
   4  C1      0.00   -6.193010455    2.801518980    2.403542658
   5  H41     0.00   -4.656285171    1.699997622    3.119937832
   6  H42     0.00   -5.973046335    4.726205038    2.982932688
   7  H43     0.00   -7.940251230    2.077186956    3.118237078
   8  H44     0.00   -6.176569838    2.685300823    0.384937212

 Bond lengths in Bohr (Angstrom)

 1-2  1.841835709  1-3  1.847419359  4-5  2.021904040  4-6  2.022002335  4-7  2.021953343
     ( 0.974657483)     ( 0.977612224)     ( 1.069945541)     ( 1.069997556)     ( 1.069971630)

 4-8  2.022015060
     ( 1.070004290)

 Bond angles

  2-1-3  104.86126985   5-4-6  109.53398059   5-4-7  109.65604535   5-4-8  108.43490854

  6-4-7  109.49436728   6-4-8  109.86987750   7-4-8  109.83468330

 NUCLEAR CHARGE:                   10
 NUMBER OF PRIMITIVE AOS:         578
 NUMBER OF SYMMETRY AOS:          474
 NUMBER OF CONTRACTIONS:          436   (  436A   )
 NUMBER OF CORE ORBITALS:           1   (    1A   )
 NUMBER OF VALENCE ORBITALS:        6   (    6A   )

 MOLECULE CHANGED: INITIALIZING OCCUPATION AND DUMP RECORDS


 NUCLEAR REPULSION ENERGY    9.01583577

 Basis set:  JKFIT                   
 Basis size:   740
 Attributes:
 Sphericals:   T
 Basis set:  MP2FIT                  
 Basis size:   816
 Attributes:
 Sphericals:   T
 Basis set:  RI                      
 Basis size:   556
 Attributes:
 Sphericals:   T
 Basis set:  TDDFT                   
 Basis size:   816
 Attributes:
 Sphericals:   T

 Eigenvalues of metric

         1 0.150E-04 0.241E-04 0.337E-04 0.373E-04 0.620E-04 0.842E-04 0.954E-04 0.104E-03


 Contracted 2-electron integrals neglected if value below      1.0D-14

 OPERATOR DM      FOR CENTER  0  COORDINATES:    0.000000    0.000000    0.000000


 **********************************************************************************************************************************
 DATASETS  * FILE   NREC   LENGTH (MB)   RECORD NAMES
              1      18       37.06       500      610      700      900      950      970     1000      129      960     1100   
                                          VAR    BASINP    GEOM    SYMINP    ZMAT    AOBASIS   BASIS     P2S    ABASIS      S 
                                         1400     1410     1200     1210     1080     1600     1650     1700   
                                           T        V       H0       H01     AOSYM     SMH    MOLCAS    OPER   

              2       5       10.59       700     1000      520     2100      200   
                                         GEOM     BASIS   MCVARS     RHF    OPTIONS    

 PROGRAMS   *        TOTAL       INT   CCSD(T)    HF-SCF       INT
 CPU TIMES  *      6374.63      0.39   5965.28    199.67    209.06
 REAL TIME  *      6625.63 SEC
 DISK USED  *         3.24 GB (local),       81.31 GB (total)
 SF USED    *         3.08 GB
 GA USED    *         0.00 MB       (max)       0.00 MB       (current)
 **********************************************************************************************************************************


 PROGRAM * RHF-SCF (CLOSED SHELL)       Authors: W. Meyer, H.-J. Werner


 NUMBER OF ELECTRONS:       5+    5-    SPACE SYMMETRY=1    SPIN SYMMETRY: Singlet 
 CONVERGENCE THRESHOLDS:    1.00E-08 (Density)    1.00E-11 (Energy)
 MAX. NUMBER OF ITERATIONS:       60
 INTERPOLATION TYPE:            DIIS
 INTERPOLATION STEPS:              2 (START)      1 (STEP)
 LEVEL SHIFTS:                  0.00 (CLOSED)  0.00 (OPEN) 



 Orbital guess generated from atomic densities. Full valence occupancy:    7

 Molecular orbital dump at record        2101.2

 Initial occupancy:   5

 ITERATION    DDIFF          GRAD             ENERGY        2-EL.EN.            DIPOLE MOMENTS         DIIS   ORB.
    1      0.000D+00      0.000D+00       -76.02547410     77.431005    0.28478   -1.11208   -0.09630    0    start
    2      0.000D+00      0.467D-02       -76.05229440     73.785784    0.16544   -0.64640   -0.05504    1    diag
    3      0.223D-02      0.297D-02       -76.06380356     75.403021    0.19519   -0.76256   -0.06514    2    diag
    4      0.843D-03      0.278D-03       -76.06399640     75.311790    0.19401   -0.75801   -0.06457    3    diag
    5      0.106D-03      0.775D-04       -76.06401709     75.326122    0.19358   -0.75635   -0.06435    4    diag
    6      0.339D-04      0.153D-04       -76.06401841     75.325113    0.19349   -0.75599   -0.06430    5    diag
    7      0.872D-05      0.310D-05       -76.06401847     75.325259    0.19346   -0.75587   -0.06428    6    diag
    8      0.244D-05      0.583D-06       -76.06401848     75.325244    0.19345   -0.75584   -0.06427    7    diag
    9      0.445D-06      0.770D-07       -76.06401848     75.325236    0.19345   -0.75583   -0.06427    8    diag
   10      0.520D-07      0.171D-07       -76.06401848     75.325239    0.19345   -0.75583   -0.06427    9    orth
   11      0.137D-07      0.296D-08       -76.06401848     75.325238    0.19345   -0.75583   -0.06427    9    diag
   12      0.254D-08      0.478D-09       -76.06401848     75.325238    0.19345   -0.75583   -0.06427    0    orth

 Final occupancy:   5

 !RHF STATE  1.1 Energy               -76.064018476084
 Nuclear energy                         9.01583577
 One-electron energy                 -122.74247342
 Two-electron energy                   37.66261917
 Virial quotient                       -1.00188645
 !RHF STATE  1.1 Dipole moment          0.19344801    -0.75583024    -0.06427398
 Dipole moment /Debye                   0.49166359    -1.92100303    -0.16335745

 Orbital energies:

         1.1          2.1          3.1          4.1          5.1          6.1          7.1
    -20.567842    -1.343053    -0.708193    -0.580673    -0.508856     0.017259     0.034847


 HOMO      5.1    -0.508856 =     -13.8467eV
 LUMO      6.1     0.017259 =       0.4696eV
 LUMO-HOMO         0.526115 =      14.3163eV


 **********************************************************************************************************************************
 DATASETS  * FILE   NREC   LENGTH (MB)   RECORD NAMES
              1      18       37.06       500      610      700      900      950      970     1000      129      960     1100   
                                          VAR    BASINP    GEOM    SYMINP    ZMAT    AOBASIS   BASIS     P2S    ABASIS      S 
                                         1400     1410     1200     1210     1080     1600     1650     1700   
                                           T        V       H0       H01     AOSYM     SMH    MOLCAS    OPER   

              2       6       17.39       700     1000      520     2100      200     2101   
                                         GEOM     BASIS   MCVARS     RHF    OPTIONS    RHF  

 PROGRAMS   *        TOTAL    HF-SCF       INT   CCSD(T)    HF-SCF       INT
 CPU TIMES  *      6585.98    211.35      0.39   5965.28    199.67    209.06
 REAL TIME  *      6862.13 SEC
 DISK USED  *         3.24 GB (local),       81.31 GB (total)
 SF USED    *         3.08 GB
 GA USED    *         0.00 MB       (max)       0.00 MB       (current)
 **********************************************************************************************************************************

 Basis set:  JKFIT                   
 Basis size:   740
 Attributes:
 Sphericals:   T
 Basis set:  MP2FIT                  
 Basis size:   816
 Attributes:
 Sphericals:   T
 Basis set:  RI                      
 Basis size:   556
 Attributes:
 Sphericals:   T
 Basis set:  TDDFT                   
 Basis size:   816
 Attributes:
 Sphericals:   T

 PROGRAM * CCSD (Closed-shell coupled cluster)     Authors: C. Hampel, H.-J. Werner, 1991, M. Deegan, P.J. Knowles, 1992


 Convergence thresholds:  THRVAR = 1.00D-08  THRDEN = 1.00D-10

 CCSD(T)     terms to be evaluated (factor= 1.000)


 Number of core orbitals:           1 (   1 )
 Number of closed-shell orbitals:   4 (   4 )
 Number of external orbitals:     431 ( 431 )

 Molecular orbitals read from record     2101.2  Type=RHF/CANONICAL (state 1.1)

 Number of N-1 electron functions:               4
 Number of N-2 electron functions:              10
 Number of singly external CSFs:              1724
 Number of doubly external CSFs:           1486950
 Total number of CSFs:                     1488675

 Length of J-op  integral file:               0.00 MB
 Length of K-op  integral file:              13.08 MB
 Length of 3-ext integral record:             0.00 MB

 Memory could be reduced to 526.20 Mwords without degradation in triples

 Integral transformation finished. Total CPU: 161.51 sec, npass=  1  Memory used: 214.76 MW

 Reference energy:                    -76.06401848

 MP2 singlet pair energy:              -0.18607681
 MP2 triplet pair energy:              -0.10131648
 MP2 correlation energy:               -0.28739328
 MP2 total energy:                    -76.35141176

 SCS-MP2 correlation energy:           -0.28633353   (PS=  1.200000  PT=  0.333333)
 SCS-MP2 total energy:                -76.35035201

 ITER.      SQ.NORM     CORR.ENERGY   TOTAL ENERGY   ENERGY CHANGE        DEN1      VAR(S)    VAR(P)  DIIS     TIME  TIME/IT
   1      1.06425294    -0.28917158   -76.35319006    -0.00177830     0.00405241  0.84D-03  0.10D-02  1  1   208.50    47.80
   2      1.06787103    -0.28942598   -76.35344446    -0.00025440    -0.00489123  0.14D-04  0.12D-03  2  2   255.57    48.21
   3      1.06930490    -0.28950349   -76.35352197    -0.00007751    -0.00100704  0.87D-05  0.62D-05  3  3   302.33    48.30
   4      1.06976901    -0.28950266   -76.35352113     0.00000084    -0.00021723  0.48D-06  0.74D-06  4  4   349.62    48.46
   5      1.06987051    -0.28950036   -76.35351884     0.00000230    -0.00003176  0.16D-06  0.49D-07  5  5   396.78    48.47
   6      1.06990662    -0.28949735   -76.35351583     0.00000300    -0.00000825  0.17D-07  0.40D-08  6  6   443.91    48.53
   7      1.06991387    -0.28949697   -76.35351545     0.00000038    -0.00000055  0.14D-08  0.78D-09  6  1   491.21    48.56
   8      1.06991554    -0.28949688   -76.35351535     0.00000009    -0.00000003  0.24D-09  0.92D-10  6  2   537.95    48.55
   9      1.06991619    -0.28949683   -76.35351531     0.00000004     0.00000011  0.17D-10  0.80D-11  6  3   585.04    48.56
  10      1.06991634    -0.28949682   -76.35351530     0.00000001     0.00000002  0.20D-11  0.12D-11  6  4   631.96    48.55
  11      1.06991633    -0.28949682   -76.35351530    -0.00000000     0.00000002  0.44D-12  0.14D-12  6  5   679.03    48.56
  12      1.06991633    -0.28949682   -76.35351530    -0.00000000     0.00000001  0.75D-13  0.23D-13  6  6   726.03    48.56
  13      1.06991633    -0.28949683   -76.35351530    -0.00000000     0.00000000  0.14D-13  0.44D-14  6  1   772.96    48.56
  14      1.06991633    -0.28949683   -76.35351530    -0.00000000     0.00000000  0.15D-14  0.64D-15  6  2   820.17    48.57
  15      1.06991632    -0.28949683   -76.35351530    -0.00000000     0.00000000  0.17D-15  0.11D-15  6  3   867.45    48.57
  16      1.06991632    -0.28949683   -76.35351530    -0.00000000    -0.00000000  0.40D-16  0.17D-16  6  4   914.57    48.58

 Norm of t1 vector:      0.03836692      S-energy:    -0.00000000      T1 diagnostic:  0.00959173
                                                                       D1 diagnostic:  0.02003257


 Total CPU time for triples:    427.48 sec


 RESULTS
 =======

  Reference energy                    -76.064018476086
  CCSD singlet pair energy             -0.199855102961
  CCSD triplet pair energy             -0.089641723198
  CCSD correlation energy              -0.289496826238

  Triples (T) contribution             -0.009569537033
  Total correlation energy             -0.299066363270

  CCSD total energy                   -76.353515302323
  CCSD[T] energy                      -76.363400549236
  CCSD-T energy                       -76.362932283950
 !CCSD(T) total energy                -76.363084839356

 Timing summary (sec):

 STEP                 CPU(USER)    SYS     CPU(TOT)    WALL
 Transformation        161.86      4.38    166.24    166.60
 CCSD iterations       752.80     23.51    776.31    777.40
 Triples               427.48      1.07    428.55    429.17

 Program statistics:

 Available memory in ccsd:              1999999921
 Min. memory needed in ccsd:               6768234
 Max. memory used in ccsd:                 7865440
 Max. memory used in cckext:               5182436 (16 integral passes)



 **********************************************************************************************************************************
 DATASETS  * FILE   NREC   LENGTH (MB)   RECORD NAMES
              1      19     1346.95       500      610      700      900      950      970     1000      129      960     1100   
                                          VAR    BASINP    GEOM    SYMINP    ZMAT    AOBASIS   BASIS     P2S    ABASIS      S 
                                         1400     1410     1200     1210     1080     1600     1650     1700     1380   
                                           T        V       H0       H01     AOSYM     SMH    MOLCAS    OPER     JKOP   

              2       6       17.39       700     1000      520     2100      200     2101   
                                         GEOM     BASIS   MCVARS     RHF    OPTIONS    RHF  

 PROGRAMS   *        TOTAL   CCSD(T)    HF-SCF       INT   CCSD(T)    HF-SCF       INT
 CPU TIMES  *      7928.35   1342.36    211.35      0.39   5965.28    199.67    209.06
 REAL TIME  *      8236.22 SEC
 DISK USED  *         3.24 GB (local),       81.31 GB (total)
 SF USED    *         3.08 GB
 GA USED    *         0.00 MB       (max)       0.00 MB       (current)
 **********************************************************************************************************************************

 Running procedure: SET_MONOMER2

 Dummy atoms: O6  H11  H12


 Recomputing one-electron integrals since nuclear charges changed


 PROGRAM * SEWARD (Integral evaluation for generally contracted gaussian basis sets)     Author: Roland Lindh, 1990

 Geometry written to block  1 of record 700


 Point group  C1  



 ATOMIC COORDINATES

 NR  ATOM    CHARGE       X              Y              Z

   1  O6      0.00   -1.010247586    7.876000542    2.916036383
   2  H11     0.00   -0.819574220    6.648056506    4.275505357
   3  H12     0.00   -0.644963526    6.932271315    1.370429386
   4  C1      6.00   -6.193010455    2.801518980    2.403542658
   5  H41     1.00   -4.656285171    1.699997622    3.119937832
   6  H42     1.00   -5.973046335    4.726205038    2.982932688
   7  H43     1.00   -7.940251230    2.077186956    3.118237078
   8  H44     1.00   -6.176569838    2.685300823    0.384937212

 Bond lengths in Bohr (Angstrom)

 1-2  1.841835709  1-3  1.847419359  4-5  2.021904040  4-6  2.022002335  4-7  2.021953343
     ( 0.974657483)     ( 0.977612224)     ( 1.069945541)     ( 1.069997556)     ( 1.069971630)

 4-8  2.022015060
     ( 1.070004290)

 Bond angles

  2-1-3  104.86126985   5-4-6  109.53398059   5-4-7  109.65604535   5-4-8  108.43490854

  6-4-7  109.49436728   6-4-8  109.86987750   7-4-8  109.83468330

 NUCLEAR CHARGE:                   10
 NUMBER OF PRIMITIVE AOS:         578
 NUMBER OF SYMMETRY AOS:          474
 NUMBER OF CONTRACTIONS:          436   (  436A   )
 NUMBER OF CORE ORBITALS:           1   (    1A   )
 NUMBER OF VALENCE ORBITALS:        8   (    8A   )

 MOLECULE CHANGED: INITIALIZING OCCUPATION AND DUMP RECORDS


 NUCLEAR REPULSION ENERGY   13.68681606

 Basis set:  JKFIT                   
 Basis size:   740
 Attributes:
 Sphericals:   T
 Basis set:  MP2FIT                  
 Basis size:   816
 Attributes:
 Sphericals:   T
 Basis set:  RI                      
 Basis size:   556
 Attributes:
 Sphericals:   T
 Basis set:  TDDFT                   
 Basis size:   816
 Attributes:
 Sphericals:   T

 Eigenvalues of metric

         1 0.150E-04 0.241E-04 0.337E-04 0.373E-04 0.620E-04 0.842E-04 0.954E-04 0.104E-03


 Contracted 2-electron integrals neglected if value below      1.0D-14

 OPERATOR DM      FOR CENTER  0  COORDINATES:    0.000000    0.000000    0.000000


 **********************************************************************************************************************************
 DATASETS  * FILE   NREC   LENGTH (MB)   RECORD NAMES
              1      18       37.06       500      610      700      900      950      970     1000      129      960     1100   
                                          VAR    BASINP    GEOM    SYMINP    ZMAT    AOBASIS   BASIS     P2S    ABASIS      S 
                                         1400     1410     1200     1210     1080     1600     1650     1700   
                                           T        V       H0       H01     AOSYM     SMH    MOLCAS    OPER   

              2       6       17.39       700     1000      520     2100      200     2101   
                                         GEOM     BASIS   MCVARS     RHF    OPTIONS    RHF  

 PROGRAMS   *        TOTAL       INT   CCSD(T)    HF-SCF       INT   CCSD(T)    HF-SCF       INT
 CPU TIMES  *      7928.73      0.37   1342.36    211.35      0.39   5965.28    199.67    209.06
 REAL TIME  *      8237.28 SEC
 DISK USED  *         3.24 GB (local),       81.31 GB (total)
 SF USED    *         3.08 GB
 GA USED    *         0.00 MB       (max)       0.00 MB       (current)
 **********************************************************************************************************************************


 PROGRAM * RHF-SCF (CLOSED SHELL)       Authors: W. Meyer, H.-J. Werner


 NUMBER OF ELECTRONS:       5+    5-    SPACE SYMMETRY=1    SPIN SYMMETRY: Singlet 
 CONVERGENCE THRESHOLDS:    1.00E-08 (Density)    1.00E-11 (Energy)
 MAX. NUMBER OF ITERATIONS:       60
 INTERPOLATION TYPE:            DIIS
 INTERPOLATION STEPS:              2 (START)      1 (STEP)
 LEVEL SHIFTS:                  0.00 (CLOSED)  0.00 (OPEN) 



 Orbital guess generated from atomic densities. Full valence occupancy:    9

 Molecular orbital dump at record        2102.2

 Initial occupancy:   5

 ITERATION    DDIFF          GRAD             ENERGY        2-EL.EN.            DIPOLE MOMENTS         DIIS   ORB.
    1      0.000D+00      0.000D+00       -40.19609602     53.506292    0.00410   -0.00276   -0.00131    0    start
    2      0.000D+00      0.257D-02       -40.21335019     52.217621    0.00129   -0.00088   -0.00040    1    diag
    3      0.158D-02      0.998D-03       -40.21562613     52.672081    0.00182   -0.00124   -0.00056    2    diag
    4      0.444D-03      0.249D-03       -40.21594559     52.617268    0.00162   -0.00110   -0.00050    3    diag
    5      0.166D-03      0.322D-04       -40.21595108     52.619416    0.00159   -0.00109   -0.00049    4    diag
    6      0.414D-04      0.264D-05       -40.21595112     52.619552    0.00159   -0.00108   -0.00049    5    diag
    7      0.558D-05      0.212D-06       -40.21595112     52.619513    0.00159   -0.00108   -0.00049    6    diag
    8      0.215D-06      0.170D-07       -40.21595112     52.619514    0.00159   -0.00108   -0.00049    7    diag
    9      0.827D-07      0.217D-08       -40.21595112     52.619514    0.00159   -0.00108   -0.00049    8    diag
   10      0.844D-08      0.593D-09       -40.21595112     52.619514    0.00159   -0.00108   -0.00049    0    orth

 Final occupancy:   5

 !RHF STATE  1.1 Energy               -40.215951120757
 Nuclear energy                        13.68681606
 One-electron energy                  -80.21252416
 Two-electron energy                   26.30975698
 Virial quotient                       -0.99838109
 !RHF STATE  1.1 Dipole moment          0.00158884    -0.00108373    -0.00048794
 Dipole moment /Debye                   0.00403815    -0.00275438    -0.00124013

 Orbital energies:

         1.1          2.1          3.1          4.1          5.1          6.1          7.1
    -11.196224    -0.950661    -0.551890    -0.549955    -0.547775     0.024930     0.037299


 HOMO      5.1    -0.547775 =     -14.9057eV
 LUMO      6.1     0.024930 =       0.6784eV
 LUMO-HOMO         0.572705 =      15.5841eV


 **********************************************************************************************************************************
 DATASETS  * FILE   NREC   LENGTH (MB)   RECORD NAMES
              1      18       37.06       500      610      700      900      950      970     1000      129      960     1100   
                                          VAR    BASINP    GEOM    SYMINP    ZMAT    AOBASIS   BASIS     P2S    ABASIS      S 
                                         1400     1410     1200     1210     1080     1600     1650     1700   
                                           T        V       H0       H01     AOSYM     SMH    MOLCAS    OPER   

              2       7       27.51       700     1000      520     2100      200     2101     2102   
                                         GEOM     BASIS   MCVARS     RHF    OPTIONS    RHF      RHF  

 PROGRAMS   *        TOTAL    HF-SCF       INT   CCSD(T)    HF-SCF       INT   CCSD(T)    HF-SCF       INT
 CPU TIMES  *      8103.28    174.55      0.37   1342.36    211.35      0.39   5965.28    199.67    209.06
 REAL TIME  *      8426.83 SEC
 DISK USED  *         3.24 GB (local),       81.31 GB (total)
 SF USED    *         3.08 GB
 GA USED    *         0.00 MB       (max)       0.00 MB       (current)
 **********************************************************************************************************************************

 Basis set:  JKFIT                   
 Basis size:   740
 Attributes:
 Sphericals:   T
 Basis set:  MP2FIT                  
 Basis size:   816
 Attributes:
 Sphericals:   T
 Basis set:  RI                      
 Basis size:   556
 Attributes:
 Sphericals:   T
 Basis set:  TDDFT                   
 Basis size:   816
 Attributes:
 Sphericals:   T

 PROGRAM * CCSD (Closed-shell coupled cluster)     Authors: C. Hampel, H.-J. Werner, 1991, M. Deegan, P.J. Knowles, 1992


 Convergence thresholds:  THRVAR = 1.00D-08  THRDEN = 1.00D-10

 CCSD(T)     terms to be evaluated (factor= 1.000)


 Number of core orbitals:           1 (   1 )
 Number of closed-shell orbitals:   4 (   4 )
 Number of external orbitals:     431 ( 431 )

 Molecular orbitals read from record     2102.2  Type=RHF/CANONICAL (state 1.1)

 Number of N-1 electron functions:               4
 Number of N-2 electron functions:              10
 Number of singly external CSFs:              1724
 Number of doubly external CSFs:           1486950
 Total number of CSFs:                     1488675

 Length of J-op  integral file:               0.00 MB
 Length of K-op  integral file:              13.08 MB
 Length of 3-ext integral record:             0.00 MB

 Memory could be reduced to 526.20 Mwords without degradation in triples

 Integral transformation finished. Total CPU: 161.26 sec, npass=  1  Memory used: 214.76 MW

 Reference energy:                    -40.21595112

 MP2 singlet pair energy:              -0.15442802
 MP2 triplet pair energy:              -0.05646312
 MP2 correlation energy:               -0.21089114
 MP2 total energy:                    -40.42684226

 SCS-MP2 correlation energy:           -0.22044623   (PS=  1.200000  PT=  0.333333)
 SCS-MP2 total energy:                -40.43639735

 ITER.      SQ.NORM     CORR.ENERGY   TOTAL ENERGY   ENERGY CHANGE        DEN1      VAR(S)    VAR(P)  DIIS     TIME  TIME/IT
   1      1.07097414    -0.22687724   -40.44282836    -0.01598610    -0.01039895  0.55D-03  0.97D-03  1  1   207.89    47.71
   2      1.07611928    -0.22797731   -40.44392843    -0.00110007    -0.00547166  0.14D-04  0.91D-04  2  2   254.56    47.96
   3      1.07764044    -0.22801653   -40.44396765    -0.00003922    -0.00107312  0.18D-05  0.58D-05  3  3   301.07    48.00
   4      1.07800013    -0.22802222   -40.44397335    -0.00000569    -0.00017106  0.12D-06  0.28D-06  4  4   347.73    48.03
   5      1.07804816    -0.22802411   -40.44397523    -0.00000189    -0.00001302  0.10D-07  0.20D-07  5  5   394.46    48.05
   6      1.07805641    -0.22802289   -40.44397401     0.00000122    -0.00000328  0.63D-09  0.14D-08  6  6   440.81    48.04
   7      1.07805744    -0.22802261   -40.44397373     0.00000029    -0.00000055  0.46D-10  0.11D-09  6  1   487.48    48.08
   8      1.07805738    -0.22802266   -40.44397378    -0.00000005     0.00000022  0.46D-11  0.65D-11  6  3   533.89    48.07
   9      1.07805751    -0.22802264   -40.44397376     0.00000002    -0.00000008  0.39D-12  0.53D-12  6  2   580.30    48.07
  10      1.07805751    -0.22802264   -40.44397376     0.00000000     0.00000000  0.46D-13  0.56D-13  6  4   627.20    48.09
  11      1.07805752    -0.22802264   -40.44397376     0.00000000     0.00000000  0.42D-14  0.56D-14  6  5   673.73    48.09
  12      1.07805751    -0.22802264   -40.44397376     0.00000000     0.00000000  0.97D-16  0.60D-15  6  6   720.39    48.10
  13      1.07805751    -0.22802264   -40.44397376    -0.00000000     0.00000000  0.72D-17  0.58D-16  6  1   767.21    48.11
  14      1.07805751    -0.22802264   -40.44397376    -0.00000000     0.00000000  0.10D-17  0.76D-17  6  3   814.08    48.11

 Norm of t1 vector:      0.03128252      S-energy:    -0.00000000      T1 diagnostic:  0.00782063
                                                                       D1 diagnostic:  0.01257153

 Total CPU time for triples:    428.37 sec


 RESULTS
 =======

  Reference energy                    -40.215951120757
  CCSD singlet pair energy             -0.173327732290
  CCSD triplet pair energy             -0.054694905296
  CCSD correlation energy              -0.228022637591

  Triples (T) contribution             -0.006881922354
  Total correlation energy             -0.234904559944

  CCSD total energy                   -40.443973758348
  CCSD[T] energy                      -40.451068828655
  CCSD-T energy                       -40.450788072544
 !CCSD(T) total energy                -40.450855680702

 Timing summary (sec):

 STEP                 CPU(USER)    SYS     CPU(TOT)    WALL
 Transformation        161.63      4.09    165.72    166.01
 CCSD iterations       652.54     20.24    672.78    673.71
 Triples               428.37      1.08    429.45    430.08

 Program statistics:

 Available memory in ccsd:              1999999916
 Min. memory needed in ccsd:               6768234
 Max. memory used in ccsd:                 7865440
 Max. memory used in cckext:               5182436 (14 integral passes)



 **********************************************************************************************************************************
 DATASETS  * FILE   NREC   LENGTH (MB)   RECORD NAMES
              1      19     1346.95       500      610      700      900      950      970     1000      129      960     1100   
                                          VAR    BASINP    GEOM    SYMINP    ZMAT    AOBASIS   BASIS     P2S    ABASIS      S 
                                         1400     1410     1200     1210     1080     1600     1650     1700     1380   
                                           T        V       H0       H01     AOSYM     SMH    MOLCAS    OPER     JKOP   

              2       7       27.51       700     1000      520     2100      200     2101     2102   
                                         GEOM     BASIS   MCVARS     RHF    OPTIONS    RHF      RHF  

 PROGRAMS   *        TOTAL   CCSD(T)    HF-SCF       INT   CCSD(T)    HF-SCF       INT   CCSD(T)    HF-SCF       INT
 CPU TIMES  *      9346.06   1242.78    174.55      0.37   1342.36    211.35      0.39   5965.28    199.67    209.06
 REAL TIME  *      9697.58 SEC
 DISK USED  *         3.24 GB (local),       81.31 GB (total)
 SF USED    *         3.08 GB
 GA USED    *         0.00 MB       (max)       0.00 MB       (current)
 **********************************************************************************************************************************
 Molecular orbitals read from record     2102.2  Type=RHF/CANONICAL (state 1.1)
 Occupation numbers read from record     2102.2  Type=RHF/RHF (state 1.1)
 Orbital energies read from record       2102.2  Type=RHF/CANONICAL (state 1.1)
 Redundancy group numbers read from rec  2102.2  Type=RHF/RHF (state 1.1)

 CCSD(T)/aug-cc-pVQZ energy=    -40.450855680702

         CCSD(T)          HF-SCF         CCSD(T)          HF-SCF         CCSD(T)          HF-SCF
    -40.45085568    -40.21595112    -76.36308484    -76.06401848   -116.81467635   -116.27987020
 **********************************************************************************************************************************
 Molpro calculation terminated
