
 Primary working directories    : /scratch/klimes/383110/molpro.Cx3p9Pi6U9
 Secondary working directories  : /scratch/klimes/383110/molpro.Cx3p9Pi6U9
 Wavefunction directory         : /scratch/klimes/383110/
 Main file repository           : /scratch/klimes/383110/molpro.Cx3p9Pi6U9/

 id        : karlovklimes

 Nodes                      nprocs
 nc-02.cc.karlov.mff.cuni.cz    4

 Using customized tuning parameters: mindgm=1; mindgv=20; mindgc=4; mindgr=1; noblas=0; minvec=7
 default implementation of scratch files=sf  


 Variables initialized (930), CPU time= 0.01 sec
                                                                                 !gdirect
 memory,2000,m
 gthresh,orbital=1d-10,energy=1d-10,grid=1d-8
 
 symmetry,nosym
 angstrom
 geometry={
 O7        -2.308700000000     -1.513700000000      3.385000000000
 H13        -2.780100000000     -1.810400000000      2.580800000000
 H14        -2.957300000000     -0.995700000000      3.906300000000
 C1        -3.277200000000      1.482500000000      1.271900000000
 H41        -2.464000000000      0.899600000000      1.651000000000
 H42        -3.160800000000      2.501000000000      1.578500000000
 H43        -4.201800000000      1.099200000000      1.650100000000
 H44        -3.268500000000      1.421000000000      0.203700000000
 }
 
 nkerna=1
 nkernb=1
 
 gf=0
 sing=1
 thrdum=1d-4
 gridthr=1d-8
 
 basis={
 set,orbital
 default,avqz
 set,jkfit
 default,avqz/jkfit
 set,mp2fit
 default,avqz/mp2fit
 set,ri
 default,avqz/optri
 set,tddft
 default,avqz/mp2fit
 }
 
 proc set_monomer1
 dummy,4,5,6,7,8
 endproc
 
 proc set_monomer2
 dummy,1,2,3
 endproc
 
                                                                                 !1234 energy
 {hf,accu=1.d-16}
 ccsd(t)
 
 set_monomer1
 {hf,accu=1.d-16}
 ccsd(t)
 
 set_monomer2
 {hf,accu=1.d-16}
 ccsd(t)
 
 Commands  initialized (760), CPU time= 0.02 sec, 617 directives.
 Default parameters read. Elapsed time= 0.20 sec

 Checking input...
 Passed
1


                                         ***  PROGRAM SYSTEM MOLPRO  ***
                                       Copyright, TTI GmbH Stuttgart, 2015
                                    Version 2019.1 linked Jan 14 2019 13:09:19


 **********************************************************************************************************************************
 LABEL *                                                                                 
  64 bit mpp version                                                                     DATE: 11-Mar-20          TIME: 13:21:27  
 **********************************************************************************************************************************

 SHA1:             d688ac825633d238f2093ded1675ba87ccd55965
 **********************************************************************************************************************************

 THRESHOLDS:

 ZERO    =  1.00D-12  ONEINT  =  1.00D-12  TWOINT  =  1.00D-11  PREFAC  =  1.00D-14  XXXXXX  =  1.00D-09  EORDER  =  1.00D-04
 ENERGY  =  1.00D-10  ETEST   =  0.00D+00  EDENS   =  0.00D+00  THRDEDEF=  1.00D-06  GRADIENT=  1.00D-02  STEP    =  1.00D-03
 ORBITAL =  1.00D-10  CIVEC   =  1.00D-05  COEFF   =  1.00D-04  PRINTCI =  5.00D-02  PUNCHCI =  9.90D+01  OPTGRAD =  3.00D-04
 OPTENERG=  1.00D-06  OPTSTEP =  3.00D-04  THRGRAD =  1.00D-10  COMPRESS=  1.00D-11  VARMIN  =  1.00D-07  VARMAX  =  1.00D-03
 THRDOUB =  0.00D+00  THRDIV  =  1.00D-05  THRRED  =  1.00D-07  THRPSP  =  1.00D+00  THRDC   =  1.00D-10  THRCS   =  1.00D-10
 THRNRM  =  1.00D-08  THREQ   =  0.00D+00  THRDE   =  1.00D+00  THRREF  =  1.00D-05  SPARFAC =  1.00D+00  THRDLP  =  1.00D-07
 THRDIA  =  1.00D-10  THRDLS  =  1.00D-07  THRGPS  =  0.00D+00  THRKEX  =  0.00D+00  THRDIS  =  2.00D-01  THRVAR  =  1.00D-10
 THRLOC  =  1.00D-06  THRGAP  =  1.00D-06  THRLOCT = -1.00D+00  THRGAPT = -1.00D+00  THRORB  =  1.00D-06  THRMLTP =  0.00D+00
 THRCPQCI=  1.00D-10  KEXTA   =  0.00D+00  THRCOARS=  0.00D+00  SYMTOL  =  1.00D-06  GRADTOL =  1.00D-06  THROVL  =  1.00D-08
 THRORTH =  1.00D-08  GRID    =  1.00D-08  GRIDMAX =  1.00D-03  DTMAX   =  0.00D+00  THROCCDE=  1.00D-01  THROCCDE=  1.00D-01
 THRPRINT=  2.50D-01


 Variable memory set to 2000000000 words,  buffer space 

 ZSYMEL=NOSYM
 ZUNIT=ANG


Geometry recognized as XYZ

 SETTING NKERNA         =         1.00000000                                  
 SETTING NKERNB         =         1.00000000                                  
 SETTING GF             =     0.00000000D+00                                  
 SETTING SING           =         1.00000000                                  
 SETTING THRDUM         =     1.00000000D-04                                  
 SETTING GRIDTHR        =     1.00000000D-08                                  
 SETTING BASIS          =    AVQZ


 Recomputing integrals since basis changed


 Using spherical harmonics

 Library entry O      S aug-cc-pVQZ          selected for orbital group  1
 Library entry O      P aug-cc-pVQZ          selected for orbital group  1
 Library entry O      D aug-cc-pVQZ          selected for orbital group  1
 Library entry O      F aug-cc-pVQZ          selected for orbital group  1
 Library entry O      G aug-cc-pVQZ          selected for orbital group  1
 Library entry H      S aug-cc-pVQZ          selected for orbital group  2
 Library entry H      P aug-cc-pVQZ          selected for orbital group  2
 Library entry H      D aug-cc-pVQZ          selected for orbital group  2
 Library entry H      F aug-cc-pVQZ          selected for orbital group  2
 Library entry C      S aug-cc-pVQZ          selected for orbital group  3
 Library entry C      P aug-cc-pVQZ          selected for orbital group  3
 Library entry C      D aug-cc-pVQZ          selected for orbital group  3
 Library entry C      F aug-cc-pVQZ          selected for orbital group  3
 Library entry C      G aug-cc-pVQZ          selected for orbital group  3


 PROGRAM * SEWARD (Integral evaluation for generally contracted gaussian basis sets)     Author: Roland Lindh, 1990

 Geometry written to block  1 of record 700


 Point group  C1  



 ATOMIC COORDINATES

 NR  ATOM    CHARGE       X              Y              Z

   1  O7      8.00   -4.362810704   -2.860478435    6.396722932
   2  H13     1.00   -5.253627599   -3.421160176    4.877005182
   3  H14     1.00   -5.588487068   -1.881600302    7.381837160
   4  C1      6.00   -6.193010455    2.801518980    2.403542658
   5  H41     1.00   -4.656285171    1.699997622    3.119937832
   6  H42     1.00   -5.973046335    4.726205038    2.982932688
   7  H43     1.00   -7.940251230    2.077186956    3.118237078
   8  H44     1.00   -6.176569838    2.685300823    0.384937212

 Bond lengths in Bohr (Angstrom)

 1-2  1.848637551  1-3  1.852278325  4-5  2.021904040  4-6  2.022002335  4-7  2.021953343
     ( 0.978256863)     ( 0.980183478)     ( 1.069945541)     ( 1.069997556)     ( 1.069971630)

 4-8  2.022015060
     ( 1.070004290)

 Bond angles

  2-1-3  106.17843926   5-4-6  109.53398059   5-4-7  109.65604535   5-4-8  108.43490854

  6-4-7  109.49436728   6-4-8  109.86987750   7-4-8  109.83468330

 NUCLEAR CHARGE:                   20
 NUMBER OF PRIMITIVE AOS:         578
 NUMBER OF SYMMETRY AOS:          474
 NUMBER OF CONTRACTIONS:          436   (  436A   )
 NUMBER OF CORE ORBITALS:           2   (    2A   )
 NUMBER OF VALENCE ORBITALS:       14   (   14A   )


 NUCLEAR REPULSION ENERGY   36.78088270


 Basis set:  JKFIT                   
 Basis size:   740
 Attributes:
 Sphericals:   T
 Basis set:  MP2FIT                  
 Basis size:   816
 Attributes:
 Sphericals:   T
 Basis set:  RI                      
 Basis size:   556
 Attributes:
 Sphericals:   T
 Basis set:  TDDFT                   
 Basis size:   816
 Attributes:
 Sphericals:   T

 **********************************************************************************************************************************


 Eigenvalues of metric

         1 0.157E-04 0.310E-04 0.321E-04 0.350E-04 0.619E-04 0.857E-04 0.990E-04 0.105E-03


 Contracted 2-electron integrals neglected if value below      1.0D-14
 AO integral compression algorithm  1   Integral accuracy      1.0D-14

     23936.631 MB (compressed) written to integral file ( 59.7%)

     Node minimum: 5221.122 MB, node maximum: 6713.508 MB


 NUMBER OF SORTED TWO-ELECTRON INTEGRALS: 1134451344.     BUFFER LENGTH:  32768
 NUMBER OF SEGMENTS:  36  SEGMENT LENGTH:   31999984      RECORD LENGTH: 524288

 Memory used in sort:      32.56 MW

 SORT1 READ  5012305700. AND WROTE   986477269. INTEGRALS IN   2840 RECORDS. CPU TIME:   138.33 SEC, REAL TIME:   157.93 SEC
 SORT2 READ  3945906279. AND WROTE  4537853011. INTEGRALS IN  79668 RECORDS. CPU TIME:    18.90 SEC, REAL TIME:    66.56 SEC

 Node minimum:  1134427528.  Node maximum:  1134498978. integrals

 OPERATOR DM      FOR CENTER  0  COORDINATES:    0.000000    0.000000    0.000000


 **********************************************************************************************************************************
 DATASETS  * FILE   NREC   LENGTH (MB)   RECORD NAMES
              1      18       37.06       500      610      700      900      950      970     1000      129      960     1100   
                                          VAR    BASINP    GEOM    SYMINP    ZMAT    AOBASIS   BASIS     P2S    ABASIS      S 
                                         1400     1410     1200     1210     1080     1600     1650     1700   
                                           T        V       H0       H01     AOSYM     SMH    MOLCAS    OPER   

 PROGRAMS   *        TOTAL       INT
 CPU TIMES  *       232.45    232.22
 REAL TIME  *       313.21 SEC
 DISK USED  *        37.58 MB (local),       71.51 GB (total)
 GA USED    *         0.00 MB       (max)       0.00 MB       (current)
 **********************************************************************************************************************************


 PROGRAM * RHF-SCF (CLOSED SHELL)       Authors: W. Meyer, H.-J. Werner


 NUMBER OF ELECTRONS:      10+   10-    SPACE SYMMETRY=1    SPIN SYMMETRY: Singlet 
 CONVERGENCE THRESHOLDS:    1.00E-08 (Density)    1.00E-11 (Energy)
 MAX. NUMBER OF ITERATIONS:       60
 INTERPOLATION TYPE:            DIIS
 INTERPOLATION STEPS:              2 (START)      1 (STEP)
 LEVEL SHIFTS:                  0.00 (CLOSED)  0.00 (OPEN) 



 Orbital guess generated from atomic densities. Full valence occupancy:   16

 Molecular orbital dump at record        2100.2

 Initial occupancy:  10

 ITERATION    DDIFF          GRAD             ENERGY        2-EL.EN.            DIPOLE MOMENTS         DIIS   ORB.
    1      0.000D+00      0.000D+00      -116.22150858    158.982994   -1.08117    0.20865   -0.27221    0    start
    2      0.000D+00      0.377D-02      -116.26519786    154.179091   -0.59324    0.13870   -0.16369    1    diag
    3      0.272D-02      0.221D-02      -116.27854017    156.187361   -0.71520    0.15433   -0.18965    2    diag
    4      0.939D-03      0.330D-03      -116.27919666    156.074829   -0.70407    0.15098   -0.18637    3    diag
    5      0.203D-03      0.966D-04      -116.27926556    156.069149   -0.70307    0.15119   -0.18637    4    diag
    6      0.816D-04      0.237D-04      -116.27926951    156.074813   -0.70210    0.15111   -0.18624    5    diag
    7      0.222D-04      0.481D-05      -116.27926975    156.073137   -0.70207    0.15113   -0.18625    6    diag
    8      0.650D-05      0.124D-05      -116.27926977    156.073315   -0.70199    0.15114   -0.18625    7    diag
    9      0.139D-05      0.285D-06      -116.27926977    156.073287   -0.70197    0.15113   -0.18624    8    diag
   10      0.409D-06      0.346D-07      -116.27926977    156.073289   -0.70197    0.15113   -0.18624    9    orth
   11      0.449D-07      0.859D-08      -116.27926977    156.073290   -0.70197    0.15113   -0.18624    9    diag
   12      0.102D-07      0.226D-08      -116.27926977    156.073289   -0.70197    0.15113   -0.18624    9    diag
   13      0.297D-08      0.581D-09      -116.27926977    156.073290   -0.70197    0.15113   -0.18624    0    orth

 Final occupancy:  10

 !RHF STATE  1.1 Energy              -116.279269773694
 Nuclear energy                        36.78088270
 One-electron energy                 -231.09679737
 Two-electron energy                   78.03664490
 Virial quotient                       -1.00073700
 !RHF STATE  1.1 Dipole moment         -0.70197396     0.15113492    -0.18624413
 Dipole moment /Debye                  -1.78412299     0.38412149    -0.47335436

 Orbital energies:

         1.1          2.1          3.1          4.1          5.1          6.1          7.1          8.1          9.1         10.1
    -20.567195   -11.198412    -1.340462    -0.953495    -0.708722    -0.577785    -0.554902    -0.553260    -0.550776    -0.506744

        11.1         12.1
      0.022895     0.037239


 HOMO     10.1    -0.506744 =     -13.7892eV
 LUMO     11.1     0.022895 =       0.6230eV
 LUMO-HOMO         0.529639 =      14.4122eV


 **********************************************************************************************************************************
 DATASETS  * FILE   NREC   LENGTH (MB)   RECORD NAMES
              1      18       37.06       500      610      700      900      950      970     1000      129      960     1100   
                                          VAR    BASINP    GEOM    SYMINP    ZMAT    AOBASIS   BASIS     P2S    ABASIS      S 
                                         1400     1410     1200     1210     1080     1600     1650     1700   
                                           T        V       H0       H01     AOSYM     SMH    MOLCAS    OPER   

              2       4        6.75       700     1000      520     2100   
                                         GEOM     BASIS   MCVARS     RHF  

 PROGRAMS   *        TOTAL    HF-SCF       INT
 CPU TIMES  *       473.46    241.00    232.22
 REAL TIME  *       585.49 SEC
 DISK USED  *        57.63 MB (local),       71.59 GB (total)
 SF USED    *         0.76 MB
 GA USED    *         0.00 MB       (max)       0.00 MB       (current)
 **********************************************************************************************************************************

 Basis set:  JKFIT                   
 Basis size:   740
 Attributes:
 Sphericals:   T
 Basis set:  MP2FIT                  
 Basis size:   816
 Attributes:
 Sphericals:   T
 Basis set:  RI                      
 Basis size:   556
 Attributes:
 Sphericals:   T
 Basis set:  TDDFT                   
 Basis size:   816
 Attributes:
 Sphericals:   T

 PROGRAM * CCSD (Closed-shell coupled cluster)     Authors: C. Hampel, H.-J. Werner, 1991, M. Deegan, P.J. Knowles, 1992


 Convergence thresholds:  THRVAR = 1.00D-08  THRDEN = 1.00D-10

 CCSD(T)     terms to be evaluated (factor= 1.000)


 Number of core orbitals:           2 (   2 )
 Number of closed-shell orbitals:   8 (   8 )
 Number of external orbitals:     426 ( 426 )

 Molecular orbitals read from record     2100.2  Type=RHF/CANONICAL (state 1.1)

 Number of N-1 electron functions:               8
 Number of N-2 electron functions:              36
 Number of singly external CSFs:              3408
 Number of doubly external CSFs:           5808936
 Total number of CSFs:                     5812345

 Length of J-op  integral file:               0.00 MB
 Length of K-op  integral file:              13.08 MB
 Length of 3-ext integral record:             0.00 MB

 Memory could be reduced to 828.85 Mwords without degradation in triples

 Integral transformation finished. Total CPU: 373.32 sec, npass=  1  Memory used: 389.48 MW

 Reference energy:                   -116.27926977

 MP2 singlet pair energy:              -0.34079588
 MP2 triplet pair energy:              -0.15849039
 MP2 correlation energy:               -0.49928627
 MP2 total energy:                   -116.77855604

 SCS-MP2 correlation energy:           -0.50757130   (PS=  1.200000  PT=  0.333333)
 SCS-MP2 total energy:               -116.78684107

 ITER.      SQ.NORM     CORR.ENERGY   TOTAL ENERGY   ENERGY CHANGE        DEN1      VAR(S)    VAR(P)  DIIS     TIME  TIME/IT
   1      1.13566301    -0.51700766  -116.79627744    -0.01772139    -0.00626945  0.14D-02  0.20D-02  1  1   544.11   171.95
   2      1.14424890    -0.51836121  -116.79763099    -0.00135355    -0.01021364  0.27D-04  0.25D-03  2  2   715.20   173.12
   3      1.14744753    -0.51848150  -116.79775127    -0.00012028    -0.00224213  0.12D-04  0.12D-04  3  3   886.58   173.62
   4      1.14830277    -0.51848346  -116.79775324    -0.00000197    -0.00040714  0.58D-06  0.12D-05  4  4  1057.64   173.85
   5      1.14846052    -0.51848320  -116.79775297     0.00000027    -0.00004645  0.21D-06  0.85D-07  5  5  1228.47   174.04
   6      1.14850921    -0.51847949  -116.79774926     0.00000371    -0.00001177  0.20D-07  0.65D-08  6  6  1400.11   174.21
   7      1.14851857    -0.51847849  -116.79774826     0.00000100    -0.00000154  0.18D-08  0.98D-09  6  2  1570.93   174.23
   8      1.14852063    -0.51847834  -116.79774811     0.00000015    -0.00000007  0.36D-09  0.11D-09  6  1  1742.46   174.40
   9      1.14852153    -0.51847829  -116.79774806     0.00000005     0.00000003  0.29D-10  0.14D-10  6  3  1913.98   174.47
  10      1.14852155    -0.51847829  -116.79774806    -0.00000000     0.00000012  0.60D-11  0.33D-11  6  1  2085.22   174.50
  11      1.14852164    -0.51847829  -116.79774806     0.00000000     0.00000002  0.56D-12  0.26D-12  6  4  2256.36   174.47
  12      1.14852163    -0.51847829  -116.79774806    -0.00000000     0.00000001  0.11D-12  0.39D-13  6  5  2427.70   174.52
  13      1.14852162    -0.51847829  -116.79774806    -0.00000000     0.00000000  0.19D-13  0.55D-14  6  6  2598.96   174.51
  14      1.14852162    -0.51847829  -116.79774806    -0.00000000     0.00000000  0.27D-14  0.10D-14  6  2  2770.57   174.56
  15      1.14852161    -0.51847829  -116.79774806    -0.00000000     0.00000000  0.38D-15  0.16D-15  6  3  2942.14   174.65
  16      1.14852161    -0.51847829  -116.79774806    -0.00000000     0.00000000  0.63D-16  0.30D-16  6  4  3113.46   174.67
  17      1.14852161    -0.51847829  -116.79774806    -0.00000000     0.00000000  0.10D-16  0.41D-17  6  1  3285.61   174.73

 Norm of t1 vector:      0.05029672      S-energy:     0.00000000      T1 diagnostic:  0.00889129
                                                                       D1 diagnostic:  0.02071080

   CPU time for triples:   2212.63 sec for i =  1 -  7 /  8 (~  68.8 % done)
   CPU time for triples:   1045.47 sec for i =  8 -  8 /  8 (  100.0 % done)

 Total CPU time for triples:   3258.56 sec


 RESULTS
 =======

  Reference energy                   -116.279269773697
  CCSD singlet pair energy             -0.373411152968
  CCSD triplet pair energy             -0.145067136395
  CCSD correlation energy              -0.518478289266

  Triples (T) contribution             -0.016636205578
  Total correlation energy             -0.535114494844

  CCSD total energy                  -116.797748062963
  CCSD[T] energy                     -116.814919780310
  CCSD-T energy                      -116.814160085482
 !CCSD(T) total energy               -116.814384268541

 Timing summary (sec):

 STEP                 CPU(USER)    SYS     CPU(TOT)    WALL
 Transformation        374.52     14.81    389.33    390.81
 CCSD iterations      2911.22     50.41   2961.63   2970.72
 Triples              3258.56     42.47   3301.03   3306.21

 Program statistics:

 Available memory in ccsd:              1999999734
 Min. memory needed in ccsd:              17010489
 Max. memory used in ccsd:                22038113
 Max. memory used in cckext:              15155228 (17 integral passes)



 **********************************************************************************************************************************
 DATASETS  * FILE   NREC   LENGTH (MB)   RECORD NAMES
              1      19     2602.11       500      610      700      900      950      970     1000      129      960     1100   
                                          VAR    BASINP    GEOM    SYMINP    ZMAT    AOBASIS   BASIS     P2S    ABASIS      S 
                                         1400     1410     1200     1210     1080     1600     1650     1700     1380   
                                           T        V       H0       H01     AOSYM     SMH    MOLCAS    OPER     JKOP   

              2       4        6.75       700     1000      520     2100   
                                         GEOM     BASIS   MCVARS     RHF  

 PROGRAMS   *        TOTAL   CCSD(T)    HF-SCF       INT
 CPU TIMES  *      7018.00   6544.53    241.00    232.22
 REAL TIME  *      7254.03 SEC
 DISK USED  *         3.24 GB (local),       82.43 GB (total)
 SF USED    *         3.08 GB
 GA USED    *         0.00 MB       (max)       0.00 MB       (current)
 **********************************************************************************************************************************

 Running procedure: SET_MONOMER1

 Dummy atoms: C1  H41  H42  H43  H44


 Recomputing one-electron integrals since nuclear charges changed


 PROGRAM * SEWARD (Integral evaluation for generally contracted gaussian basis sets)     Author: Roland Lindh, 1990

 Geometry written to block  1 of record 700


 Point group  C1  



 ATOMIC COORDINATES

 NR  ATOM    CHARGE       X              Y              Z

   1  O7      8.00   -4.362810704   -2.860478435    6.396722932
   2  H13     1.00   -5.253627599   -3.421160176    4.877005182
   3  H14     1.00   -5.588487068   -1.881600302    7.381837160
   4  C1      0.00   -6.193010455    2.801518980    2.403542658
   5  H41     0.00   -4.656285171    1.699997622    3.119937832
   6  H42     0.00   -5.973046335    4.726205038    2.982932688
   7  H43     0.00   -7.940251230    2.077186956    3.118237078
   8  H44     0.00   -6.176569838    2.685300823    0.384937212

 Bond lengths in Bohr (Angstrom)

 1-2  1.848637551  1-3  1.852278325  4-5  2.021904040  4-6  2.022002335  4-7  2.021953343
     ( 0.978256863)     ( 0.980183478)     ( 1.069945541)     ( 1.069997556)     ( 1.069971630)

 4-8  2.022015060
     ( 1.070004290)

 Bond angles

  2-1-3  106.17843926   5-4-6  109.53398059   5-4-7  109.65604535   5-4-8  108.43490854

  6-4-7  109.49436728   6-4-8  109.86987750   7-4-8  109.83468330

 NUCLEAR CHARGE:                   10
 NUMBER OF PRIMITIVE AOS:         578
 NUMBER OF SYMMETRY AOS:          474
 NUMBER OF CONTRACTIONS:          436   (  436A   )
 NUMBER OF CORE ORBITALS:           1   (    1A   )
 NUMBER OF VALENCE ORBITALS:        6   (    6A   )

 MOLECULE CHANGED: INITIALIZING OCCUPATION AND DUMP RECORDS


 NUCLEAR REPULSION ENERGY    8.98445179

 Basis set:  JKFIT                   
 Basis size:   740
 Attributes:
 Sphericals:   T
 Basis set:  MP2FIT                  
 Basis size:   816
 Attributes:
 Sphericals:   T
 Basis set:  RI                      
 Basis size:   556
 Attributes:
 Sphericals:   T
 Basis set:  TDDFT                   
 Basis size:   816
 Attributes:
 Sphericals:   T

 Eigenvalues of metric

         1 0.157E-04 0.310E-04 0.321E-04 0.350E-04 0.619E-04 0.857E-04 0.990E-04 0.105E-03


 Contracted 2-electron integrals neglected if value below      1.0D-14

 OPERATOR DM      FOR CENTER  0  COORDINATES:    0.000000    0.000000    0.000000


 **********************************************************************************************************************************
 DATASETS  * FILE   NREC   LENGTH (MB)   RECORD NAMES
              1      18       37.06       500      610      700      900      950      970     1000      129      960     1100   
                                          VAR    BASINP    GEOM    SYMINP    ZMAT    AOBASIS   BASIS     P2S    ABASIS      S 
                                         1400     1410     1200     1210     1080     1600     1650     1700   
                                           T        V       H0       H01     AOSYM     SMH    MOLCAS    OPER   

              2       5       10.59       700     1000      520     2100      200   
                                         GEOM     BASIS   MCVARS     RHF    OPTIONS    

 PROGRAMS   *        TOTAL       INT   CCSD(T)    HF-SCF       INT
 CPU TIMES  *      7018.43      0.41   6544.53    241.00    232.22
 REAL TIME  *      7255.37 SEC
 DISK USED  *         3.24 GB (local),       82.44 GB (total)
 SF USED    *         3.08 GB
 GA USED    *         0.00 MB       (max)       0.00 MB       (current)
 **********************************************************************************************************************************


 PROGRAM * RHF-SCF (CLOSED SHELL)       Authors: W. Meyer, H.-J. Werner


 NUMBER OF ELECTRONS:       5+    5-    SPACE SYMMETRY=1    SPIN SYMMETRY: Singlet 
 CONVERGENCE THRESHOLDS:    1.00E-08 (Density)    1.00E-11 (Energy)
 MAX. NUMBER OF ITERATIONS:       60
 INTERPOLATION TYPE:            DIIS
 INTERPOLATION STEPS:              2 (START)      1 (STEP)
 LEVEL SHIFTS:                  0.00 (CLOSED)  0.00 (OPEN) 



 Orbital guess generated from atomic densities. Full valence occupancy:    7

 Molecular orbital dump at record        2101.2

 Initial occupancy:   5

 ITERATION    DDIFF          GRAD             ENERGY        2-EL.EN.            DIPOLE MOMENTS         DIIS   ORB.
    1      0.000D+00      0.000D+00       -76.02508883     77.396609   -1.08699    0.21511   -0.27399    0    start
    2      0.000D+00      0.467D-02       -76.05177326     73.739347   -0.63186    0.12477   -0.15981    1    diag
    3      0.221D-02      0.297D-02       -76.06331607     75.361505   -0.74494    0.14715   -0.18828    2    diag
    4      0.840D-03      0.278D-03       -76.06351044     75.270356   -0.74031    0.14617   -0.18722    3    diag
    5      0.105D-03      0.777D-04       -76.06353130     75.284524   -0.73856    0.14580   -0.18682    4    diag
    6      0.320D-04      0.154D-04       -76.06353265     75.283496   -0.73817    0.14572   -0.18673    5    diag
    7      0.799D-05      0.313D-05       -76.06353272     75.283645   -0.73803    0.14569   -0.18670    6    diag
    8      0.221D-05      0.598D-06       -76.06353272     75.283630   -0.73799    0.14568   -0.18669    7    diag
    9      0.413D-06      0.814D-07       -76.06353272     75.283621   -0.73799    0.14568   -0.18669    8    diag
   10      0.541D-07      0.185D-07       -76.06353272     75.283625   -0.73799    0.14568   -0.18669    9    orth
   11      0.144D-07      0.304D-08       -76.06353272     75.283624   -0.73799    0.14568   -0.18669    9    diag
   12      0.254D-08      0.487D-09       -76.06353272     75.283624   -0.73799    0.14568   -0.18669    0    orth

 Final occupancy:   5

 !RHF STATE  1.1 Energy               -76.063532724889
 Nuclear energy                         8.98445179
 One-electron energy                 -122.68979645
 Two-electron energy                   37.64181194
 Virial quotient                       -1.00205904
 !RHF STATE  1.1 Dipole moment         -0.73798752     0.14567766    -0.18669361
 Dipole moment /Debye                  -1.87565431     0.37025141    -0.47449674

 Orbital energies:

         1.1          2.1          3.1          4.1          5.1          6.1          7.1
    -20.567753    -1.340635    -0.708953    -0.577539    -0.508207     0.017210     0.035495


 HOMO      5.1    -0.508207 =     -13.8290eV
 LUMO      6.1     0.017210 =       0.4683eV
 LUMO-HOMO         0.525417 =      14.2973eV


 **********************************************************************************************************************************
 DATASETS  * FILE   NREC   LENGTH (MB)   RECORD NAMES
              1      18       37.06       500      610      700      900      950      970     1000      129      960     1100   
                                          VAR    BASINP    GEOM    SYMINP    ZMAT    AOBASIS   BASIS     P2S    ABASIS      S 
                                         1400     1410     1200     1210     1080     1600     1650     1700   
                                           T        V       H0       H01     AOSYM     SMH    MOLCAS    OPER   

              2       6       17.39       700     1000      520     2100      200     2101   
                                         GEOM     BASIS   MCVARS     RHF    OPTIONS    RHF  

 PROGRAMS   *        TOTAL    HF-SCF       INT   CCSD(T)    HF-SCF       INT
 CPU TIMES  *      7240.85    222.42      0.41   6544.53    241.00    232.22
 REAL TIME  *      7514.03 SEC
 DISK USED  *         3.24 GB (local),       82.44 GB (total)
 SF USED    *         3.08 GB
 GA USED    *         0.00 MB       (max)       0.00 MB       (current)
 **********************************************************************************************************************************

 Basis set:  JKFIT                   
 Basis size:   740
 Attributes:
 Sphericals:   T
 Basis set:  MP2FIT                  
 Basis size:   816
 Attributes:
 Sphericals:   T
 Basis set:  RI                      
 Basis size:   556
 Attributes:
 Sphericals:   T
 Basis set:  TDDFT                   
 Basis size:   816
 Attributes:
 Sphericals:   T

 PROGRAM * CCSD (Closed-shell coupled cluster)     Authors: C. Hampel, H.-J. Werner, 1991, M. Deegan, P.J. Knowles, 1992


 Convergence thresholds:  THRVAR = 1.00D-08  THRDEN = 1.00D-10

 CCSD(T)     terms to be evaluated (factor= 1.000)


 Number of core orbitals:           1 (   1 )
 Number of closed-shell orbitals:   4 (   4 )
 Number of external orbitals:     431 ( 431 )

 Molecular orbitals read from record     2101.2  Type=RHF/CANONICAL (state 1.1)

 Number of N-1 electron functions:               4
 Number of N-2 electron functions:              10
 Number of singly external CSFs:              1724
 Number of doubly external CSFs:           1486950
 Total number of CSFs:                     1488675

 Length of J-op  integral file:               0.00 MB
 Length of K-op  integral file:              13.08 MB
 Length of 3-ext integral record:             0.00 MB

 Memory could be reduced to 526.20 Mwords without degradation in triples

 Integral transformation finished. Total CPU: 197.21 sec, npass=  1  Memory used: 214.76 MW

 Reference energy:                    -76.06353272

 MP2 singlet pair energy:              -0.18618129
 MP2 triplet pair energy:              -0.10136227
 MP2 correlation energy:               -0.28754357
 MP2 total energy:                    -76.35107629

 SCS-MP2 correlation energy:           -0.28648741   (PS=  1.200000  PT=  0.333333)
 SCS-MP2 total energy:                -76.35002014

 ITER.      SQ.NORM     CORR.ENERGY   TOTAL ENERGY   ENERGY CHANGE        DEN1      VAR(S)    VAR(P)  DIIS     TIME  TIME/IT
   1      1.06441148    -0.28930064   -76.35283336    -0.00175707     0.00410130  0.84D-03  0.10D-02  1  1   246.47    51.02
   2      1.06805523    -0.28955673   -76.35308946    -0.00025609    -0.00491122  0.14D-04  0.12D-03  2  2   296.19    51.45
   3      1.06950491    -0.28963556   -76.35316829    -0.00007883    -0.00101509  0.88D-05  0.63D-05  3  3   345.51    51.51
   4      1.06997407    -0.28963480   -76.35316753     0.00000076    -0.00021918  0.49D-06  0.76D-06  4  4   395.62    51.68
   5      1.07007736    -0.28963251   -76.35316523     0.00000229    -0.00003234  0.17D-06  0.51D-07  5  5   446.08    51.85
   6      1.07011407    -0.28962948   -76.35316221     0.00000302    -0.00000837  0.17D-07  0.42D-08  6  6   496.27    51.94
   7      1.07012152    -0.28962909   -76.35316181     0.00000040    -0.00000057  0.15D-08  0.81D-09  6  1   546.52    51.97
   8      1.07012326    -0.28962899   -76.35316171     0.00000010    -0.00000005  0.25D-09  0.95D-10  6  2   596.87    52.05
   9      1.07012392    -0.28962895   -76.35316167     0.00000004     0.00000011  0.19D-10  0.84D-11  6  3   646.72    52.06
  10      1.07012407    -0.28962893   -76.35316166     0.00000001     0.00000001  0.23D-11  0.13D-11  6  4   696.29    52.02
  11      1.07012407    -0.28962894   -76.35316166    -0.00000000     0.00000002  0.54D-12  0.16D-12  6  5   746.46    52.02
  12      1.07012407    -0.28962894   -76.35316166    -0.00000000     0.00000001  0.92D-13  0.28D-13  6  6   796.16    52.01
  13      1.07012406    -0.28962894   -76.35316166    -0.00000000     0.00000000  0.16D-13  0.52D-14  6  1   845.24    51.96
  14      1.07012406    -0.28962894   -76.35316166    -0.00000000     0.00000000  0.16D-14  0.74D-15  6  2   894.51    51.95
  15      1.07012406    -0.28962894   -76.35316166    -0.00000000     0.00000000  0.19D-15  0.12D-15  6  3   944.71    51.98
  16      1.07012406    -0.28962894   -76.35316166    -0.00000000    -0.00000000  0.42D-16  0.19D-16  6  4   994.23    51.98

 Norm of t1 vector:      0.03850709      S-energy:    -0.00000000      T1 diagnostic:  0.00962677
                                                                       D1 diagnostic:  0.02008775


 Total CPU time for triples:    486.55 sec


 RESULTS
 =======

  Reference energy                    -76.063532724887
  CCSD singlet pair energy             -0.199988119000
  CCSD triplet pair energy             -0.089640819709
  CCSD correlation energy              -0.289628938795

  Triples (T) contribution             -0.009594120370
  Total correlation energy             -0.299223059165

  CCSD total energy                   -76.353161663682
  CCSD[T] energy                      -76.363073344667
  CCSD-T energy                       -76.362602359601
 !CCSD(T) total energy                -76.362755784052

 Timing summary (sec):

 STEP                 CPU(USER)    SYS     CPU(TOT)    WALL
 Transformation        197.59      9.61    207.20    207.48
 CCSD iterations       796.73     34.02    830.75    831.86
 Triples               486.55      7.32    493.87    494.66

 Program statistics:

 Available memory in ccsd:              1999999921
 Min. memory needed in ccsd:               6768234
 Max. memory used in ccsd:                 7865440
 Max. memory used in cckext:               5182436 (16 integral passes)



 **********************************************************************************************************************************
 DATASETS  * FILE   NREC   LENGTH (MB)   RECORD NAMES
              1      19     1346.95       500      610      700      900      950      970     1000      129      960     1100   
                                          VAR    BASINP    GEOM    SYMINP    ZMAT    AOBASIS   BASIS     P2S    ABASIS      S 
                                         1400     1410     1200     1210     1080     1600     1650     1700     1380   
                                           T        V       H0       H01     AOSYM     SMH    MOLCAS    OPER     JKOP   

              2       6       17.39       700     1000      520     2100      200     2101   
                                         GEOM     BASIS   MCVARS     RHF    OPTIONS    RHF  

 PROGRAMS   *        TOTAL   CCSD(T)    HF-SCF       INT   CCSD(T)    HF-SCF       INT
 CPU TIMES  *      8721.95   1481.10    222.42      0.41   6544.53    241.00    232.22
 REAL TIME  *      9048.78 SEC
 DISK USED  *         3.24 GB (local),       82.44 GB (total)
 SF USED    *         3.08 GB
 GA USED    *         0.00 MB       (max)       0.00 MB       (current)
 **********************************************************************************************************************************

 Running procedure: SET_MONOMER2

 Dummy atoms: O7  H13  H14


 Recomputing one-electron integrals since nuclear charges changed


 PROGRAM * SEWARD (Integral evaluation for generally contracted gaussian basis sets)     Author: Roland Lindh, 1990

 Geometry written to block  1 of record 700


 Point group  C1  



 ATOMIC COORDINATES

 NR  ATOM    CHARGE       X              Y              Z

   1  O7      0.00   -4.362810704   -2.860478435    6.396722932
   2  H13     0.00   -5.253627599   -3.421160176    4.877005182
   3  H14     0.00   -5.588487068   -1.881600302    7.381837160
   4  C1      6.00   -6.193010455    2.801518980    2.403542658
   5  H41     1.00   -4.656285171    1.699997622    3.119937832
   6  H42     1.00   -5.973046335    4.726205038    2.982932688
   7  H43     1.00   -7.940251230    2.077186956    3.118237078
   8  H44     1.00   -6.176569838    2.685300823    0.384937212

 Bond lengths in Bohr (Angstrom)

 1-2  1.848637551  1-3  1.852278325  4-5  2.021904040  4-6  2.022002335  4-7  2.021953343
     ( 0.978256863)     ( 0.980183478)     ( 1.069945541)     ( 1.069997556)     ( 1.069971630)

 4-8  2.022015060
     ( 1.070004290)

 Bond angles

  2-1-3  106.17843926   5-4-6  109.53398059   5-4-7  109.65604535   5-4-8  108.43490854

  6-4-7  109.49436728   6-4-8  109.86987750   7-4-8  109.83468330

 NUCLEAR CHARGE:                   10
 NUMBER OF PRIMITIVE AOS:         578
 NUMBER OF SYMMETRY AOS:          474
 NUMBER OF CONTRACTIONS:          436   (  436A   )
 NUMBER OF CORE ORBITALS:           1   (    1A   )
 NUMBER OF VALENCE ORBITALS:        8   (    8A   )

 MOLECULE CHANGED: INITIALIZING OCCUPATION AND DUMP RECORDS


 NUCLEAR REPULSION ENERGY   13.68681606

 Basis set:  JKFIT                   
 Basis size:   740
 Attributes:
 Sphericals:   T
 Basis set:  MP2FIT                  
 Basis size:   816
 Attributes:
 Sphericals:   T
 Basis set:  RI                      
 Basis size:   556
 Attributes:
 Sphericals:   T
 Basis set:  TDDFT                   
 Basis size:   816
 Attributes:
 Sphericals:   T

 Eigenvalues of metric

         1 0.157E-04 0.310E-04 0.321E-04 0.350E-04 0.619E-04 0.857E-04 0.990E-04 0.105E-03


 Contracted 2-electron integrals neglected if value below      1.0D-14

 OPERATOR DM      FOR CENTER  0  COORDINATES:    0.000000    0.000000    0.000000


 **********************************************************************************************************************************
 DATASETS  * FILE   NREC   LENGTH (MB)   RECORD NAMES
              1      18       37.06       500      610      700      900      950      970     1000      129      960     1100   
                                          VAR    BASINP    GEOM    SYMINP    ZMAT    AOBASIS   BASIS     P2S    ABASIS      S 
                                         1400     1410     1200     1210     1080     1600     1650     1700   
                                           T        V       H0       H01     AOSYM     SMH    MOLCAS    OPER   

              2       6       17.39       700     1000      520     2100      200     2101   
                                         GEOM     BASIS   MCVARS     RHF    OPTIONS    RHF  

 PROGRAMS   *        TOTAL       INT   CCSD(T)    HF-SCF       INT   CCSD(T)    HF-SCF       INT
 CPU TIMES  *      8722.39      0.43   1481.10    222.42      0.41   6544.53    241.00    232.22
 REAL TIME  *      9049.98 SEC
 DISK USED  *         3.24 GB (local),       82.44 GB (total)
 SF USED    *         3.08 GB
 GA USED    *         0.00 MB       (max)       0.00 MB       (current)
 **********************************************************************************************************************************


 PROGRAM * RHF-SCF (CLOSED SHELL)       Authors: W. Meyer, H.-J. Werner


 NUMBER OF ELECTRONS:       5+    5-    SPACE SYMMETRY=1    SPIN SYMMETRY: Singlet 
 CONVERGENCE THRESHOLDS:    1.00E-08 (Density)    1.00E-11 (Energy)
 MAX. NUMBER OF ITERATIONS:       60
 INTERPOLATION TYPE:            DIIS
 INTERPOLATION STEPS:              2 (START)      1 (STEP)
 LEVEL SHIFTS:                  0.00 (CLOSED)  0.00 (OPEN) 



 Orbital guess generated from atomic densities. Full valence occupancy:    9

 Molecular orbital dump at record        2102.2

 Initial occupancy:   5

 ITERATION    DDIFF          GRAD             ENERGY        2-EL.EN.            DIPOLE MOMENTS         DIIS   ORB.
    1      0.000D+00      0.000D+00       -40.19609542     53.506285    0.00410   -0.00275   -0.00132    0    start
    2      0.000D+00      0.257D-02       -40.21334947     52.217619    0.00128   -0.00087   -0.00039    1    diag
    3      0.158D-02      0.998D-03       -40.21562539     52.672078    0.00181   -0.00123   -0.00056    2    diag
    4      0.443D-03      0.249D-03       -40.21594484     52.617266    0.00161   -0.00109   -0.00050    3    diag
    5      0.165D-03      0.322D-04       -40.21595033     52.619413    0.00158   -0.00107   -0.00049    4    diag
    6      0.410D-04      0.264D-05       -40.21595037     52.619550    0.00158   -0.00107   -0.00049    5    diag
    7      0.548D-05      0.212D-06       -40.21595037     52.619511    0.00158   -0.00107   -0.00049    6    diag
    8      0.220D-06      0.170D-07       -40.21595037     52.619512    0.00158   -0.00107   -0.00049    7    diag
    9      0.826D-07      0.217D-08       -40.21595037     52.619512    0.00158   -0.00107   -0.00049    8    diag
   10      0.827D-08      0.595D-09       -40.21595037     52.619512    0.00158   -0.00107   -0.00049    0    orth

 Final occupancy:   5

 !RHF STATE  1.1 Energy               -40.215950374876
 Nuclear energy                        13.68681606
 One-electron energy                  -80.21252229
 Two-electron energy                   26.30975586
 Virial quotient                       -0.99838101
 !RHF STATE  1.1 Dipole moment          0.00157657    -0.00107146    -0.00048530
 Dipole moment /Debye                   0.00400698    -0.00272319    -0.00123343

 Orbital energies:

         1.1          2.1          3.1          4.1          5.1          6.1          7.1
    -11.196224    -0.950661    -0.551889    -0.549955    -0.547776     0.025006     0.038564


 HOMO      5.1    -0.547776 =     -14.9057eV
 LUMO      6.1     0.025006 =       0.6804eV
 LUMO-HOMO         0.572782 =      15.5862eV


 **********************************************************************************************************************************
 DATASETS  * FILE   NREC   LENGTH (MB)   RECORD NAMES
              1      18       37.06       500      610      700      900      950      970     1000      129      960     1100   
                                          VAR    BASINP    GEOM    SYMINP    ZMAT    AOBASIS   BASIS     P2S    ABASIS      S 
                                         1400     1410     1200     1210     1080     1600     1650     1700   
                                           T        V       H0       H01     AOSYM     SMH    MOLCAS    OPER   

              2       7       27.51       700     1000      520     2100      200     2101     2102   
                                         GEOM     BASIS   MCVARS     RHF    OPTIONS    RHF      RHF  

 PROGRAMS   *        TOTAL    HF-SCF       INT   CCSD(T)    HF-SCF       INT   CCSD(T)    HF-SCF       INT
 CPU TIMES  *      8912.08    189.69      0.43   1481.10    222.42      0.41   6544.53    241.00    232.22
 REAL TIME  *      9262.92 SEC
 DISK USED  *         3.24 GB (local),       82.44 GB (total)
 SF USED    *         3.08 GB
 GA USED    *         0.00 MB       (max)       0.00 MB       (current)
 **********************************************************************************************************************************

 Basis set:  JKFIT                   
 Basis size:   740
 Attributes:
 Sphericals:   T
 Basis set:  MP2FIT                  
 Basis size:   816
 Attributes:
 Sphericals:   T
 Basis set:  RI                      
 Basis size:   556
 Attributes:
 Sphericals:   T
 Basis set:  TDDFT                   
 Basis size:   816
 Attributes:
 Sphericals:   T

 PROGRAM * CCSD (Closed-shell coupled cluster)     Authors: C. Hampel, H.-J. Werner, 1991, M. Deegan, P.J. Knowles, 1992


 Convergence thresholds:  THRVAR = 1.00D-08  THRDEN = 1.00D-10

 CCSD(T)     terms to be evaluated (factor= 1.000)


 Number of core orbitals:           1 (   1 )
 Number of closed-shell orbitals:   4 (   4 )
 Number of external orbitals:     431 ( 431 )

 Molecular orbitals read from record     2102.2  Type=RHF/CANONICAL (state 1.1)

 Number of N-1 electron functions:               4
 Number of N-2 electron functions:              10
 Number of singly external CSFs:              1724
 Number of doubly external CSFs:           1486950
 Total number of CSFs:                     1488675

 Length of J-op  integral file:               0.00 MB
 Length of K-op  integral file:              13.08 MB
 Length of 3-ext integral record:             0.00 MB

 Memory could be reduced to 526.20 Mwords without degradation in triples

 Integral transformation finished. Total CPU: 197.48 sec, npass=  1  Memory used: 214.76 MW

 Reference energy:                    -40.21595037

 MP2 singlet pair energy:              -0.15443154
 MP2 triplet pair energy:              -0.05646381
 MP2 correlation energy:               -0.21089534
 MP2 total energy:                    -40.42684572

 SCS-MP2 correlation energy:           -0.22045088   (PS=  1.200000  PT=  0.333333)
 SCS-MP2 total energy:                -40.43640125

 ITER.      SQ.NORM     CORR.ENERGY   TOTAL ENERGY   ENERGY CHANGE        DEN1      VAR(S)    VAR(P)  DIIS     TIME  TIME/IT
   1      1.07097422    -0.22688008   -40.44283045    -0.01598473    -0.01039748  0.55D-03  0.97D-03  1  1   247.12    51.21
   2      1.07611928    -0.22798015   -40.44393053    -0.00110008    -0.00547158  0.14D-04  0.91D-04  2  2   297.14    51.76
   3      1.07764057    -0.22801937   -40.44396974    -0.00003921    -0.00107327  0.18D-05  0.58D-05  3  3   347.28    51.86
   4      1.07800029    -0.22802506   -40.44397543    -0.00000569    -0.00017108  0.12D-06  0.28D-06  4  4   397.44    51.99
   5      1.07804833    -0.22802694   -40.44397732    -0.00000189    -0.00001303  0.10D-07  0.20D-07  5  5   447.81    52.10
   6      1.07805658    -0.22802573   -40.44397610     0.00000122    -0.00000328  0.64D-09  0.14D-08  6  6   497.58    52.13
   7      1.07805763    -0.22802544   -40.44397581     0.00000029    -0.00000056  0.46D-10  0.11D-09  6  1   547.45    52.15
   8      1.07805757    -0.22802549   -40.44397586    -0.00000005     0.00000022  0.46D-11  0.66D-11  6  3   597.70    52.20
   9      1.07805769    -0.22802547   -40.44397585     0.00000002    -0.00000008  0.39D-12  0.54D-12  6  2   647.46    52.19
  10      1.07805770    -0.22802547   -40.44397585     0.00000000     0.00000000  0.46D-13  0.56D-13  6  4   697.21    52.19
  11      1.07805770    -0.22802547   -40.44397585     0.00000000     0.00000000  0.42D-14  0.56D-14  6  5   747.32    52.22
  12      1.07805770    -0.22802547   -40.44397585     0.00000000     0.00000000  0.97D-16  0.61D-15  6  6   797.35    52.22
  13      1.07805770    -0.22802547   -40.44397585    -0.00000000     0.00000000  0.73D-17  0.59D-16  6  1   847.20    52.22
  14      1.07805770    -0.22802547   -40.44397585    -0.00000000     0.00000000  0.10D-17  0.76D-17  6  3   897.08    52.22

 Norm of t1 vector:      0.03128346      S-energy:    -0.00000000      T1 diagnostic:  0.00782086
                                                                       D1 diagnostic:  0.01257240

 Total CPU time for triples:    487.05 sec


 RESULTS
 =======

  Reference energy                    -40.215950374875
  CCSD singlet pair energy             -0.173329919595
  CCSD triplet pair energy             -0.054695551507
  CCSD correlation energy              -0.228025471107

  Triples (T) contribution             -0.006882240733
  Total correlation energy             -0.234907711840

  CCSD total energy                   -40.443975845982
  CCSD[T] energy                      -40.451071238904
  CCSD-T energy                       -40.450790479219
 !CCSD(T) total energy                -40.450858086715

 Timing summary (sec):

 STEP                 CPU(USER)    SYS     CPU(TOT)    WALL
 Transformation        197.86      9.15    207.01    207.36
 CCSD iterations       699.31     30.99    730.30    731.22
 Triples               487.05      6.91    493.96    495.11

 Program statistics:

 Available memory in ccsd:              1999999916
 Min. memory needed in ccsd:               6768234
 Max. memory used in ccsd:                 7865440
 Max. memory used in cckext:               5182436 (14 integral passes)



 **********************************************************************************************************************************
 DATASETS  * FILE   NREC   LENGTH (MB)   RECORD NAMES
              1      19     1346.95       500      610      700      900      950      970     1000      129      960     1100   
                                          VAR    BASINP    GEOM    SYMINP    ZMAT    AOBASIS   BASIS     P2S    ABASIS      S 
                                         1400     1410     1200     1210     1080     1600     1650     1700     1380   
                                           T        V       H0       H01     AOSYM     SMH    MOLCAS    OPER     JKOP   

              2       7       27.51       700     1000      520     2100      200     2101     2102   
                                         GEOM     BASIS   MCVARS     RHF    OPTIONS    RHF      RHF  

 PROGRAMS   *        TOTAL   CCSD(T)    HF-SCF       INT   CCSD(T)    HF-SCF       INT   CCSD(T)    HF-SCF       INT
 CPU TIMES  *     10296.55   1384.46    189.69      0.43   1481.10    222.42      0.41   6544.53    241.00    232.22
 REAL TIME  *     10697.37 SEC
 DISK USED  *         3.24 GB (local),       82.44 GB (total)
 SF USED    *         3.08 GB
 GA USED    *         0.00 MB       (max)       0.00 MB       (current)
 **********************************************************************************************************************************
 Molecular orbitals read from record     2102.2  Type=RHF/CANONICAL (state 1.1)
 Occupation numbers read from record     2102.2  Type=RHF/RHF (state 1.1)
 Orbital energies read from record       2102.2  Type=RHF/CANONICAL (state 1.1)
 Redundancy group numbers read from rec  2102.2  Type=RHF/RHF (state 1.1)

 CCSD(T)/aug-cc-pVQZ energy=    -40.450858086715

         CCSD(T)          HF-SCF         CCSD(T)          HF-SCF         CCSD(T)          HF-SCF
    -40.45085809    -40.21595037    -76.36275578    -76.06353272   -116.81438427   -116.27926977
 **********************************************************************************************************************************
 Molpro calculation terminated
