
 Primary working directories    : /scratch/klimes/383111/molpro.1edwoXpd1r
 Secondary working directories  : /scratch/klimes/383111/molpro.1edwoXpd1r
 Wavefunction directory         : /scratch/klimes/383111/
 Main file repository           : /scratch/klimes/383111/molpro.1edwoXpd1r/

 id        : karlovklimes

 Nodes                      nprocs
 nc-01.cc.karlov.mff.cuni.cz    4

 Using customized tuning parameters: mindgm=1; mindgv=20; mindgc=4; mindgr=1; noblas=0; minvec=7
 default implementation of scratch files=sf  


 Variables initialized (930), CPU time= 0.01 sec
                                                                                 !gdirect
 memory,2000,m
 gthresh,orbital=1d-10,energy=1d-10,grid=1d-8
 
 symmetry,nosym
 angstrom
 geometry={
 O8        -2.441500000000      2.874300000000     -2.185500000000
 H15        -3.121200000000      3.446800000000     -1.780300000000
 H16        -2.892600000000      2.018700000000     -2.335200000000
 C1        -3.277200000000      1.482500000000      1.271900000000
 H41        -2.464000000000      0.899600000000      1.651000000000
 H42        -3.160800000000      2.501000000000      1.578500000000
 H43        -4.201800000000      1.099200000000      1.650100000000
 H44        -3.268500000000      1.421000000000      0.203700000000
 }
 
 nkerna=1
 nkernb=1
 
 gf=0
 sing=1
 thrdum=1d-4
 gridthr=1d-8
 
 basis={
 set,orbital
 default,avqz
 set,jkfit
 default,avqz/jkfit
 set,mp2fit
 default,avqz/mp2fit
 set,ri
 default,avqz/optri
 set,tddft
 default,avqz/mp2fit
 }
 
 proc set_monomer1
 dummy,4,5,6,7,8
 endproc
 
 proc set_monomer2
 dummy,1,2,3
 endproc
 
                                                                                 !1234 energy
 {hf,accu=1.d-16}
 ccsd(t)
 
 set_monomer1
 {hf,accu=1.d-16}
 ccsd(t)
 
 set_monomer2
 {hf,accu=1.d-16}
 ccsd(t)
 
 Commands  initialized (760), CPU time= 0.02 sec, 617 directives.
 Default parameters read. Elapsed time= 0.20 sec

 Checking input...
 Passed
1


                                         ***  PROGRAM SYSTEM MOLPRO  ***
                                       Copyright, TTI GmbH Stuttgart, 2015
                                    Version 2019.1 linked Jan 14 2019 13:09:19


 **********************************************************************************************************************************
 LABEL *                                                                                 
  64 bit mpp version                                                                     DATE: 11-Mar-20          TIME: 13:21:27  
 **********************************************************************************************************************************

 SHA1:             d688ac825633d238f2093ded1675ba87ccd55965
 **********************************************************************************************************************************

 THRESHOLDS:

 ZERO    =  1.00D-12  ONEINT  =  1.00D-12  TWOINT  =  1.00D-11  PREFAC  =  1.00D-14  XXXXXX  =  1.00D-09  EORDER  =  1.00D-04
 ENERGY  =  1.00D-10  ETEST   =  0.00D+00  EDENS   =  0.00D+00  THRDEDEF=  1.00D-06  GRADIENT=  1.00D-02  STEP    =  1.00D-03
 ORBITAL =  1.00D-10  CIVEC   =  1.00D-05  COEFF   =  1.00D-04  PRINTCI =  5.00D-02  PUNCHCI =  9.90D+01  OPTGRAD =  3.00D-04
 OPTENERG=  1.00D-06  OPTSTEP =  3.00D-04  THRGRAD =  1.00D-10  COMPRESS=  1.00D-11  VARMIN  =  1.00D-07  VARMAX  =  1.00D-03
 THRDOUB =  0.00D+00  THRDIV  =  1.00D-05  THRRED  =  1.00D-07  THRPSP  =  1.00D+00  THRDC   =  1.00D-10  THRCS   =  1.00D-10
 THRNRM  =  1.00D-08  THREQ   =  0.00D+00  THRDE   =  1.00D+00  THRREF  =  1.00D-05  SPARFAC =  1.00D+00  THRDLP  =  1.00D-07
 THRDIA  =  1.00D-10  THRDLS  =  1.00D-07  THRGPS  =  0.00D+00  THRKEX  =  0.00D+00  THRDIS  =  2.00D-01  THRVAR  =  1.00D-10
 THRLOC  =  1.00D-06  THRGAP  =  1.00D-06  THRLOCT = -1.00D+00  THRGAPT = -1.00D+00  THRORB  =  1.00D-06  THRMLTP =  0.00D+00
 THRCPQCI=  1.00D-10  KEXTA   =  0.00D+00  THRCOARS=  0.00D+00  SYMTOL  =  1.00D-06  GRADTOL =  1.00D-06  THROVL  =  1.00D-08
 THRORTH =  1.00D-08  GRID    =  1.00D-08  GRIDMAX =  1.00D-03  DTMAX   =  0.00D+00  THROCCDE=  1.00D-01  THROCCDE=  1.00D-01
 THRPRINT=  2.50D-01


 Variable memory set to 2000000000 words,  buffer space 

 ZSYMEL=NOSYM
 ZUNIT=ANG


Geometry recognized as XYZ

 SETTING NKERNA         =         1.00000000                                  
 SETTING NKERNB         =         1.00000000                                  
 SETTING GF             =     0.00000000D+00                                  
 SETTING SING           =         1.00000000                                  
 SETTING THRDUM         =     1.00000000D-04                                  
 SETTING GRIDTHR        =     1.00000000D-08                                  
 SETTING BASIS          =    AVQZ


 Recomputing integrals since basis changed


 Using spherical harmonics

 Library entry O      S aug-cc-pVQZ          selected for orbital group  1
 Library entry O      P aug-cc-pVQZ          selected for orbital group  1
 Library entry O      D aug-cc-pVQZ          selected for orbital group  1
 Library entry O      F aug-cc-pVQZ          selected for orbital group  1
 Library entry O      G aug-cc-pVQZ          selected for orbital group  1
 Library entry H      S aug-cc-pVQZ          selected for orbital group  2
 Library entry H      P aug-cc-pVQZ          selected for orbital group  2
 Library entry H      D aug-cc-pVQZ          selected for orbital group  2
 Library entry H      F aug-cc-pVQZ          selected for orbital group  2
 Library entry C      S aug-cc-pVQZ          selected for orbital group  3
 Library entry C      P aug-cc-pVQZ          selected for orbital group  3
 Library entry C      D aug-cc-pVQZ          selected for orbital group  3
 Library entry C      F aug-cc-pVQZ          selected for orbital group  3
 Library entry C      G aug-cc-pVQZ          selected for orbital group  3


 PROGRAM * SEWARD (Integral evaluation for generally contracted gaussian basis sets)     Author: Roland Lindh, 1990

 Geometry written to block  1 of record 700


 Point group  C1  



 ATOMIC COORDINATES

 NR  ATOM    CHARGE       X              Y              Z

   1  O8      8.00   -4.613766333    5.431639800   -4.129996445
   2  H15     1.00   -5.898213180    6.513508006   -3.364279420
   3  H16     1.00   -5.466221788    3.814790128   -4.412888446
   4  C1      6.00   -6.193010455    2.801518980    2.403542658
   5  H41     1.00   -4.656285171    1.699997622    3.119937832
   6  H42     1.00   -5.973046335    4.726205038    2.982932688
   7  H43     1.00   -7.940251230    2.077186956    3.118237078
   8  H44     1.00   -6.176569838    2.685300823    0.384937212

 Bond lengths in Bohr (Angstrom)

 1-2  1.845688241  1-3  1.849570504  4-5  2.021904040  4-6  2.022002335  4-7  2.021953343
     ( 0.976696155)     ( 0.978750561)     ( 1.069945541)     ( 1.069997556)     ( 1.069971630)

 4-8  2.022015060
     ( 1.070004290)

 Bond angles

  2-1-3  104.78050181   5-4-6  109.53398059   5-4-7  109.65604535   5-4-8  108.43490854

  6-4-7  109.49436728   6-4-8  109.86987750   7-4-8  109.83468330

 NUCLEAR CHARGE:                   20
 NUMBER OF PRIMITIVE AOS:         578
 NUMBER OF SYMMETRY AOS:          474
 NUMBER OF CONTRACTIONS:          436   (  436A   )
 NUMBER OF CORE ORBITALS:           2   (    2A   )
 NUMBER OF VALENCE ORBITALS:       14   (   14A   )


 NUCLEAR REPULSION ENERGY   36.70371194


 Basis set:  JKFIT                   
 Basis size:   740
 Attributes:
 Sphericals:   T
 Basis set:  MP2FIT                  
 Basis size:   816
 Attributes:
 Sphericals:   T
 Basis set:  RI                      
 Basis size:   556
 Attributes:
 Sphericals:   T
 Basis set:  TDDFT                   
 Basis size:   816
 Attributes:
 Sphericals:   T

 **********************************************************************************************************************************


 Eigenvalues of metric

         1 0.140E-04 0.201E-04 0.316E-04 0.360E-04 0.599E-04 0.682E-04 0.946E-04 0.104E-03


 Contracted 2-electron integrals neglected if value below      1.0D-14
 AO integral compression algorithm  1   Integral accuracy      1.0D-14

     23133.159 MB (compressed) written to integral file ( 57.7%)

     Node minimum: 5117.051 MB, node maximum: 6499.860 MB


 NUMBER OF SORTED TWO-ELECTRON INTEGRALS: 1134451344.     BUFFER LENGTH:  32768
 NUMBER OF SEGMENTS:  36  SEGMENT LENGTH:   31999984      RECORD LENGTH: 524288

 Memory used in sort:      32.56 MW

 SORT1 READ  5012305700. AND WROTE   969116070. INTEGRALS IN   2791 RECORDS. CPU TIME:   103.57 SEC, REAL TIME:   120.78 SEC
 SORT2 READ  3876036368. AND WROTE  4537853011. INTEGRALS IN  84296 RECORDS. CPU TIME:    23.07 SEC, REAL TIME:    34.87 SEC

 Node minimum:  1134427528.  Node maximum:  1134498978. integrals

 OPERATOR DM      FOR CENTER  0  COORDINATES:    0.000000    0.000000    0.000000


 **********************************************************************************************************************************
 DATASETS  * FILE   NREC   LENGTH (MB)   RECORD NAMES
              1      18       37.06       500      610      700      900      950      970     1000      129      960     1100   
                                          VAR    BASINP    GEOM    SYMINP    ZMAT    AOBASIS   BASIS     P2S    ABASIS      S 
                                         1400     1410     1200     1210     1080     1600     1650     1700   
                                           T        V       H0       H01     AOSYM     SMH    MOLCAS    OPER   

 PROGRAMS   *        TOTAL       INT
 CPU TIMES  *       193.96    193.74
 REAL TIME  *       236.02 SEC
 DISK USED  *        37.58 MB (local),       69.79 GB (total)
 GA USED    *         0.00 MB       (max)       0.00 MB       (current)
 **********************************************************************************************************************************


 PROGRAM * RHF-SCF (CLOSED SHELL)       Authors: W. Meyer, H.-J. Werner


 NUMBER OF ELECTRONS:      10+   10-    SPACE SYMMETRY=1    SPIN SYMMETRY: Singlet 
 CONVERGENCE THRESHOLDS:    1.00E-08 (Density)    1.00E-11 (Energy)
 MAX. NUMBER OF ITERATIONS:       60
 INTERPOLATION TYPE:            DIIS
 INTERPOLATION STEPS:              2 (START)      1 (STEP)
 LEVEL SHIFTS:                  0.00 (CLOSED)  0.00 (OPEN) 



 Orbital guess generated from atomic densities. Full valence occupancy:   16

 Molecular orbital dump at record        2100.2

 Initial occupancy:  10

 ITERATION    DDIFF          GRAD             ENERGY        2-EL.EN.            DIPOLE MOMENTS         DIIS   ORB.
    1      0.000D+00      0.000D+00      -116.22050064    158.800995   -1.08713   -0.27430    0.24259    0    start
    2      0.000D+00      0.379D-02      -116.26474418    153.988584   -0.59418   -0.15415    0.16350    1    diag
    3      0.273D-02      0.222D-02      -116.27824041    156.007814   -0.72151   -0.18505    0.18208    2    diag
    4      0.948D-03      0.332D-03      -116.27890179    155.894864   -0.71198   -0.18268    0.17858    3    diag
    5      0.204D-03      0.972D-04      -116.27897143    155.890000   -0.71167   -0.18285    0.17889    4    diag
    6      0.826D-04      0.237D-04      -116.27897536    155.895667   -0.71095   -0.18283    0.17885    5    diag
    7      0.228D-04      0.481D-05      -116.27897560    155.893986   -0.71100   -0.18288    0.17890    6    diag
    8      0.676D-05      0.122D-05      -116.27897562    155.894162   -0.71093   -0.18288    0.17892    7    diag
    9      0.155D-05      0.282D-06      -116.27897562    155.894133   -0.71091   -0.18288    0.17892    8    diag
   10      0.455D-06      0.344D-07      -116.27897562    155.894135   -0.71091   -0.18288    0.17892    9    orth
   11      0.471D-07      0.890D-08      -116.27897562    155.894136   -0.71091   -0.18288    0.17892    9    diag
   12      0.106D-07      0.259D-08      -116.27897562    155.894135   -0.71091   -0.18288    0.17892    9    diag
   13      0.321D-08      0.705D-09      -116.27897562    155.894136   -0.71091   -0.18288    0.17892    0    orth

 Final occupancy:  10

 !RHF STATE  1.1 Energy              -116.278975622791
 Nuclear energy                        36.70371194
 One-electron energy                 -230.92975536
 Two-electron energy                   77.94706779
 Virial quotient                       -1.00066526
 !RHF STATE  1.1 Dipole moment         -0.71091029    -0.18287934     0.17892209
 Dipole moment /Debye                  -1.80683536    -0.46480247     0.45474480

 Orbital energies:

         1.1          2.1          3.1          4.1          5.1          6.1          7.1          8.1          9.1         10.1
    -20.567909   -11.198866    -1.342487    -0.953448    -0.707296    -0.581408    -0.555045    -0.552719    -0.551117    -0.507514

        11.1         12.1
      0.023555     0.039404


 HOMO     10.1    -0.507514 =     -13.8102eV
 LUMO     11.1     0.023555 =       0.6410eV
 LUMO-HOMO         0.531069 =      14.4511eV


 **********************************************************************************************************************************
 DATASETS  * FILE   NREC   LENGTH (MB)   RECORD NAMES
              1      18       37.06       500      610      700      900      950      970     1000      129      960     1100   
                                          VAR    BASINP    GEOM    SYMINP    ZMAT    AOBASIS   BASIS     P2S    ABASIS      S 
                                         1400     1410     1200     1210     1080     1600     1650     1700   
                                           T        V       H0       H01     AOSYM     SMH    MOLCAS    OPER   

              2       4        6.75       700     1000      520     2100   
                                         GEOM     BASIS   MCVARS     RHF  

 PROGRAMS   *        TOTAL    HF-SCF       INT
 CPU TIMES  *       473.54    279.57    193.74
 REAL TIME  *       545.89 SEC
 DISK USED  *        57.63 MB (local),       69.87 GB (total)
 SF USED    *         0.76 MB
 GA USED    *         0.00 MB       (max)       0.00 MB       (current)
 **********************************************************************************************************************************

 Basis set:  JKFIT                   
 Basis size:   740
 Attributes:
 Sphericals:   T
 Basis set:  MP2FIT                  
 Basis size:   816
 Attributes:
 Sphericals:   T
 Basis set:  RI                      
 Basis size:   556
 Attributes:
 Sphericals:   T
 Basis set:  TDDFT                   
 Basis size:   816
 Attributes:
 Sphericals:   T

 PROGRAM * CCSD (Closed-shell coupled cluster)     Authors: C. Hampel, H.-J. Werner, 1991, M. Deegan, P.J. Knowles, 1992


 Convergence thresholds:  THRVAR = 1.00D-08  THRDEN = 1.00D-10

 CCSD(T)     terms to be evaluated (factor= 1.000)


 Number of core orbitals:           2 (   2 )
 Number of closed-shell orbitals:   8 (   8 )
 Number of external orbitals:     426 ( 426 )

 Molecular orbitals read from record     2100.2  Type=RHF/CANONICAL (state 1.1)

 Number of N-1 electron functions:               8
 Number of N-2 electron functions:              36
 Number of singly external CSFs:              3408
 Number of doubly external CSFs:           5808936
 Total number of CSFs:                     5812345

 Length of J-op  integral file:               0.00 MB
 Length of K-op  integral file:              13.08 MB
 Length of 3-ext integral record:             0.00 MB

 Memory could be reduced to 828.85 Mwords without degradation in triples

 Integral transformation finished. Total CPU: 336.29 sec, npass=  1  Memory used: 389.48 MW

 Reference energy:                   -116.27897562

 MP2 singlet pair energy:              -0.34083114
 MP2 triplet pair energy:              -0.15846867
 MP2 correlation energy:               -0.49929981
 MP2 total energy:                   -116.77827543

 SCS-MP2 correlation energy:           -0.50760010   (PS=  1.200000  PT=  0.333333)
 SCS-MP2 total energy:               -116.78657572

 ITER.      SQ.NORM     CORR.ENERGY   TOTAL ENERGY   ENERGY CHANGE        DEN1      VAR(S)    VAR(P)  DIIS     TIME  TIME/IT
   1      1.13565048    -0.51703251  -116.79600813    -0.01773270    -0.00627382  0.14D-02  0.20D-02  1  1   506.93   171.42
   2      1.14424058    -0.51838547  -116.79736109    -0.00135296    -0.01022030  0.27D-04  0.25D-03  2  2   678.12   172.61
   3      1.14743892    -0.51850551  -116.79748113    -0.00012004    -0.00224040  0.12D-04  0.12D-04  3  3   849.55   172.96
   4      1.14829451    -0.51850729  -116.79748291    -0.00000178    -0.00040773  0.59D-06  0.12D-05  4  4  1021.43   173.29
   5      1.14845320    -0.51850703  -116.79748266     0.00000025    -0.00004675  0.21D-06  0.86D-07  5  5  1193.46   173.54
   6      1.14850213    -0.51850332  -116.79747894     0.00000371    -0.00001181  0.20D-07  0.66D-08  6  6  1365.12   173.61
   7      1.14851163    -0.51850231  -116.79747793     0.00000101    -0.00000158  0.18D-08  0.10D-08  6  2  1536.91   173.65
   8      1.14851375    -0.51850215  -116.79747777     0.00000016    -0.00000010  0.37D-09  0.11D-09  6  1  1708.42   173.68
   9      1.14851466    -0.51850209  -116.79747772     0.00000005     0.00000004  0.29D-10  0.14D-10  6  3  1879.88   173.68
  10      1.14851482    -0.51850209  -116.79747771     0.00000001     0.00000006  0.31D-11  0.22D-11  6  4  2051.63   173.72
  11      1.14851478    -0.51850210  -116.79747772    -0.00000001     0.00000006  0.58D-12  0.29D-12  6  5  2222.90   173.73
  12      1.14851477    -0.51850210  -116.79747772    -0.00000000     0.00000002  0.10D-12  0.36D-13  6  6  2394.37   173.74
  13      1.14851475    -0.51850210  -116.79747772    -0.00000000     0.00000001  0.19D-13  0.58D-14  6  2  2565.94   173.76
  14      1.14851474    -0.51850210  -116.79747772    -0.00000000     0.00000000  0.29D-14  0.12D-14  6  1  2737.65   173.77
  15      1.14851474    -0.51850210  -116.79747772    -0.00000000     0.00000000  0.35D-15  0.18D-15  6  3  2908.98   173.77
  16      1.14851474    -0.51850210  -116.79747772    -0.00000000    -0.00000000  0.65D-16  0.27D-16  6  4  3079.61   173.73
  17      1.14851474    -0.51850210  -116.79747772     0.00000000    -0.00000000  0.14D-16  0.45D-17  6  5  3250.15   173.69

 Norm of t1 vector:      0.05034840      S-energy:     0.00000000      T1 diagnostic:  0.00890042
                                                                       D1 diagnostic:  0.02079873

   CPU time for triples:   2127.62 sec for i =  1 -  7 /  8 (~  68.8 % done)
   CPU time for triples:    866.16 sec for i =  8 -  8 /  8 (  100.0 % done)

 Total CPU time for triples:   2998.67 sec


 RESULTS
 =======

  Reference energy                   -116.278975622793
  CCSD singlet pair energy             -0.373448022536
  CCSD triplet pair energy             -0.145054076379
  CCSD correlation energy              -0.518502098894

  Triples (T) contribution             -0.016639271685
  Total correlation energy             -0.535141370578

  CCSD total energy                  -116.797477721687
  CCSD[T] energy                     -116.814653238226
  CCSD-T energy                      -116.813892217033
 !CCSD(T) total energy               -116.814116993371

 Timing summary (sec):

 STEP                 CPU(USER)    SYS     CPU(TOT)    WALL
 Transformation        337.45     11.63    349.08    350.42
 CCSD iterations      2912.84     36.13   2948.97   2952.93
 Triples              2998.67     30.25   3028.92   3032.81

 Program statistics:

 Available memory in ccsd:              1999999734
 Min. memory needed in ccsd:              17010489
 Max. memory used in ccsd:                22038113
 Max. memory used in cckext:              15155228 (17 integral passes)



 **********************************************************************************************************************************
 DATASETS  * FILE   NREC   LENGTH (MB)   RECORD NAMES
              1      19     2602.11       500      610      700      900      950      970     1000      129      960     1100   
                                          VAR    BASINP    GEOM    SYMINP    ZMAT    AOBASIS   BASIS     P2S    ABASIS      S 
                                         1400     1410     1200     1210     1080     1600     1650     1700     1380   
                                           T        V       H0       H01     AOSYM     SMH    MOLCAS    OPER     JKOP   

              2       4        6.75       700     1000      520     2100   
                                         GEOM     BASIS   MCVARS     RHF  

 PROGRAMS   *        TOTAL   CCSD(T)    HF-SCF       INT
 CPU TIMES  *      6722.75   6249.20    279.57    193.74
 REAL TIME  *      6883.16 SEC
 DISK USED  *         3.24 GB (local),       80.70 GB (total)
 SF USED    *         3.08 GB
 GA USED    *         0.00 MB       (max)       0.00 MB       (current)
 **********************************************************************************************************************************

 Running procedure: SET_MONOMER1

 Dummy atoms: C1  H41  H42  H43  H44


 Recomputing one-electron integrals since nuclear charges changed


 PROGRAM * SEWARD (Integral evaluation for generally contracted gaussian basis sets)     Author: Roland Lindh, 1990

 Geometry written to block  1 of record 700


 Point group  C1  



 ATOMIC COORDINATES

 NR  ATOM    CHARGE       X              Y              Z

   1  O8      8.00   -4.613766333    5.431639800   -4.129996445
   2  H15     1.00   -5.898213180    6.513508006   -3.364279420
   3  H16     1.00   -5.466221788    3.814790128   -4.412888446
   4  C1      0.00   -6.193010455    2.801518980    2.403542658
   5  H41     0.00   -4.656285171    1.699997622    3.119937832
   6  H42     0.00   -5.973046335    4.726205038    2.982932688
   7  H43     0.00   -7.940251230    2.077186956    3.118237078
   8  H44     0.00   -6.176569838    2.685300823    0.384937212

 Bond lengths in Bohr (Angstrom)

 1-2  1.845688241  1-3  1.849570504  4-5  2.021904040  4-6  2.022002335  4-7  2.021953343
     ( 0.976696155)     ( 0.978750561)     ( 1.069945541)     ( 1.069997556)     ( 1.069971630)

 4-8  2.022015060
     ( 1.070004290)

 Bond angles

  2-1-3  104.78050181   5-4-6  109.53398059   5-4-7  109.65604535   5-4-8  108.43490854

  6-4-7  109.49436728   6-4-8  109.86987750   7-4-8  109.83468330

 NUCLEAR CHARGE:                   10
 NUMBER OF PRIMITIVE AOS:         578
 NUMBER OF SYMMETRY AOS:          474
 NUMBER OF CONTRACTIONS:          436   (  436A   )
 NUMBER OF CORE ORBITALS:           1   (    1A   )
 NUMBER OF VALENCE ORBITALS:        6   (    6A   )

 MOLECULE CHANGED: INITIALIZING OCCUPATION AND DUMP RECORDS


 NUCLEAR REPULSION ENERGY    9.00136291

 Basis set:  JKFIT                   
 Basis size:   740
 Attributes:
 Sphericals:   T
 Basis set:  MP2FIT                  
 Basis size:   816
 Attributes:
 Sphericals:   T
 Basis set:  RI                      
 Basis size:   556
 Attributes:
 Sphericals:   T
 Basis set:  TDDFT                   
 Basis size:   816
 Attributes:
 Sphericals:   T

 Eigenvalues of metric

         1 0.140E-04 0.201E-04 0.316E-04 0.360E-04 0.599E-04 0.682E-04 0.946E-04 0.104E-03


 Contracted 2-electron integrals neglected if value below      1.0D-14

 OPERATOR DM      FOR CENTER  0  COORDINATES:    0.000000    0.000000    0.000000


 **********************************************************************************************************************************
 DATASETS  * FILE   NREC   LENGTH (MB)   RECORD NAMES
              1      18       37.06       500      610      700      900      950      970     1000      129      960     1100   
                                          VAR    BASINP    GEOM    SYMINP    ZMAT    AOBASIS   BASIS     P2S    ABASIS      S 
                                         1400     1410     1200     1210     1080     1600     1650     1700   
                                           T        V       H0       H01     AOSYM     SMH    MOLCAS    OPER   

              2       5       10.59       700     1000      520     2100      200   
                                         GEOM     BASIS   MCVARS     RHF    OPTIONS    

 PROGRAMS   *        TOTAL       INT   CCSD(T)    HF-SCF       INT
 CPU TIMES  *      6723.13      0.38   6249.20    279.57    193.74
 REAL TIME  *      6884.40 SEC
 DISK USED  *         3.24 GB (local),       80.71 GB (total)
 SF USED    *         3.08 GB
 GA USED    *         0.00 MB       (max)       0.00 MB       (current)
 **********************************************************************************************************************************


 PROGRAM * RHF-SCF (CLOSED SHELL)       Authors: W. Meyer, H.-J. Werner


 NUMBER OF ELECTRONS:       5+    5-    SPACE SYMMETRY=1    SPIN SYMMETRY: Singlet 
 CONVERGENCE THRESHOLDS:    1.00E-08 (Density)    1.00E-11 (Energy)
 MAX. NUMBER OF ITERATIONS:       60
 INTERPOLATION TYPE:            DIIS
 INTERPOLATION STEPS:              2 (START)      1 (STEP)
 LEVEL SHIFTS:                  0.00 (CLOSED)  0.00 (OPEN) 



 Orbital guess generated from atomic densities. Full valence occupancy:    7

 Molecular orbital dump at record        2101.2

 Initial occupancy:   5

 ITERATION    DDIFF          GRAD             ENERGY        2-EL.EN.            DIPOLE MOMENTS         DIIS   ORB.
    1      0.000D+00      0.000D+00       -76.02519188     77.409926   -1.09427   -0.27461    0.24702    0    start
    2      0.000D+00      0.467D-02       -76.05201635     73.759410   -0.63494   -0.15874    0.14353    1    diag
    3      0.223D-02      0.297D-02       -76.06357771     75.380415   -0.74960   -0.18754    0.16940    2    diag
    4      0.845D-03      0.279D-03       -76.06377147     75.289050   -0.74504   -0.18627    0.16841    3    diag
    5      0.105D-03      0.778D-04       -76.06379242     75.303460   -0.74337   -0.18580    0.16805    4    diag
    6      0.331D-04      0.155D-04       -76.06379376     75.302437   -0.74301   -0.18570    0.16798    5    diag
    7      0.864D-05      0.313D-05       -76.06379383     75.302583   -0.74289   -0.18566    0.16795    6    diag
    8      0.264D-05      0.586D-06       -76.06379383     75.302569   -0.74285   -0.18565    0.16794    7    diag
    9      0.504D-06      0.775D-07       -76.06379383     75.302560   -0.74285   -0.18565    0.16794    8    diag
   10      0.537D-07      0.172D-07       -76.06379383     75.302563   -0.74285   -0.18565    0.16794    9    orth
   11      0.139D-07      0.298D-08       -76.06379383     75.302562   -0.74285   -0.18565    0.16794    9    diag
   12      0.252D-08      0.479D-09       -76.06379383     75.302562   -0.74285   -0.18565    0.16794    0    orth

 Final occupancy:   5

 !RHF STATE  1.1 Energy               -76.063793832677
 Nuclear energy                         9.00136291
 One-electron energy                 -122.71643799
 Two-electron energy                   37.65128124
 Virial quotient                       -1.00195851
 !RHF STATE  1.1 Dipole moment         -0.74284771    -0.18565186     0.16794230
 Dipole moment /Debye                  -1.88800689    -0.47184906     0.42683879

 Orbital energies:

         1.1          2.1          3.1          4.1          5.1          6.1          7.1
    -20.568147    -1.342323    -0.707190    -0.580522    -0.508756     0.017818     0.037378


 HOMO      5.1    -0.508756 =     -13.8440eV
 LUMO      6.1     0.017818 =       0.4848eV
 LUMO-HOMO         0.526574 =      14.3288eV


 **********************************************************************************************************************************
 DATASETS  * FILE   NREC   LENGTH (MB)   RECORD NAMES
              1      18       37.06       500      610      700      900      950      970     1000      129      960     1100   
                                          VAR    BASINP    GEOM    SYMINP    ZMAT    AOBASIS   BASIS     P2S    ABASIS      S 
                                         1400     1410     1200     1210     1080     1600     1650     1700   
                                           T        V       H0       H01     AOSYM     SMH    MOLCAS    OPER   

              2       6       17.39       700     1000      520     2100      200     2101   
                                         GEOM     BASIS   MCVARS     RHF    OPTIONS    RHF  

 PROGRAMS   *        TOTAL    HF-SCF       INT   CCSD(T)    HF-SCF       INT
 CPU TIMES  *      6960.10    236.97      0.38   6249.20    279.57    193.74
 REAL TIME  *      7144.06 SEC
 DISK USED  *         3.24 GB (local),       80.71 GB (total)
 SF USED    *         3.08 GB
 GA USED    *         0.00 MB       (max)       0.00 MB       (current)
 **********************************************************************************************************************************

 Basis set:  JKFIT                   
 Basis size:   740
 Attributes:
 Sphericals:   T
 Basis set:  MP2FIT                  
 Basis size:   816
 Attributes:
 Sphericals:   T
 Basis set:  RI                      
 Basis size:   556
 Attributes:
 Sphericals:   T
 Basis set:  TDDFT                   
 Basis size:   816
 Attributes:
 Sphericals:   T

 PROGRAM * CCSD (Closed-shell coupled cluster)     Authors: C. Hampel, H.-J. Werner, 1991, M. Deegan, P.J. Knowles, 1992


 Convergence thresholds:  THRVAR = 1.00D-08  THRDEN = 1.00D-10

 CCSD(T)     terms to be evaluated (factor= 1.000)


 Number of core orbitals:           1 (   1 )
 Number of closed-shell orbitals:   4 (   4 )
 Number of external orbitals:     431 ( 431 )

 Molecular orbitals read from record     2101.2  Type=RHF/CANONICAL (state 1.1)

 Number of N-1 electron functions:               4
 Number of N-2 electron functions:              10
 Number of singly external CSFs:              1724
 Number of doubly external CSFs:           1486950
 Total number of CSFs:                     1488675

 Length of J-op  integral file:               0.00 MB
 Length of K-op  integral file:              13.08 MB
 Length of 3-ext integral record:             0.00 MB

 Memory could be reduced to 526.20 Mwords without degradation in triples

 Integral transformation finished. Total CPU: 173.72 sec, npass=  1  Memory used: 214.76 MW

 Reference energy:                    -76.06379383

 MP2 singlet pair energy:              -0.18616884
 MP2 triplet pair energy:              -0.10136217
 MP2 correlation energy:               -0.28753101
 MP2 total energy:                    -76.35132484

 SCS-MP2 correlation energy:           -0.28647240   (PS=  1.200000  PT=  0.333333)
 SCS-MP2 total energy:                -76.35026624

 ITER.      SQ.NORM     CORR.ENERGY   TOTAL ENERGY   ENERGY CHANGE        DEN1      VAR(S)    VAR(P)  DIIS     TIME  TIME/IT
   1      1.06435697    -0.28928861   -76.35308244    -0.00175760     0.00409429  0.84D-03  0.10D-02  1  1   228.69    56.10
   2      1.06799183    -0.28954335   -76.35333718    -0.00025474    -0.00490609  0.14D-04  0.12D-03  2  2   283.98    56.66
   3      1.06943613    -0.28962177   -76.35341560    -0.00007842    -0.00101248  0.87D-05  0.63D-05  3  3   339.35    56.83
   4      1.06990349    -0.28962099   -76.35341482     0.00000077    -0.00021860  0.49D-06  0.75D-06  4  4   394.75    56.94
   5      1.07000668    -0.28961868   -76.35341252     0.00000231    -0.00003243  0.16D-06  0.51D-07  5  5   450.16    57.00
   6      1.07004315    -0.28961567   -76.35340951     0.00000301    -0.00000832  0.17D-07  0.41D-08  6  6   505.50    57.04
   7      1.07005060    -0.28961527   -76.35340910     0.00000040    -0.00000058  0.14D-08  0.80D-09  6  1   560.61    57.06
   8      1.07005234    -0.28961517   -76.35340901     0.00000010    -0.00000005  0.24D-09  0.93D-10  6  2   615.62    57.07
   9      1.07005300    -0.28961513   -76.35340896     0.00000004     0.00000011  0.18D-10  0.81D-11  6  3   669.51    56.90
  10      1.07005314    -0.28961512   -76.35340895     0.00000001     0.00000001  0.20D-11  0.12D-11  6  4   723.97    56.82
  11      1.07005314    -0.28961512   -76.35340895    -0.00000000     0.00000002  0.46D-12  0.15D-12  6  5   777.74    56.72
  12      1.07005314    -0.28961512   -76.35340895    -0.00000000     0.00000001  0.78D-13  0.24D-13  6  6   831.98    56.67
  13      1.07005314    -0.28961512   -76.35340895    -0.00000000     0.00000000  0.14D-13  0.45D-14  6  1   885.62    56.58
  14      1.07005313    -0.28961512   -76.35340896    -0.00000000     0.00000000  0.16D-14  0.65D-15  6  2   939.99    56.56
  15      1.07005313    -0.28961512   -76.35340896    -0.00000000     0.00000000  0.18D-15  0.11D-15  6  3   993.73    56.50
  16      1.07005313    -0.28961512   -76.35340896    -0.00000000    -0.00000000  0.39D-16  0.17D-16  6  4  1050.11    56.61

 Norm of t1 vector:      0.03847984      S-energy:    -0.00000000      T1 diagnostic:  0.00961996
                                                                       D1 diagnostic:  0.02009999


 Total CPU time for triples:    458.49 sec


 RESULTS
 =======

  Reference energy                    -76.063793832680
  CCSD singlet pair energy             -0.199962148414
  CCSD triplet pair energy             -0.089652974013
  CCSD correlation energy              -0.289615122503

  Triples (T) contribution             -0.009587574451
  Total correlation energy             -0.299202696954

  CCSD total energy                   -76.353408955183
  CCSD[T] energy                      -76.363313689573
  CCSD-T energy                       -76.362843246680
 !CCSD(T) total energy                -76.362996529634

 Timing summary (sec):

 STEP                 CPU(USER)    SYS     CPU(TOT)    WALL
 Transformation        174.07      6.89    180.96    181.18
 CCSD iterations       876.14     28.62    904.76    905.97
 Triples               458.49      5.67    464.16    464.76

 Program statistics:

 Available memory in ccsd:              1999999921
 Min. memory needed in ccsd:               6768234
 Max. memory used in ccsd:                 7865440
 Max. memory used in cckext:               5182436 (16 integral passes)



 **********************************************************************************************************************************
 DATASETS  * FILE   NREC   LENGTH (MB)   RECORD NAMES
              1      19     1346.95       500      610      700      900      950      970     1000      129      960     1100   
                                          VAR    BASINP    GEOM    SYMINP    ZMAT    AOBASIS   BASIS     P2S    ABASIS      S 
                                         1400     1410     1200     1210     1080     1600     1650     1700     1380   
                                           T        V       H0       H01     AOSYM     SMH    MOLCAS    OPER     JKOP   

              2       6       17.39       700     1000      520     2100      200     2101   
                                         GEOM     BASIS   MCVARS     RHF    OPTIONS    RHF  

 PROGRAMS   *        TOTAL   CCSD(T)    HF-SCF       INT   CCSD(T)    HF-SCF       INT
 CPU TIMES  *      8469.01   1508.91    236.97      0.38   6249.20    279.57    193.74
 REAL TIME  *      8696.89 SEC
 DISK USED  *         3.24 GB (local),       80.71 GB (total)
 SF USED    *         3.08 GB
 GA USED    *         0.00 MB       (max)       0.00 MB       (current)
 **********************************************************************************************************************************

 Running procedure: SET_MONOMER2

 Dummy atoms: O8  H15  H16


 Recomputing one-electron integrals since nuclear charges changed


 PROGRAM * SEWARD (Integral evaluation for generally contracted gaussian basis sets)     Author: Roland Lindh, 1990

 Geometry written to block  1 of record 700


 Point group  C1  



 ATOMIC COORDINATES

 NR  ATOM    CHARGE       X              Y              Z

   1  O8      0.00   -4.613766333    5.431639800   -4.129996445
   2  H15     0.00   -5.898213180    6.513508006   -3.364279420
   3  H16     0.00   -5.466221788    3.814790128   -4.412888446
   4  C1      6.00   -6.193010455    2.801518980    2.403542658
   5  H41     1.00   -4.656285171    1.699997622    3.119937832
   6  H42     1.00   -5.973046335    4.726205038    2.982932688
   7  H43     1.00   -7.940251230    2.077186956    3.118237078
   8  H44     1.00   -6.176569838    2.685300823    0.384937212

 Bond lengths in Bohr (Angstrom)

 1-2  1.845688241  1-3  1.849570504  4-5  2.021904040  4-6  2.022002335  4-7  2.021953343
     ( 0.976696155)     ( 0.978750561)     ( 1.069945541)     ( 1.069997556)     ( 1.069971630)

 4-8  2.022015060
     ( 1.070004290)

 Bond angles

  2-1-3  104.78050181   5-4-6  109.53398059   5-4-7  109.65604535   5-4-8  108.43490854

  6-4-7  109.49436728   6-4-8  109.86987750   7-4-8  109.83468330

 NUCLEAR CHARGE:                   10
 NUMBER OF PRIMITIVE AOS:         578
 NUMBER OF SYMMETRY AOS:          474
 NUMBER OF CONTRACTIONS:          436   (  436A   )
 NUMBER OF CORE ORBITALS:           1   (    1A   )
 NUMBER OF VALENCE ORBITALS:        8   (    8A   )

 MOLECULE CHANGED: INITIALIZING OCCUPATION AND DUMP RECORDS


 NUCLEAR REPULSION ENERGY   13.68681606

 Basis set:  JKFIT                   
 Basis size:   740
 Attributes:
 Sphericals:   T
 Basis set:  MP2FIT                  
 Basis size:   816
 Attributes:
 Sphericals:   T
 Basis set:  RI                      
 Basis size:   556
 Attributes:
 Sphericals:   T
 Basis set:  TDDFT                   
 Basis size:   816
 Attributes:
 Sphericals:   T

 Eigenvalues of metric

         1 0.140E-04 0.201E-04 0.316E-04 0.360E-04 0.599E-04 0.682E-04 0.946E-04 0.104E-03


 Contracted 2-electron integrals neglected if value below      1.0D-14

 OPERATOR DM      FOR CENTER  0  COORDINATES:    0.000000    0.000000    0.000000


 **********************************************************************************************************************************
 DATASETS  * FILE   NREC   LENGTH (MB)   RECORD NAMES
              1      18       37.06       500      610      700      900      950      970     1000      129      960     1100   
                                          VAR    BASINP    GEOM    SYMINP    ZMAT    AOBASIS   BASIS     P2S    ABASIS      S 
                                         1400     1410     1200     1210     1080     1600     1650     1700   
                                           T        V       H0       H01     AOSYM     SMH    MOLCAS    OPER   

              2       6       17.39       700     1000      520     2100      200     2101   
                                         GEOM     BASIS   MCVARS     RHF    OPTIONS    RHF  

 PROGRAMS   *        TOTAL       INT   CCSD(T)    HF-SCF       INT   CCSD(T)    HF-SCF       INT
 CPU TIMES  *      8469.38      0.35   1508.91    236.97      0.38   6249.20    279.57    193.74
 REAL TIME  *      8697.99 SEC
 DISK USED  *         3.24 GB (local),       80.71 GB (total)
 SF USED    *         3.08 GB
 GA USED    *         0.00 MB       (max)       0.00 MB       (current)
 **********************************************************************************************************************************


 PROGRAM * RHF-SCF (CLOSED SHELL)       Authors: W. Meyer, H.-J. Werner


 NUMBER OF ELECTRONS:       5+    5-    SPACE SYMMETRY=1    SPIN SYMMETRY: Singlet 
 CONVERGENCE THRESHOLDS:    1.00E-08 (Density)    1.00E-11 (Energy)
 MAX. NUMBER OF ITERATIONS:       60
 INTERPOLATION TYPE:            DIIS
 INTERPOLATION STEPS:              2 (START)      1 (STEP)
 LEVEL SHIFTS:                  0.00 (CLOSED)  0.00 (OPEN) 



 Orbital guess generated from atomic densities. Full valence occupancy:    9

 Molecular orbital dump at record        2102.2

 Initial occupancy:   5

 ITERATION    DDIFF          GRAD             ENERGY        2-EL.EN.            DIPOLE MOMENTS         DIIS   ORB.
    1      0.000D+00      0.000D+00       -40.19609528     53.506289    0.00411   -0.00276   -0.00130    0    start
    2      0.000D+00      0.257D-02       -40.21334935     52.217623    0.00129   -0.00087   -0.00038    1    diag
    3      0.158D-02      0.998D-03       -40.21562527     52.672083    0.00182   -0.00123   -0.00055    2    diag
    4      0.442D-03      0.249D-03       -40.21594472     52.617270    0.00162   -0.00110   -0.00048    3    diag
    5      0.168D-03      0.322D-04       -40.21595021     52.619418    0.00159   -0.00108   -0.00047    4    diag
    6      0.423D-04      0.264D-05       -40.21595025     52.619554    0.00159   -0.00108   -0.00047    5    diag
    7      0.562D-05      0.212D-06       -40.21595025     52.619515    0.00159   -0.00108   -0.00047    6    diag
    8      0.229D-06      0.170D-07       -40.21595025     52.619516    0.00159   -0.00108   -0.00047    7    diag
    9      0.829D-07      0.218D-08       -40.21595025     52.619516    0.00159   -0.00108   -0.00047    8    diag
   10      0.818D-08      0.595D-09       -40.21595025     52.619516    0.00159   -0.00108   -0.00047    0    orth

 Final occupancy:   5

 !RHF STATE  1.1 Energy               -40.215950252662
 Nuclear energy                        13.68681606
 One-electron energy                  -80.21252439
 Two-electron energy                   26.30975808
 Virial quotient                       -0.99838103
 !RHF STATE  1.1 Dipole moment          0.00159175    -0.00107554    -0.00046749
 Dipole moment /Debye                   0.00404557    -0.00273356    -0.00118816

 Orbital energies:

         1.1          2.1          3.1          4.1          5.1          6.1          7.1
    -11.196223    -0.950661    -0.551889    -0.549955    -0.547776     0.024486     0.038824


 HOMO      5.1    -0.547776 =     -14.9057eV
 LUMO      6.1     0.024486 =       0.6663eV
 LUMO-HOMO         0.572262 =      15.5721eV


 **********************************************************************************************************************************
 DATASETS  * FILE   NREC   LENGTH (MB)   RECORD NAMES
              1      18       37.06       500      610      700      900      950      970     1000      129      960     1100   
                                          VAR    BASINP    GEOM    SYMINP    ZMAT    AOBASIS   BASIS     P2S    ABASIS      S 
                                         1400     1410     1200     1210     1080     1600     1650     1700   
                                           T        V       H0       H01     AOSYM     SMH    MOLCAS    OPER   

              2       7       27.51       700     1000      520     2100      200     2101     2102   
                                         GEOM     BASIS   MCVARS     RHF    OPTIONS    RHF      RHF  

 PROGRAMS   *        TOTAL    HF-SCF       INT   CCSD(T)    HF-SCF       INT   CCSD(T)    HF-SCF       INT
 CPU TIMES  *      8669.04    199.65      0.35   1508.91    236.97      0.38   6249.20    279.57    193.74
 REAL TIME  *      8917.51 SEC
 DISK USED  *         3.24 GB (local),       80.71 GB (total)
 SF USED    *         3.08 GB
 GA USED    *         0.00 MB       (max)       0.00 MB       (current)
 **********************************************************************************************************************************

 Basis set:  JKFIT                   
 Basis size:   740
 Attributes:
 Sphericals:   T
 Basis set:  MP2FIT                  
 Basis size:   816
 Attributes:
 Sphericals:   T
 Basis set:  RI                      
 Basis size:   556
 Attributes:
 Sphericals:   T
 Basis set:  TDDFT                   
 Basis size:   816
 Attributes:
 Sphericals:   T

 PROGRAM * CCSD (Closed-shell coupled cluster)     Authors: C. Hampel, H.-J. Werner, 1991, M. Deegan, P.J. Knowles, 1992


 Convergence thresholds:  THRVAR = 1.00D-08  THRDEN = 1.00D-10

 CCSD(T)     terms to be evaluated (factor= 1.000)


 Number of core orbitals:           1 (   1 )
 Number of closed-shell orbitals:   4 (   4 )
 Number of external orbitals:     431 ( 431 )

 Molecular orbitals read from record     2102.2  Type=RHF/CANONICAL (state 1.1)

 Number of N-1 electron functions:               4
 Number of N-2 electron functions:              10
 Number of singly external CSFs:              1724
 Number of doubly external CSFs:           1486950
 Total number of CSFs:                     1488675

 Length of J-op  integral file:               0.00 MB
 Length of K-op  integral file:              13.08 MB
 Length of 3-ext integral record:             0.00 MB

 Memory could be reduced to 526.20 Mwords without degradation in triples

 Integral transformation finished. Total CPU: 174.41 sec, npass=  1  Memory used: 214.76 MW

 Reference energy:                    -40.21595025

 MP2 singlet pair energy:              -0.15443366
 MP2 triplet pair energy:              -0.05646409
 MP2 correlation energy:               -0.21089775
 MP2 total energy:                    -40.42684800

 SCS-MP2 correlation energy:           -0.22045360   (PS=  1.200000  PT=  0.333333)
 SCS-MP2 total energy:                -40.43640385

 ITER.      SQ.NORM     CORR.ENERGY   TOTAL ENERGY   ENERGY CHANGE        DEN1      VAR(S)    VAR(P)  DIIS     TIME  TIME/IT
   1      1.07097394    -0.22688163   -40.44283188    -0.01598388    -0.01039658  0.55D-03  0.97D-03  1  1   229.02    55.77
   2      1.07611890    -0.22798171   -40.44393197    -0.00110009    -0.00547151  0.14D-04  0.92D-04  2  2   284.01    56.31
   3      1.07764027    -0.22802092   -40.44397117    -0.00003921    -0.00107337  0.18D-05  0.58D-05  3  3   338.86    56.46
   4      1.07800002    -0.22802661   -40.44397686    -0.00000569    -0.00017110  0.12D-06  0.28D-06  4  4   393.61    56.56
   5      1.07804807    -0.22802850   -40.44397875    -0.00000189    -0.00001304  0.10D-07  0.20D-07  5  5   448.28    56.51
   6      1.07805632    -0.22802729   -40.44397754     0.00000121    -0.00000328  0.64D-09  0.14D-08  6  6   501.77    56.32
   7      1.07805737    -0.22802699   -40.44397725     0.00000029    -0.00000056  0.46D-10  0.11D-09  6  1   555.97    56.28
   8      1.07805732    -0.22802704   -40.44397730    -0.00000005     0.00000022  0.47D-11  0.67D-11  6  3   609.68    56.17
   9      1.07805744    -0.22802703   -40.44397728     0.00000002    -0.00000008  0.40D-12  0.55D-12  6  2   663.68    56.14
  10      1.07805745    -0.22802703   -40.44397728     0.00000000     0.00000000  0.47D-13  0.57D-13  6  4   717.13    56.05
  11      1.07805745    -0.22802703   -40.44397728     0.00000000     0.00000000  0.43D-14  0.56D-14  6  5   771.35    56.05
  12      1.07805744    -0.22802703   -40.44397728     0.00000000     0.00000000  0.10D-15  0.62D-15  6  6   825.03    55.99
  13      1.07805744    -0.22802703   -40.44397728    -0.00000000     0.00000000  0.75D-17  0.60D-16  6  1   881.59    56.17
  14      1.07805744    -0.22802703   -40.44397728    -0.00000000     0.00000000  0.10D-17  0.76D-17  6  3   940.37    56.46

 Norm of t1 vector:      0.03128392      S-energy:    -0.00000000      T1 diagnostic:  0.00782098
                                                                       D1 diagnostic:  0.01257266

 Total CPU time for triples:    496.35 sec


 RESULTS
 =======

  Reference energy                    -40.215950252662
  CCSD singlet pair energy             -0.173331231743
  CCSD triplet pair energy             -0.054695794312
  CCSD correlation energy              -0.228027026059

  Triples (T) contribution             -0.006882354903
  Total correlation energy             -0.234909380962

  CCSD total energy                   -40.443977278722
  CCSD[T] energy                      -40.451072786125
  CCSD-T energy                       -40.450792026532
 !CCSD(T) total energy                -40.450859633624

 Timing summary (sec):

 STEP                 CPU(USER)    SYS     CPU(TOT)    WALL
 Transformation        174.77      6.37    181.14    181.38
 CCSD iterations       765.71     23.80    789.51    790.65
 Triples               496.35      5.25    501.60    502.22

 Program statistics:

 Available memory in ccsd:              1999999916
 Min. memory needed in ccsd:               6768234
 Max. memory used in ccsd:                 7865440
 Max. memory used in cckext:               5182436 (14 integral passes)



 **********************************************************************************************************************************
 DATASETS  * FILE   NREC   LENGTH (MB)   RECORD NAMES
              1      19     1346.95       500      610      700      900      950      970     1000      129      960     1100   
                                          VAR    BASINP    GEOM    SYMINP    ZMAT    AOBASIS   BASIS     P2S    ABASIS      S 
                                         1400     1410     1200     1210     1080     1600     1650     1700     1380   
                                           T        V       H0       H01     AOSYM     SMH    MOLCAS    OPER     JKOP   

              2       7       27.51       700     1000      520     2100      200     2101     2102   
                                         GEOM     BASIS   MCVARS     RHF    OPTIONS    RHF      RHF  

 PROGRAMS   *        TOTAL   CCSD(T)    HF-SCF       INT   CCSD(T)    HF-SCF       INT   CCSD(T)    HF-SCF       INT
 CPU TIMES  *     10106.11   1437.06    199.65      0.35   1508.91    236.97      0.38   6249.20    279.57    193.74
 REAL TIME  *     10392.68 SEC
 DISK USED  *         3.24 GB (local),       80.71 GB (total)
 SF USED    *         3.08 GB
 GA USED    *         0.00 MB       (max)       0.00 MB       (current)
 **********************************************************************************************************************************
 Molecular orbitals read from record     2102.2  Type=RHF/CANONICAL (state 1.1)
 Occupation numbers read from record     2102.2  Type=RHF/RHF (state 1.1)
 Orbital energies read from record       2102.2  Type=RHF/CANONICAL (state 1.1)
 Redundancy group numbers read from rec  2102.2  Type=RHF/RHF (state 1.1)

 CCSD(T)/aug-cc-pVQZ energy=    -40.450859633624

         CCSD(T)          HF-SCF         CCSD(T)          HF-SCF         CCSD(T)          HF-SCF
    -40.45085963    -40.21595025    -76.36299653    -76.06379383   -116.81411699   -116.27897562
 **********************************************************************************************************************************
 Molpro calculation terminated
