
 Primary working directories    : /scratch/klimes/383112/molpro.9HqEdTNryT
 Secondary working directories  : /scratch/klimes/383112/molpro.9HqEdTNryT
 Wavefunction directory         : /scratch/klimes/383112/
 Main file repository           : /scratch/klimes/383112/molpro.9HqEdTNryT/

 id        : karlovklimes

 Nodes                      nprocs
 nc-01.cc.karlov.mff.cuni.cz    4

 Using customized tuning parameters: mindgm=1; mindgv=20; mindgc=4; mindgr=1; noblas=0; minvec=7
 default implementation of scratch files=sf  


 Variables initialized (930), CPU time= 0.01 sec
                                                                                 !gdirect
 memory,2000,m
 gthresh,orbital=1d-10,energy=1d-10,grid=1d-8
 
 symmetry,nosym
 angstrom
 geometry={
 O9        -3.518900000000     -2.419500000000      0.991300000000
 H17        -3.388900000000     -3.371800000000      0.893300000000
 H18        -2.990700000000     -2.010200000000      0.231000000000
 C1        -3.277200000000      1.482500000000      1.271900000000
 H41        -2.464000000000      0.899600000000      1.651000000000
 H42        -3.160800000000      2.501000000000      1.578500000000
 H43        -4.201800000000      1.099200000000      1.650100000000
 H44        -3.268500000000      1.421000000000      0.203700000000
 }
 
 nkerna=1
 nkernb=1
 
 gf=0
 sing=1
 thrdum=1d-4
 gridthr=1d-8
 
 basis={
 set,orbital
 default,avqz
 set,jkfit
 default,avqz/jkfit
 set,mp2fit
 default,avqz/mp2fit
 set,ri
 default,avqz/optri
 set,tddft
 default,avqz/mp2fit
 }
 
 proc set_monomer1
 dummy,4,5,6,7,8
 endproc
 
 proc set_monomer2
 dummy,1,2,3
 endproc
 
                                                                                 !1234 energy
 {hf,accu=1.d-16}
 ccsd(t)
 
 set_monomer1
 {hf,accu=1.d-16}
 ccsd(t)
 
 set_monomer2
 {hf,accu=1.d-16}
 ccsd(t)
 
 Commands  initialized (760), CPU time= 0.02 sec, 617 directives.
 Default parameters read. Elapsed time= 0.20 sec

 Checking input...
 Passed
1


                                         ***  PROGRAM SYSTEM MOLPRO  ***
                                       Copyright, TTI GmbH Stuttgart, 2015
                                    Version 2019.1 linked Jan 14 2019 13:09:19


 **********************************************************************************************************************************
 LABEL *                                                                                 
  64 bit mpp version                                                                     DATE: 11-Mar-20          TIME: 13:21:26  
 **********************************************************************************************************************************

 SHA1:             d688ac825633d238f2093ded1675ba87ccd55965
 **********************************************************************************************************************************

 THRESHOLDS:

 ZERO    =  1.00D-12  ONEINT  =  1.00D-12  TWOINT  =  1.00D-11  PREFAC  =  1.00D-14  XXXXXX  =  1.00D-09  EORDER  =  1.00D-04
 ENERGY  =  1.00D-10  ETEST   =  0.00D+00  EDENS   =  0.00D+00  THRDEDEF=  1.00D-06  GRADIENT=  1.00D-02  STEP    =  1.00D-03
 ORBITAL =  1.00D-10  CIVEC   =  1.00D-05  COEFF   =  1.00D-04  PRINTCI =  5.00D-02  PUNCHCI =  9.90D+01  OPTGRAD =  3.00D-04
 OPTENERG=  1.00D-06  OPTSTEP =  3.00D-04  THRGRAD =  1.00D-10  COMPRESS=  1.00D-11  VARMIN  =  1.00D-07  VARMAX  =  1.00D-03
 THRDOUB =  0.00D+00  THRDIV  =  1.00D-05  THRRED  =  1.00D-07  THRPSP  =  1.00D+00  THRDC   =  1.00D-10  THRCS   =  1.00D-10
 THRNRM  =  1.00D-08  THREQ   =  0.00D+00  THRDE   =  1.00D+00  THRREF  =  1.00D-05  SPARFAC =  1.00D+00  THRDLP  =  1.00D-07
 THRDIA  =  1.00D-10  THRDLS  =  1.00D-07  THRGPS  =  0.00D+00  THRKEX  =  0.00D+00  THRDIS  =  2.00D-01  THRVAR  =  1.00D-10
 THRLOC  =  1.00D-06  THRGAP  =  1.00D-06  THRLOCT = -1.00D+00  THRGAPT = -1.00D+00  THRORB  =  1.00D-06  THRMLTP =  0.00D+00
 THRCPQCI=  1.00D-10  KEXTA   =  0.00D+00  THRCOARS=  0.00D+00  SYMTOL  =  1.00D-06  GRADTOL =  1.00D-06  THROVL  =  1.00D-08
 THRORTH =  1.00D-08  GRID    =  1.00D-08  GRIDMAX =  1.00D-03  DTMAX   =  0.00D+00  THROCCDE=  1.00D-01  THROCCDE=  1.00D-01
 THRPRINT=  2.50D-01


 Variable memory set to 2000000000 words,  buffer space 

 ZSYMEL=NOSYM
 ZUNIT=ANG


Geometry recognized as XYZ

 SETTING NKERNA         =         1.00000000                                  
 SETTING NKERNB         =         1.00000000                                  
 SETTING GF             =     0.00000000D+00                                  
 SETTING SING           =         1.00000000                                  
 SETTING THRDUM         =     1.00000000D-04                                  
 SETTING GRIDTHR        =     1.00000000D-08                                  
 SETTING BASIS          =    AVQZ


 Recomputing integrals since basis changed


 Using spherical harmonics

 Library entry O      S aug-cc-pVQZ          selected for orbital group  1
 Library entry O      P aug-cc-pVQZ          selected for orbital group  1
 Library entry O      D aug-cc-pVQZ          selected for orbital group  1
 Library entry O      F aug-cc-pVQZ          selected for orbital group  1
 Library entry O      G aug-cc-pVQZ          selected for orbital group  1
 Library entry H      S aug-cc-pVQZ          selected for orbital group  2
 Library entry H      P aug-cc-pVQZ          selected for orbital group  2
 Library entry H      D aug-cc-pVQZ          selected for orbital group  2
 Library entry H      F aug-cc-pVQZ          selected for orbital group  2
 Library entry C      S aug-cc-pVQZ          selected for orbital group  3
 Library entry C      P aug-cc-pVQZ          selected for orbital group  3
 Library entry C      D aug-cc-pVQZ          selected for orbital group  3
 Library entry C      F aug-cc-pVQZ          selected for orbital group  3
 Library entry C      G aug-cc-pVQZ          selected for orbital group  3


 PROGRAM * SEWARD (Integral evaluation for generally contracted gaussian basis sets)     Author: Roland Lindh, 1990

 Geometry written to block  1 of record 700


 Point group  C1  



 ATOMIC COORDINATES

 NR  ATOM    CHARGE       X              Y              Z

   1  O9      8.00   -6.649757260   -4.572192358    1.873285507
   2  H17     1.00   -6.404092864   -6.371778547    1.688092347
   3  H18     1.00   -5.651603921   -3.798727456    0.436526735
   4  C1      6.00   -6.193010455    2.801518980    2.403542658
   5  H41     1.00   -4.656285171    1.699997622    3.119937832
   6  H42     1.00   -5.973046335    4.726205038    2.982932688
   7  H43     1.00   -7.940251230    2.077186956    3.118237078
   8  H44     1.00   -6.176569838    2.685300823    0.384937212

 Bond lengths in Bohr (Angstrom)

 1-2  1.825693827  1-3  1.912807835  4-5  2.021904040  4-6  2.022002335  4-7  2.021953343
     ( 0.966115568)     ( 1.012214315)     ( 1.069945541)     ( 1.069997556)     ( 1.069971630)

 4-8  2.022015060
     ( 1.070004290)

 Bond angles

  2-1-3  104.60595341   5-4-6  109.53398059   5-4-7  109.65604535   5-4-8  108.43490854

  6-4-7  109.49436728   6-4-8  109.86987750   7-4-8  109.83468330

 NUCLEAR CHARGE:                   20
 NUMBER OF PRIMITIVE AOS:         578
 NUMBER OF SYMMETRY AOS:          474
 NUMBER OF CONTRACTIONS:          436   (  436A   )
 NUMBER OF CORE ORBITALS:           2   (    2A   )
 NUMBER OF VALENCE ORBITALS:       14   (   14A   )


 NUCLEAR REPULSION ENERGY   35.88176990


 Basis set:  JKFIT                   
 Basis size:   740
 Attributes:
 Sphericals:   T
 Basis set:  MP2FIT                  
 Basis size:   816
 Attributes:
 Sphericals:   T
 Basis set:  RI                      
 Basis size:   556
 Attributes:
 Sphericals:   T
 Basis set:  TDDFT                   
 Basis size:   816
 Attributes:
 Sphericals:   T

 **********************************************************************************************************************************


 Eigenvalues of metric

         1 0.148E-04 0.188E-04 0.367E-04 0.375E-04 0.626E-04 0.906E-04 0.930E-04 0.949E-04


 Contracted 2-electron integrals neglected if value below      1.0D-14
 AO integral compression algorithm  1   Integral accuracy      1.0D-14

     21484.798 MB (compressed) written to integral file ( 53.6%)

     Node minimum: 4822.663 MB, node maximum: 5857.346 MB


 NUMBER OF SORTED TWO-ELECTRON INTEGRALS: 1134451344.     BUFFER LENGTH:  32768
 NUMBER OF SEGMENTS:  36  SEGMENT LENGTH:   31999984      RECORD LENGTH: 524288

 Memory used in sort:      32.56 MW

 SORT1 READ  5012305700. AND WROTE   922322009. INTEGRALS IN   2655 RECORDS. CPU TIME:    94.28 SEC, REAL TIME:   106.67 SEC
 SORT2 READ  3686537952. AND WROTE  4537853011. INTEGRALS IN  73588 RECORDS. CPU TIME:    19.54 SEC, REAL TIME:    28.33 SEC

 Node minimum:  1134427528.  Node maximum:  1134498978. integrals

 OPERATOR DM      FOR CENTER  0  COORDINATES:    0.000000    0.000000    0.000000


 **********************************************************************************************************************************
 DATASETS  * FILE   NREC   LENGTH (MB)   RECORD NAMES
              1      18       37.06       500      610      700      900      950      970     1000      129      960     1100   
                                          VAR    BASINP    GEOM    SYMINP    ZMAT    AOBASIS   BASIS     P2S    ABASIS      S 
                                         1400     1410     1200     1210     1080     1600     1650     1700   
                                           T        V       H0       H01     AOSYM     SMH    MOLCAS    OPER   

 PROGRAMS   *        TOTAL       INT
 CPU TIMES  *       180.13    179.92
 REAL TIME  *       210.47 SEC
 DISK USED  *        37.58 MB (local),       65.74 GB (total)
 GA USED    *         0.00 MB       (max)       0.00 MB       (current)
 **********************************************************************************************************************************


 PROGRAM * RHF-SCF (CLOSED SHELL)       Authors: W. Meyer, H.-J. Werner


 NUMBER OF ELECTRONS:      10+   10-    SPACE SYMMETRY=1    SPIN SYMMETRY: Singlet 
 CONVERGENCE THRESHOLDS:    1.00E-08 (Density)    1.00E-11 (Energy)
 MAX. NUMBER OF ITERATIONS:       60
 INTERPOLATION TYPE:            DIIS
 INTERPOLATION STEPS:              2 (START)      1 (STEP)
 LEVEL SHIFTS:                  0.00 (CLOSED)  0.00 (OPEN) 



 Orbital guess generated from atomic densities. Full valence occupancy:   16

 Molecular orbital dump at record        2100.2

 Initial occupancy:  10

 ITERATION    DDIFF          GRAD             ENERGY        2-EL.EN.            DIPOLE MOMENTS         DIIS   ORB.
    1      0.000D+00      0.000D+00      -116.21780680    157.536602    0.64546   -0.51561   -0.83905    0    start
    2      0.000D+00      0.380D-02      -116.26207460    152.448863    0.34016   -0.32997   -0.44354    1    diag
    3      0.274D-02      0.226D-02      -116.27619805    154.565433    0.41828   -0.38030   -0.54290    2    diag
    4      0.961D-03      0.333D-03      -116.27686785    154.451793    0.41149   -0.37740   -0.53312    3    diag
    5      0.203D-03      0.988D-04      -116.27693992    154.446552    0.41076   -0.37829   -0.53200    4    diag
    6      0.829D-04      0.241D-04      -116.27694402    154.452228    0.41019   -0.37830   -0.53117    5    diag
    7      0.223D-04      0.501D-05      -116.27694429    154.450542    0.41016   -0.37841   -0.53112    6    diag
    8      0.668D-05      0.133D-05      -116.27694431    154.450727    0.41011   -0.37843   -0.53104    7    diag
    9      0.148D-05      0.297D-06      -116.27694431    154.450699    0.41009   -0.37842   -0.53102    8    diag
   10      0.432D-06      0.341D-07      -116.27694431    154.450700    0.41009   -0.37842   -0.53102    9    orth
   11      0.436D-07      0.823D-08      -116.27694431    154.450701    0.41009   -0.37842   -0.53102    9    diag
   12      0.965D-08      0.212D-08      -116.27694431    154.450701    0.41009   -0.37842   -0.53102    0    orth

 Final occupancy:  10

 !RHF STATE  1.1 Energy              -116.276944311783
 Nuclear energy                        35.88176990
 One-electron energy                 -229.38406474
 Two-electron energy                   77.22535053
 Virial quotient                       -1.00100761
 !RHF STATE  1.1 Dipole moment          0.41008971    -0.37842313    -0.53102276
 Dipole moment /Debye                   1.04227581    -0.96179266    -1.34963682

 Orbital energies:

         1.1          2.1          3.1          4.1          5.1          6.1          7.1          8.1          9.1         10.1
    -20.569781   -11.191483    -1.337158    -0.945968    -0.700812    -0.578373    -0.547740    -0.544434    -0.543223    -0.507710

        11.1         12.1
      0.024018     0.035263


 HOMO     10.1    -0.507710 =     -13.8155eV
 LUMO     11.1     0.024018 =       0.6536eV
 LUMO-HOMO         0.531728 =      14.4691eV


 **********************************************************************************************************************************
 DATASETS  * FILE   NREC   LENGTH (MB)   RECORD NAMES
              1      18       37.06       500      610      700      900      950      970     1000      129      960     1100   
                                          VAR    BASINP    GEOM    SYMINP    ZMAT    AOBASIS   BASIS     P2S    ABASIS      S 
                                         1400     1410     1200     1210     1080     1600     1650     1700   
                                           T        V       H0       H01     AOSYM     SMH    MOLCAS    OPER   

              2       4        6.75       700     1000      520     2100   
                                         GEOM     BASIS   MCVARS     RHF  

 PROGRAMS   *        TOTAL    HF-SCF       INT
 CPU TIMES  *       452.38    272.24    179.92
 REAL TIME  *       503.15 SEC
 DISK USED  *        57.63 MB (local),       65.82 GB (total)
 SF USED    *         0.76 MB
 GA USED    *         0.00 MB       (max)       0.00 MB       (current)
 **********************************************************************************************************************************

 Basis set:  JKFIT                   
 Basis size:   740
 Attributes:
 Sphericals:   T
 Basis set:  MP2FIT                  
 Basis size:   816
 Attributes:
 Sphericals:   T
 Basis set:  RI                      
 Basis size:   556
 Attributes:
 Sphericals:   T
 Basis set:  TDDFT                   
 Basis size:   816
 Attributes:
 Sphericals:   T

 PROGRAM * CCSD (Closed-shell coupled cluster)     Authors: C. Hampel, H.-J. Werner, 1991, M. Deegan, P.J. Knowles, 1992


 Convergence thresholds:  THRVAR = 1.00D-08  THRDEN = 1.00D-10

 CCSD(T)     terms to be evaluated (factor= 1.000)


 Number of core orbitals:           2 (   2 )
 Number of closed-shell orbitals:   8 (   8 )
 Number of external orbitals:     426 ( 426 )

 Molecular orbitals read from record     2100.2  Type=RHF/CANONICAL (state 1.1)

 Number of N-1 electron functions:               8
 Number of N-2 electron functions:              36
 Number of singly external CSFs:              3408
 Number of doubly external CSFs:           5808936
 Total number of CSFs:                     5812345

 Length of J-op  integral file:               0.00 MB
 Length of K-op  integral file:              13.08 MB
 Length of 3-ext integral record:             0.00 MB

 Memory could be reduced to 828.85 Mwords without degradation in triples

 Integral transformation finished. Total CPU: 326.59 sec, npass=  1  Memory used: 389.48 MW

 Reference energy:                   -116.27694431

 MP2 singlet pair energy:              -0.34129379
 MP2 triplet pair energy:              -0.15851740
 MP2 correlation energy:               -0.49981119
 MP2 total energy:                   -116.77675550

 SCS-MP2 correlation energy:           -0.50818560   (PS=  1.200000  PT=  0.333333)
 SCS-MP2 total energy:               -116.78512991

 ITER.      SQ.NORM     CORR.ENERGY   TOTAL ENERGY   ENERGY CHANGE        DEN1      VAR(S)    VAR(P)  DIIS     TIME  TIME/IT
   1      1.13630142    -0.51739756  -116.79434188    -0.01758638    -0.00599101  0.14D-02  0.21D-02  1  1   485.77   159.20
   2      1.14499133    -0.51875385  -116.79569816    -0.00135628    -0.01030407  0.28D-04  0.25D-03  2  2   644.84   160.18
   3      1.14827478    -0.51888231  -116.79582662    -0.00012846    -0.00229658  0.12D-04  0.13D-04  3  3   804.21   160.56
   4      1.14915831    -0.51888601  -116.79583032    -0.00000370    -0.00041717  0.62D-06  0.12D-05  4  4   963.69   160.73
   5      1.14931997    -0.51888569  -116.79583000     0.00000032    -0.00004750  0.21D-06  0.88D-07  5  5  1123.30   160.89
   6      1.14937029    -0.51888187  -116.79582618     0.00000383    -0.00001197  0.20D-07  0.63D-08  6  6  1283.20   161.04
   7      1.14937981    -0.51888087  -116.79582519     0.00000099    -0.00000141  0.17D-08  0.87D-09  6  2  1442.30   161.07
   8      1.14938184    -0.51888075  -116.79582506     0.00000012     0.00000008  0.28D-09  0.92D-10  6  1  1601.89   161.11
   9      1.14938272    -0.51888069  -116.79582500     0.00000006    -0.00000004  0.20D-10  0.13D-10  6  3  1761.60   161.16
  10      1.14938282    -0.51888069  -116.79582500     0.00000000     0.00000008  0.25D-11  0.16D-11  6  4  1921.16   161.20
  11      1.14938279    -0.51888070  -116.79582501    -0.00000001     0.00000006  0.45D-12  0.24D-12  6  5  2080.71   161.23
  12      1.14938276    -0.51888070  -116.79582501    -0.00000000     0.00000002  0.98D-13  0.31D-13  6  6  2240.17   161.25
  13      1.14938274    -0.51888070  -116.79582501    -0.00000000     0.00000001  0.17D-13  0.48D-14  6  2  2399.47   161.25
  14      1.14938273    -0.51888070  -116.79582501    -0.00000000     0.00000000  0.22D-14  0.11D-14  6  1  2559.37   161.27
  15      1.14938273    -0.51888070  -116.79582501    -0.00000000     0.00000000  0.24D-15  0.14D-15  6  3  2718.72   161.27
  16      1.14938273    -0.51888070  -116.79582501    -0.00000000    -0.00000000  0.30D-16  0.19D-16  6  4  2878.27   161.29
  17      1.14938273    -0.51888070  -116.79582501     0.00000000    -0.00000000  0.60D-17  0.30D-17  6  5  3038.03   161.31

 Norm of t1 vector:      0.05064629      S-energy:    -0.00000000      T1 diagnostic:  0.00895308
                                                                       D1 diagnostic:  0.02081388

   CPU time for triples:   2039.02 sec for i =  1 -  7 /  8 (~  68.8 % done)
   CPU time for triples:    810.28 sec for i =  8 -  8 /  8 (  100.0 % done)

 Total CPU time for triples:   2854.06 sec


 RESULTS
 =======

  Reference energy                   -116.276944311783
  CCSD singlet pair energy             -0.374082048122
  CCSD triplet pair energy             -0.144798652470
  CCSD correlation energy              -0.518880700837

  Triples (T) contribution             -0.016680408442
  Total correlation energy             -0.535561109279

  CCSD total energy                  -116.795825012620
  CCSD[T] energy                     -116.813049585126
  CCSD-T energy                      -116.812277137541
 !CCSD(T) total energy               -116.812505421062

 Timing summary (sec):

 STEP                 CPU(USER)    SYS     CPU(TOT)    WALL
 Transformation        327.79      7.68    335.47    337.28
 CCSD iterations      2710.36     28.88   2739.24   2742.47
 Triples              2854.06      9.84   2863.90   2868.34

 Program statistics:

 Available memory in ccsd:              1999999734
 Min. memory needed in ccsd:              17010489
 Max. memory used in ccsd:                22038113
 Max. memory used in cckext:              15155228 (17 integral passes)



 **********************************************************************************************************************************
 DATASETS  * FILE   NREC   LENGTH (MB)   RECORD NAMES
              1      19     2602.11       500      610      700      900      950      970     1000      129      960     1100   
                                          VAR    BASINP    GEOM    SYMINP    ZMAT    AOBASIS   BASIS     P2S    ABASIS      S 
                                         1400     1410     1200     1210     1080     1600     1650     1700     1380   
                                           T        V       H0       H01     AOSYM     SMH    MOLCAS    OPER     JKOP   

              2       4        6.75       700     1000      520     2100   
                                         GEOM     BASIS   MCVARS     RHF  

 PROGRAMS   *        TOTAL   CCSD(T)    HF-SCF       INT
 CPU TIMES  *      6344.83   5892.45    272.24    179.92
 REAL TIME  *      6452.12 SEC
 DISK USED  *         3.24 GB (local),       76.65 GB (total)
 SF USED    *         3.08 GB
 GA USED    *         0.00 MB       (max)       0.00 MB       (current)
 **********************************************************************************************************************************

 Running procedure: SET_MONOMER1

 Dummy atoms: C1  H41  H42  H43  H44


 Recomputing one-electron integrals since nuclear charges changed


 PROGRAM * SEWARD (Integral evaluation for generally contracted gaussian basis sets)     Author: Roland Lindh, 1990

 Geometry written to block  1 of record 700


 Point group  C1  



 ATOMIC COORDINATES

 NR  ATOM    CHARGE       X              Y              Z

   1  O9      8.00   -6.649757260   -4.572192358    1.873285507
   2  H17     1.00   -6.404092864   -6.371778547    1.688092347
   3  H18     1.00   -5.651603921   -3.798727456    0.436526735
   4  C1      0.00   -6.193010455    2.801518980    2.403542658
   5  H41     0.00   -4.656285171    1.699997622    3.119937832
   6  H42     0.00   -5.973046335    4.726205038    2.982932688
   7  H43     0.00   -7.940251230    2.077186956    3.118237078
   8  H44     0.00   -6.176569838    2.685300823    0.384937212

 Bond lengths in Bohr (Angstrom)

 1-2  1.825693827  1-3  1.912807835  4-5  2.021904040  4-6  2.022002335  4-7  2.021953343
     ( 0.966115568)     ( 1.012214315)     ( 1.069945541)     ( 1.069997556)     ( 1.069971630)

 4-8  2.022015060
     ( 1.070004290)

 Bond angles

  2-1-3  104.60595341   5-4-6  109.53398059   5-4-7  109.65604535   5-4-8  108.43490854

  6-4-7  109.49436728   6-4-8  109.86987750   7-4-8  109.83468330

 NUCLEAR CHARGE:                   10
 NUMBER OF PRIMITIVE AOS:         578
 NUMBER OF SYMMETRY AOS:          474
 NUMBER OF CONTRACTIONS:          436   (  436A   )
 NUMBER OF CORE ORBITALS:           1   (    1A   )
 NUMBER OF VALENCE ORBITALS:        6   (    6A   )

 MOLECULE CHANGED: INITIALIZING OCCUPATION AND DUMP RECORDS


 NUCLEAR REPULSION ENERGY    8.90222806

 Basis set:  JKFIT                   
 Basis size:   740
 Attributes:
 Sphericals:   T
 Basis set:  MP2FIT                  
 Basis size:   816
 Attributes:
 Sphericals:   T
 Basis set:  RI                      
 Basis size:   556
 Attributes:
 Sphericals:   T
 Basis set:  TDDFT                   
 Basis size:   816
 Attributes:
 Sphericals:   T

 Eigenvalues of metric

         1 0.148E-04 0.188E-04 0.367E-04 0.375E-04 0.626E-04 0.906E-04 0.930E-04 0.949E-04


 Contracted 2-electron integrals neglected if value below      1.0D-14

 OPERATOR DM      FOR CENTER  0  COORDINATES:    0.000000    0.000000    0.000000


 **********************************************************************************************************************************
 DATASETS  * FILE   NREC   LENGTH (MB)   RECORD NAMES
              1      18       37.06       500      610      700      900      950      970     1000      129      960     1100   
                                          VAR    BASINP    GEOM    SYMINP    ZMAT    AOBASIS   BASIS     P2S    ABASIS      S 
                                         1400     1410     1200     1210     1080     1600     1650     1700   
                                           T        V       H0       H01     AOSYM     SMH    MOLCAS    OPER   

              2       5       10.59       700     1000      520     2100      200   
                                         GEOM     BASIS   MCVARS     RHF    OPTIONS    

 PROGRAMS   *        TOTAL       INT   CCSD(T)    HF-SCF       INT
 CPU TIMES  *      6345.21      0.37   5892.45    272.24    179.92
 REAL TIME  *      6453.34 SEC
 DISK USED  *         3.24 GB (local),       76.66 GB (total)
 SF USED    *         3.08 GB
 GA USED    *         0.00 MB       (max)       0.00 MB       (current)
 **********************************************************************************************************************************


 PROGRAM * RHF-SCF (CLOSED SHELL)       Authors: W. Meyer, H.-J. Werner


 NUMBER OF ELECTRONS:       5+    5-    SPACE SYMMETRY=1    SPIN SYMMETRY: Singlet 
 CONVERGENCE THRESHOLDS:    1.00E-08 (Density)    1.00E-11 (Energy)
 MAX. NUMBER OF ITERATIONS:       60
 INTERPOLATION TYPE:            DIIS
 INTERPOLATION STEPS:              2 (START)      1 (STEP)
 LEVEL SHIFTS:                  0.00 (CLOSED)  0.00 (OPEN) 



 Orbital guess generated from atomic densities. Full valence occupancy:    7

 Molecular orbital dump at record        2101.2

 Initial occupancy:   5

 ITERATION    DDIFF          GRAD             ENERGY        2-EL.EN.            DIPOLE MOMENTS         DIIS   ORB.
    1      0.000D+00      0.000D+00       -76.02190362     77.275403    0.64181   -0.51263   -0.83837    0    start
    2      0.000D+00      0.468D-02       -76.04881289     73.572640    0.36411   -0.30622   -0.47429    1    diag
    3      0.222D-02      0.302D-02       -76.06081457     75.224824    0.43301   -0.36065   -0.56436    2    diag
    4      0.853D-03      0.282D-03       -76.06101835     75.132900    0.42921   -0.36069   -0.55914    3    diag
    5      0.106D-03      0.811D-04       -76.06104185     75.147799    0.42775   -0.36084   -0.55711    4    diag
    6      0.351D-04      0.166D-04       -76.06104347     75.146638    0.42736   -0.36098   -0.55658    5    diag
    7      0.922D-05      0.344D-05       -76.06104356     75.146785    0.42725   -0.36101   -0.55642    6    diag
    8      0.249D-05      0.621D-06       -76.06104356     75.146767    0.42722   -0.36100   -0.55638    7    diag
    9      0.430D-06      0.864D-07       -76.06104356     75.146758    0.42722   -0.36100   -0.55638    8    diag
   10      0.500D-07      0.214D-07       -76.06104356     75.146761    0.42722   -0.36100   -0.55638    9    orth
   11      0.128D-07      0.543D-08       -76.06104356     75.146761    0.42722   -0.36100   -0.55638    9    diag
   12      0.382D-08      0.103D-08       -76.06104356     75.146761    0.42722   -0.36100   -0.55638    0    orth

 Final occupancy:   5

 !RHF STATE  1.1 Energy               -76.061043557574
 Nuclear energy                         8.90222806
 One-electron energy                 -122.53665191
 Two-electron energy                   37.57338029
 Virial quotient                       -1.00241469
 !RHF STATE  1.1 Dipole moment          0.42722079    -0.36099612    -0.55637904
 Dipole moment /Debye                   1.08581582    -0.91750053    -1.41408184

 Orbital energies:

         1.1          2.1          3.1          4.1          5.1          6.1          7.1
    -20.570058    -1.337393    -0.701034    -0.578477    -0.507983     0.020681     0.032143


 HOMO      5.1    -0.507983 =     -13.8229eV
 LUMO      6.1     0.020681 =       0.5628eV
 LUMO-HOMO         0.528664 =      14.3857eV


 **********************************************************************************************************************************
 DATASETS  * FILE   NREC   LENGTH (MB)   RECORD NAMES
              1      18       37.06       500      610      700      900      950      970     1000      129      960     1100   
                                          VAR    BASINP    GEOM    SYMINP    ZMAT    AOBASIS   BASIS     P2S    ABASIS      S 
                                         1400     1410     1200     1210     1080     1600     1650     1700   
                                           T        V       H0       H01     AOSYM     SMH    MOLCAS    OPER   

              2       6       17.39       700     1000      520     2100      200     2101   
                                         GEOM     BASIS   MCVARS     RHF    OPTIONS    RHF  

 PROGRAMS   *        TOTAL    HF-SCF       INT   CCSD(T)    HF-SCF       INT
 CPU TIMES  *      6581.02    235.80      0.37   5892.45    272.24    179.92
 REAL TIME  *      6719.17 SEC
 DISK USED  *         3.24 GB (local),       76.66 GB (total)
 SF USED    *         3.08 GB
 GA USED    *         0.00 MB       (max)       0.00 MB       (current)
 **********************************************************************************************************************************

 Basis set:  JKFIT                   
 Basis size:   740
 Attributes:
 Sphericals:   T
 Basis set:  MP2FIT                  
 Basis size:   816
 Attributes:
 Sphericals:   T
 Basis set:  RI                      
 Basis size:   556
 Attributes:
 Sphericals:   T
 Basis set:  TDDFT                   
 Basis size:   816
 Attributes:
 Sphericals:   T

 PROGRAM * CCSD (Closed-shell coupled cluster)     Authors: C. Hampel, H.-J. Werner, 1991, M. Deegan, P.J. Knowles, 1992


 Convergence thresholds:  THRVAR = 1.00D-08  THRDEN = 1.00D-10

 CCSD(T)     terms to be evaluated (factor= 1.000)


 Number of core orbitals:           1 (   1 )
 Number of closed-shell orbitals:   4 (   4 )
 Number of external orbitals:     431 ( 431 )

 Molecular orbitals read from record     2101.2  Type=RHF/CANONICAL (state 1.1)

 Number of N-1 electron functions:               4
 Number of N-2 electron functions:              10
 Number of singly external CSFs:              1724
 Number of doubly external CSFs:           1486950
 Total number of CSFs:                     1488675

 Length of J-op  integral file:               0.00 MB
 Length of K-op  integral file:              13.08 MB
 Length of 3-ext integral record:             0.00 MB

 Memory could be reduced to 526.20 Mwords without degradation in triples

 Integral transformation finished. Total CPU: 160.64 sec, npass=  1  Memory used: 214.76 MW

 Reference energy:                    -76.06104356

 MP2 singlet pair energy:              -0.18672923
 MP2 triplet pair energy:              -0.10165969
 MP2 correlation energy:               -0.28838891
 MP2 total energy:                    -76.34943247

 SCS-MP2 correlation energy:           -0.28732999   (PS=  1.200000  PT=  0.333333)
 SCS-MP2 total energy:                -76.34837355

 ITER.      SQ.NORM     CORR.ENERGY   TOTAL ENERGY   ENERGY CHANGE        DEN1      VAR(S)    VAR(P)  DIIS     TIME  TIME/IT
   1      1.06512727    -0.29003676   -76.35108032    -0.00164785     0.00435329  0.88D-03  0.11D-02  1  1   214.72    55.65
   2      1.06889110    -0.29029798   -76.35134154    -0.00026122    -0.00501333  0.15D-04  0.13D-03  2  2   269.12    56.36
   3      1.07042255    -0.29038358   -76.35142714    -0.00008560    -0.00105512  0.92D-05  0.67D-05  3  3   323.60    56.65
   4      1.07092332    -0.29038338   -76.35142693     0.00000020    -0.00023104  0.50D-06  0.78D-06  4  4   378.19    56.69
   5      1.07103110    -0.29038110   -76.35142466     0.00000227    -0.00003309  0.17D-06  0.51D-07  5  5   433.96    57.02
   6      1.07107013    -0.29037787   -76.35142143     0.00000323    -0.00000896  0.15D-07  0.37D-08  6  6   486.73    56.71
   7      1.07107740    -0.29037752   -76.35142107     0.00000035    -0.00000054  0.11D-08  0.59D-09  6  1   536.84    56.14
   8      1.07107876    -0.29037746   -76.35142102     0.00000006     0.00000023  0.18D-09  0.68D-10  6  2   586.76    55.73
   9      1.07107941    -0.29037741   -76.35142096     0.00000005    -0.00000001  0.12D-10  0.70D-11  6  3   638.37    55.57
  10      1.07107949    -0.29037740   -76.35142096     0.00000001     0.00000003  0.22D-11  0.93D-12  6  4   689.97    55.45
  11      1.07107948    -0.29037740   -76.35142096    -0.00000000     0.00000002  0.46D-12  0.16D-12  6  5   741.94    55.38
  12      1.07107947    -0.29037740   -76.35142096    -0.00000000     0.00000001  0.88D-13  0.23D-13  6  6   793.80    55.29
  13      1.07107946    -0.29037741   -76.35142096    -0.00000000     0.00000000  0.12D-13  0.40D-14  6  1   845.58    55.24
  14      1.07107945    -0.29037741   -76.35142096    -0.00000000     0.00000000  0.12D-14  0.82D-15  6  2   897.62    55.18
  15      1.07107945    -0.29037741   -76.35142096    -0.00000000     0.00000000  0.13D-15  0.10D-15  6  3   949.41    55.08
  16      1.07107945    -0.29037741   -76.35142096    -0.00000000     0.00000000  0.16D-16  0.13D-16  6  4  1001.18    55.04

 Norm of t1 vector:      0.03934345      S-energy:    -0.00000000      T1 diagnostic:  0.00983586
                                                                       D1 diagnostic:  0.02058071


 Total CPU time for triples:    428.95 sec


 RESULTS
 =======

  Reference energy                    -76.061043557572
  CCSD singlet pair energy             -0.200669502735
  CCSD triplet pair energy             -0.089707903305
  CCSD correlation energy              -0.290377406099

  Triples (T) contribution             -0.009710033120
  Total correlation energy             -0.300087439220

  CCSD total energy                   -76.351420963671
  CCSD[T] energy                      -76.361458927018
  CCSD-T energy                       -76.360972068256
 !CCSD(T) total energy                -76.361130996791

 Timing summary (sec):

 STEP                 CPU(USER)    SYS     CPU(TOT)    WALL
 Transformation        161.04      5.47    166.51    166.71
 CCSD iterations       840.22     39.76    879.98    880.85
 Triples               428.95      1.78    430.73    431.42

 Program statistics:

 Available memory in ccsd:              1999999921
 Min. memory needed in ccsd:               6768234
 Max. memory used in ccsd:                 7865440
 Max. memory used in cckext:               5182436 (16 integral passes)



 **********************************************************************************************************************************
 DATASETS  * FILE   NREC   LENGTH (MB)   RECORD NAMES
              1      19     1346.95       500      610      700      900      950      970     1000      129      960     1100   
                                          VAR    BASINP    GEOM    SYMINP    ZMAT    AOBASIS   BASIS     P2S    ABASIS      S 
                                         1400     1410     1200     1210     1080     1600     1650     1700     1380   
                                           T        V       H0       H01     AOSYM     SMH    MOLCAS    OPER     JKOP   

              2       6       17.39       700     1000      520     2100      200     2101   
                                         GEOM     BASIS   MCVARS     RHF    OPTIONS    RHF  

 PROGRAMS   *        TOTAL   CCSD(T)    HF-SCF       INT   CCSD(T)    HF-SCF       INT
 CPU TIMES  *      8011.46   1430.43    235.80      0.37   5892.45    272.24    179.92
 REAL TIME  *      8199.07 SEC
 DISK USED  *         3.24 GB (local),       76.66 GB (total)
 SF USED    *         3.08 GB
 GA USED    *         0.00 MB       (max)       0.00 MB       (current)
 **********************************************************************************************************************************

 Running procedure: SET_MONOMER2

 Dummy atoms: O9  H17  H18


 Recomputing one-electron integrals since nuclear charges changed


 PROGRAM * SEWARD (Integral evaluation for generally contracted gaussian basis sets)     Author: Roland Lindh, 1990

 Geometry written to block  1 of record 700


 Point group  C1  



 ATOMIC COORDINATES

 NR  ATOM    CHARGE       X              Y              Z

   1  O9      0.00   -6.649757260   -4.572192358    1.873285507
   2  H17     0.00   -6.404092864   -6.371778547    1.688092347
   3  H18     0.00   -5.651603921   -3.798727456    0.436526735
   4  C1      6.00   -6.193010455    2.801518980    2.403542658
   5  H41     1.00   -4.656285171    1.699997622    3.119937832
   6  H42     1.00   -5.973046335    4.726205038    2.982932688
   7  H43     1.00   -7.940251230    2.077186956    3.118237078
   8  H44     1.00   -6.176569838    2.685300823    0.384937212

 Bond lengths in Bohr (Angstrom)

 1-2  1.825693827  1-3  1.912807835  4-5  2.021904040  4-6  2.022002335  4-7  2.021953343
     ( 0.966115568)     ( 1.012214315)     ( 1.069945541)     ( 1.069997556)     ( 1.069971630)

 4-8  2.022015060
     ( 1.070004290)

 Bond angles

  2-1-3  104.60595341   5-4-6  109.53398059   5-4-7  109.65604535   5-4-8  108.43490854

  6-4-7  109.49436728   6-4-8  109.86987750   7-4-8  109.83468330

 NUCLEAR CHARGE:                   10
 NUMBER OF PRIMITIVE AOS:         578
 NUMBER OF SYMMETRY AOS:          474
 NUMBER OF CONTRACTIONS:          436   (  436A   )
 NUMBER OF CORE ORBITALS:           1   (    1A   )
 NUMBER OF VALENCE ORBITALS:        8   (    8A   )

 MOLECULE CHANGED: INITIALIZING OCCUPATION AND DUMP RECORDS


 NUCLEAR REPULSION ENERGY   13.68681606

 Basis set:  JKFIT                   
 Basis size:   740
 Attributes:
 Sphericals:   T
 Basis set:  MP2FIT                  
 Basis size:   816
 Attributes:
 Sphericals:   T
 Basis set:  RI                      
 Basis size:   556
 Attributes:
 Sphericals:   T
 Basis set:  TDDFT                   
 Basis size:   816
 Attributes:
 Sphericals:   T

 Eigenvalues of metric

         1 0.148E-04 0.188E-04 0.367E-04 0.375E-04 0.626E-04 0.906E-04 0.930E-04 0.949E-04


 Contracted 2-electron integrals neglected if value below      1.0D-14

 OPERATOR DM      FOR CENTER  0  COORDINATES:    0.000000    0.000000    0.000000


 **********************************************************************************************************************************
 DATASETS  * FILE   NREC   LENGTH (MB)   RECORD NAMES
              1      18       37.06       500      610      700      900      950      970     1000      129      960     1100   
                                          VAR    BASINP    GEOM    SYMINP    ZMAT    AOBASIS   BASIS     P2S    ABASIS      S 
                                         1400     1410     1200     1210     1080     1600     1650     1700   
                                           T        V       H0       H01     AOSYM     SMH    MOLCAS    OPER   

              2       6       17.39       700     1000      520     2100      200     2101   
                                         GEOM     BASIS   MCVARS     RHF    OPTIONS    RHF  

 PROGRAMS   *        TOTAL       INT   CCSD(T)    HF-SCF       INT   CCSD(T)    HF-SCF       INT
 CPU TIMES  *      8011.86      0.40   1430.43    235.80      0.37   5892.45    272.24    179.92
 REAL TIME  *      8200.15 SEC
 DISK USED  *         3.24 GB (local),       76.66 GB (total)
 SF USED    *         3.08 GB
 GA USED    *         0.00 MB       (max)       0.00 MB       (current)
 **********************************************************************************************************************************


 PROGRAM * RHF-SCF (CLOSED SHELL)       Authors: W. Meyer, H.-J. Werner


 NUMBER OF ELECTRONS:       5+    5-    SPACE SYMMETRY=1    SPIN SYMMETRY: Singlet 
 CONVERGENCE THRESHOLDS:    1.00E-08 (Density)    1.00E-11 (Energy)
 MAX. NUMBER OF ITERATIONS:       60
 INTERPOLATION TYPE:            DIIS
 INTERPOLATION STEPS:              2 (START)      1 (STEP)
 LEVEL SHIFTS:                  0.00 (CLOSED)  0.00 (OPEN) 



 Orbital guess generated from atomic densities. Full valence occupancy:    9

 Molecular orbital dump at record        2102.2

 Initial occupancy:   5

 ITERATION    DDIFF          GRAD             ENERGY        2-EL.EN.            DIPOLE MOMENTS         DIIS   ORB.
    1      0.000D+00      0.000D+00       -40.19609636     53.506293    0.00411   -0.00276   -0.00130    0    start
    2      0.000D+00      0.257D-02       -40.21335056     52.217620    0.00129   -0.00088   -0.00039    1    diag
    3      0.159D-02      0.998D-03       -40.21562651     52.672081    0.00182   -0.00124   -0.00055    2    diag
    4      0.446D-03      0.249D-03       -40.21594597     52.617268    0.00162   -0.00110   -0.00049    3    diag
    5      0.164D-03      0.322D-04       -40.21595146     52.619416    0.00159   -0.00109   -0.00048    4    diag
    6      0.412D-04      0.264D-05       -40.21595150     52.619552    0.00159   -0.00108   -0.00048    5    diag
    7      0.568D-05      0.212D-06       -40.21595150     52.619513    0.00159   -0.00108   -0.00048    6    diag
    8      0.208D-06      0.170D-07       -40.21595150     52.619514    0.00159   -0.00108   -0.00048    7    diag
    9      0.838D-07      0.218D-08       -40.21595150     52.619514    0.00159   -0.00108   -0.00048    8    diag
   10      0.868D-08      0.595D-09       -40.21595150     52.619514    0.00159   -0.00108   -0.00048    0    orth

 Final occupancy:   5

 !RHF STATE  1.1 Energy               -40.215951500980
 Nuclear energy                        13.68681606
 One-electron energy                  -80.21252459
 Two-electron energy                   26.30975703
 Virial quotient                       -0.99838112
 !RHF STATE  1.1 Dipole moment          0.00158930    -0.00108396    -0.00047751
 Dipole moment /Debye                   0.00403933    -0.00275496    -0.00121362

 Orbital energies:

         1.1          2.1          3.1          4.1          5.1          6.1          7.1
    -11.196224    -0.950661    -0.551889    -0.549955    -0.547776     0.023715     0.035169


 HOMO      5.1    -0.547776 =     -14.9057eV
 LUMO      6.1     0.023715 =       0.6453eV
 LUMO-HOMO         0.571490 =      15.5510eV


 **********************************************************************************************************************************
 DATASETS  * FILE   NREC   LENGTH (MB)   RECORD NAMES
              1      18       37.06       500      610      700      900      950      970     1000      129      960     1100   
                                          VAR    BASINP    GEOM    SYMINP    ZMAT    AOBASIS   BASIS     P2S    ABASIS      S 
                                         1400     1410     1200     1210     1080     1600     1650     1700   
                                           T        V       H0       H01     AOSYM     SMH    MOLCAS    OPER   

              2       7       27.51       700     1000      520     2100      200     2101     2102   
                                         GEOM     BASIS   MCVARS     RHF    OPTIONS    RHF      RHF  

 PROGRAMS   *        TOTAL    HF-SCF       INT   CCSD(T)    HF-SCF       INT   CCSD(T)    HF-SCF       INT
 CPU TIMES  *      8211.64    199.77      0.40   1430.43    235.80      0.37   5892.45    272.24    179.92
 REAL TIME  *      8425.44 SEC
 DISK USED  *         3.24 GB (local),       76.66 GB (total)
 SF USED    *         3.08 GB
 GA USED    *         0.00 MB       (max)       0.00 MB       (current)
 **********************************************************************************************************************************

 Basis set:  JKFIT                   
 Basis size:   740
 Attributes:
 Sphericals:   T
 Basis set:  MP2FIT                  
 Basis size:   816
 Attributes:
 Sphericals:   T
 Basis set:  RI                      
 Basis size:   556
 Attributes:
 Sphericals:   T
 Basis set:  TDDFT                   
 Basis size:   816
 Attributes:
 Sphericals:   T

 PROGRAM * CCSD (Closed-shell coupled cluster)     Authors: C. Hampel, H.-J. Werner, 1991, M. Deegan, P.J. Knowles, 1992


 Convergence thresholds:  THRVAR = 1.00D-08  THRDEN = 1.00D-10

 CCSD(T)     terms to be evaluated (factor= 1.000)


 Number of core orbitals:           1 (   1 )
 Number of closed-shell orbitals:   4 (   4 )
 Number of external orbitals:     431 ( 431 )

 Molecular orbitals read from record     2102.2  Type=RHF/CANONICAL (state 1.1)

 Number of N-1 electron functions:               4
 Number of N-2 electron functions:              10
 Number of singly external CSFs:              1724
 Number of doubly external CSFs:           1486950
 Total number of CSFs:                     1488675

 Length of J-op  integral file:               0.00 MB
 Length of K-op  integral file:              13.08 MB
 Length of 3-ext integral record:             0.00 MB

 Memory could be reduced to 526.20 Mwords without degradation in triples

 Integral transformation finished. Total CPU: 160.53 sec, npass=  1  Memory used: 214.76 MW

 Reference energy:                    -40.21595150

 MP2 singlet pair energy:              -0.15442376
 MP2 triplet pair energy:              -0.05646245
 MP2 correlation energy:               -0.21088621
 MP2 total energy:                    -40.42683771

 SCS-MP2 correlation energy:           -0.22044070   (PS=  1.200000  PT=  0.333333)
 SCS-MP2 total energy:                -40.43639220

 ITER.      SQ.NORM     CORR.ENERGY   TOTAL ENERGY   ENERGY CHANGE        DEN1      VAR(S)    VAR(P)  DIIS     TIME  TIME/IT
   1      1.07097417    -0.22687398   -40.44282548    -0.01598777    -0.01040076  0.54D-03  0.97D-03  1  1   210.64    51.97
   2      1.07611938    -0.22797402   -40.44392553    -0.00110004    -0.00547175  0.14D-04  0.91D-04  2  2   260.93    52.51
   3      1.07764038    -0.22801326   -40.44396476    -0.00003924    -0.00107293  0.18D-05  0.58D-05  3  3   315.07    53.86
   4      1.07800005    -0.22801895   -40.44397046    -0.00000569    -0.00017104  0.12D-06  0.28D-06  4  4   369.37    54.61
   5      1.07804806    -0.22802084   -40.44397234    -0.00000189    -0.00001301  0.10D-07  0.20D-07  5  5   423.82    55.04
   6      1.07805629    -0.22801962   -40.44397112     0.00000123    -0.00000329  0.62D-09  0.14D-08  6  6   478.14    55.44
   7      1.07805731    -0.22801933   -40.44397084     0.00000028    -0.00000054  0.45D-10  0.11D-09  6  1   533.42    55.76
   8      1.07805725    -0.22801939   -40.44397089    -0.00000005     0.00000023  0.44D-11  0.60D-11  6  3   583.51    55.40
   9      1.07805737    -0.22801937   -40.44397087     0.00000002    -0.00000008  0.36D-12  0.50D-12  6  2   633.38    55.06
  10      1.07805738    -0.22801937   -40.44397087     0.00000000     0.00000000  0.44D-13  0.53D-13  6  4   684.70    54.97
  11      1.07805738    -0.22801937   -40.44397087     0.00000000     0.00000000  0.41D-14  0.54D-14  6  5   736.52    54.91
  12      1.07805738    -0.22801937   -40.44397087     0.00000000     0.00000000  0.91D-16  0.58D-15  6  6   788.36    54.86
  13      1.07805738    -0.22801937   -40.44397087    -0.00000000     0.00000000  0.70D-17  0.58D-16  6  1   840.10    54.81
  14      1.07805738    -0.22801937   -40.44397087    -0.00000000     0.00000000  0.11D-17  0.78D-17  6  3   891.34    54.77

 Norm of t1 vector:      0.03128156      S-energy:    -0.00000000      T1 diagnostic:  0.00782039
                                                                       D1 diagnostic:  0.01257150

 Total CPU time for triples:    428.83 sec


 RESULTS
 =======

  Reference energy                    -40.215951500983
  CCSD singlet pair energy             -0.173325050551
  CCSD triplet pair energy             -0.054694316177
  CCSD correlation energy              -0.228019366732

  Triples (T) contribution             -0.006881617250
  Total correlation energy             -0.234900983982

  CCSD total energy                   -40.443970867715
  CCSD[T] energy                      -40.451065631499
  CCSD-T energy                       -40.450784876232
 !CCSD(T) total energy                -40.450852484965

 Timing summary (sec):

 STEP                 CPU(USER)    SYS     CPU(TOT)    WALL
 Transformation        160.91      5.35    166.26    167.02
 CCSD iterations       730.52     35.80    766.32    767.00
 Triples               428.83      1.80    430.63    431.30

 Program statistics:

 Available memory in ccsd:              1999999916
 Min. memory needed in ccsd:               6768234
 Max. memory used in ccsd:                 7865440
 Max. memory used in cckext:               5182436 (14 integral passes)



 **********************************************************************************************************************************
 DATASETS  * FILE   NREC   LENGTH (MB)   RECORD NAMES
              1      19     1346.95       500      610      700      900      950      970     1000      129      960     1100   
                                          VAR    BASINP    GEOM    SYMINP    ZMAT    AOBASIS   BASIS     P2S    ABASIS      S 
                                         1400     1410     1200     1210     1080     1600     1650     1700     1380   
                                           T        V       H0       H01     AOSYM     SMH    MOLCAS    OPER     JKOP   

              2       7       27.51       700     1000      520     2100      200     2101     2102   
                                         GEOM     BASIS   MCVARS     RHF    OPTIONS    RHF      RHF  

 PROGRAMS   *        TOTAL   CCSD(T)    HF-SCF       INT   CCSD(T)    HF-SCF       INT   CCSD(T)    HF-SCF       INT
 CPU TIMES  *      9532.13   1320.49    199.77      0.40   1430.43    235.80      0.37   5892.45    272.24    179.92
 REAL TIME  *      9791.66 SEC
 DISK USED  *         3.24 GB (local),       76.66 GB (total)
 SF USED    *         3.08 GB
 GA USED    *         0.00 MB       (max)       0.00 MB       (current)
 **********************************************************************************************************************************
 Molecular orbitals read from record     2102.2  Type=RHF/CANONICAL (state 1.1)
 Occupation numbers read from record     2102.2  Type=RHF/RHF (state 1.1)
 Orbital energies read from record       2102.2  Type=RHF/CANONICAL (state 1.1)
 Redundancy group numbers read from rec  2102.2  Type=RHF/RHF (state 1.1)

 CCSD(T)/aug-cc-pVQZ energy=    -40.450852484965

         CCSD(T)          HF-SCF         CCSD(T)          HF-SCF         CCSD(T)          HF-SCF
    -40.45085248    -40.21595150    -76.36113100    -76.06104356   -116.81250542   -116.27694431
 **********************************************************************************************************************************
 Molpro calculation terminated
