
 Primary working directories    : /scratch/klimes/383113/molpro.U85dN8bOj3
 Secondary working directories  : /scratch/klimes/383113/molpro.U85dN8bOj3
 Wavefunction directory         : /scratch/klimes/383113/
 Main file repository           : /scratch/klimes/383113/molpro.U85dN8bOj3/

 id        : karlovklimes

 Nodes                      nprocs
 nc-03.cc.karlov.mff.cuni.cz    4

 Using customized tuning parameters: mindgm=1; mindgv=20; mindgc=4; mindgr=1; noblas=0; minvec=7
 default implementation of scratch files=sf  


 Variables initialized (930), CPU time= 0.01 sec
                                                                                 !gdirect
 memory,2000,m
 gthresh,orbital=1d-10,energy=1d-10,grid=1d-8
 
 symmetry,nosym
 angstrom
 geometry={
 O10        -3.744400000000      0.396600000000     -2.499800000000
 H19        -4.617400000000      0.462100000000     -2.021700000000
 H20        -3.968900000000      0.126100000000     -3.399000000000
 C1        -3.277200000000      1.482500000000      1.271900000000
 H41        -2.464000000000      0.899600000000      1.651000000000
 H42        -3.160800000000      2.501000000000      1.578500000000
 H43        -4.201800000000      1.099200000000      1.650100000000
 H44        -3.268500000000      1.421000000000      0.203700000000
 }
 
 nkerna=1
 nkernb=1
 
 gf=0
 sing=1
 thrdum=1d-4
 gridthr=1d-8
 
 basis={
 set,orbital
 default,avqz
 set,jkfit
 default,avqz/jkfit
 set,mp2fit
 default,avqz/mp2fit
 set,ri
 default,avqz/optri
 set,tddft
 default,avqz/mp2fit
 }
 
 proc set_monomer1
 dummy,4,5,6,7,8
 endproc
 
 proc set_monomer2
 dummy,1,2,3
 endproc
 
                                                                                 !1234 energy
 {hf,accu=1.d-16}
 ccsd(t)
 
 set_monomer1
 {hf,accu=1.d-16}
 ccsd(t)
 
 set_monomer2
 {hf,accu=1.d-16}
 ccsd(t)
 
 Commands  initialized (760), CPU time= 0.01 sec, 617 directives.
 Default parameters read. Elapsed time= 0.20 sec

 Checking input...
 Passed
1


                                         ***  PROGRAM SYSTEM MOLPRO  ***
                                       Copyright, TTI GmbH Stuttgart, 2015
                                    Version 2019.1 linked Jan 14 2019 13:09:19


 **********************************************************************************************************************************
 LABEL *                                                                                 
  64 bit mpp version                                                                     DATE: 11-Mar-20          TIME: 13:21:27  
 **********************************************************************************************************************************

 SHA1:             d688ac825633d238f2093ded1675ba87ccd55965
 **********************************************************************************************************************************

 THRESHOLDS:

 ZERO    =  1.00D-12  ONEINT  =  1.00D-12  TWOINT  =  1.00D-11  PREFAC  =  1.00D-14  XXXXXX  =  1.00D-09  EORDER  =  1.00D-04
 ENERGY  =  1.00D-10  ETEST   =  0.00D+00  EDENS   =  0.00D+00  THRDEDEF=  1.00D-06  GRADIENT=  1.00D-02  STEP    =  1.00D-03
 ORBITAL =  1.00D-10  CIVEC   =  1.00D-05  COEFF   =  1.00D-04  PRINTCI =  5.00D-02  PUNCHCI =  9.90D+01  OPTGRAD =  3.00D-04
 OPTENERG=  1.00D-06  OPTSTEP =  3.00D-04  THRGRAD =  1.00D-10  COMPRESS=  1.00D-11  VARMIN  =  1.00D-07  VARMAX  =  1.00D-03
 THRDOUB =  0.00D+00  THRDIV  =  1.00D-05  THRRED  =  1.00D-07  THRPSP  =  1.00D+00  THRDC   =  1.00D-10  THRCS   =  1.00D-10
 THRNRM  =  1.00D-08  THREQ   =  0.00D+00  THRDE   =  1.00D+00  THRREF  =  1.00D-05  SPARFAC =  1.00D+00  THRDLP  =  1.00D-07
 THRDIA  =  1.00D-10  THRDLS  =  1.00D-07  THRGPS  =  0.00D+00  THRKEX  =  0.00D+00  THRDIS  =  2.00D-01  THRVAR  =  1.00D-10
 THRLOC  =  1.00D-06  THRGAP  =  1.00D-06  THRLOCT = -1.00D+00  THRGAPT = -1.00D+00  THRORB  =  1.00D-06  THRMLTP =  0.00D+00
 THRCPQCI=  1.00D-10  KEXTA   =  0.00D+00  THRCOARS=  0.00D+00  SYMTOL  =  1.00D-06  GRADTOL =  1.00D-06  THROVL  =  1.00D-08
 THRORTH =  1.00D-08  GRID    =  1.00D-08  GRIDMAX =  1.00D-03  DTMAX   =  0.00D+00  THROCCDE=  1.00D-01  THROCCDE=  1.00D-01
 THRPRINT=  2.50D-01


 Variable memory set to 2000000000 words,  buffer space 

 ZSYMEL=NOSYM
 ZUNIT=ANG


Geometry recognized as XYZ

 SETTING NKERNA         =         1.00000000                                  
 SETTING NKERNB         =         1.00000000                                  
 SETTING GF             =     0.00000000D+00                                  
 SETTING SING           =         1.00000000                                  
 SETTING THRDUM         =     1.00000000D-04                                  
 SETTING GRIDTHR        =     1.00000000D-08                                  
 SETTING BASIS          =    AVQZ


 Recomputing integrals since basis changed


 Using spherical harmonics

 Library entry O      S aug-cc-pVQZ          selected for orbital group  1
 Library entry O      P aug-cc-pVQZ          selected for orbital group  1
 Library entry O      D aug-cc-pVQZ          selected for orbital group  1
 Library entry O      F aug-cc-pVQZ          selected for orbital group  1
 Library entry O      G aug-cc-pVQZ          selected for orbital group  1
 Library entry H      S aug-cc-pVQZ          selected for orbital group  2
 Library entry H      P aug-cc-pVQZ          selected for orbital group  2
 Library entry H      D aug-cc-pVQZ          selected for orbital group  2
 Library entry H      F aug-cc-pVQZ          selected for orbital group  2
 Library entry C      S aug-cc-pVQZ          selected for orbital group  3
 Library entry C      P aug-cc-pVQZ          selected for orbital group  3
 Library entry C      D aug-cc-pVQZ          selected for orbital group  3
 Library entry C      F aug-cc-pVQZ          selected for orbital group  3
 Library entry C      G aug-cc-pVQZ          selected for orbital group  3


 PROGRAM * SEWARD (Integral evaluation for generally contracted gaussian basis sets)     Author: Roland Lindh, 1990

 Geometry written to block  1 of record 700


 Point group  C1  



 ATOMIC COORDINATES

 NR  ATOM    CHARGE       X              Y              Z

   1  O10     8.00   -7.075890501    0.749465381   -4.723937366
   2  H19     1.00   -8.725621408    0.873242442   -3.820459306
   3  H20     1.00   -7.500134016    0.238294464   -6.423179097
   4  C1      6.00   -6.193010455    2.801518980    2.403542658
   5  H41     1.00   -4.656285171    1.699997622    3.119937832
   6  H42     1.00   -5.973046335    4.726205038    2.982932688
   7  H43     1.00   -7.940251230    2.077186956    3.118237078
   8  H44     1.00   -6.176569838    2.685300823    0.384937212

 Bond lengths in Bohr (Angstrom)

 1-2  1.884994809  1-3  1.824472726  4-5  2.021904040  4-6  2.022002335  4-7  2.021953343
     ( 0.997496296)     ( 0.965469388)     ( 1.069945541)     ( 1.069997556)     ( 1.069971630)

 4-8  2.022015060
     ( 1.070004290)

 Bond angles

  2-1-3  105.14667399   5-4-6  109.53398059   5-4-7  109.65604535   5-4-8  108.43490854

  6-4-7  109.49436728   6-4-8  109.86987750   7-4-8  109.83468330

 NUCLEAR CHARGE:                   20
 NUMBER OF PRIMITIVE AOS:         578
 NUMBER OF SYMMETRY AOS:          474
 NUMBER OF CONTRACTIONS:          436   (  436A   )
 NUMBER OF CORE ORBITALS:           2   (    2A   )
 NUMBER OF VALENCE ORBITALS:       14   (   14A   )


 NUCLEAR REPULSION ENERGY   35.92323390


 Basis set:  JKFIT                   
 Basis size:   740
 Attributes:
 Sphericals:   T
 Basis set:  MP2FIT                  
 Basis size:   816
 Attributes:
 Sphericals:   T
 Basis set:  RI                      
 Basis size:   556
 Attributes:
 Sphericals:   T
 Basis set:  TDDFT                   
 Basis size:   816
 Attributes:
 Sphericals:   T

 **********************************************************************************************************************************


 Eigenvalues of metric

         1 0.136E-04 0.197E-04 0.311E-04 0.365E-04 0.613E-04 0.760E-04 0.865E-04 0.957E-04


 Contracted 2-electron integrals neglected if value below      1.0D-14
 AO integral compression algorithm  1   Integral accuracy      1.0D-14

     21229.994 MB (compressed) written to integral file ( 52.9%)

     Node minimum: 4888.461 MB, node maximum: 5842.928 MB


 NUMBER OF SORTED TWO-ELECTRON INTEGRALS: 1134451344.     BUFFER LENGTH:  32768
 NUMBER OF SEGMENTS:  36  SEGMENT LENGTH:   31999984      RECORD LENGTH: 524288

 Memory used in sort:      32.56 MW

 SORT1 READ  5012305700. AND WROTE   908987553. INTEGRALS IN   2617 RECORDS. CPU TIME:   236.81 SEC, REAL TIME:   257.98 SEC
 SORT2 READ  3636283453. AND WROTE  4537853011. INTEGRALS IN  79408 RECORDS. CPU TIME:    17.42 SEC, REAL TIME:   165.61 SEC

 Node minimum:  1134427528.  Node maximum:  1134498978. integrals

 OPERATOR DM      FOR CENTER  0  COORDINATES:    0.000000    0.000000    0.000000


 **********************************************************************************************************************************
 DATASETS  * FILE   NREC   LENGTH (MB)   RECORD NAMES
              1      18       37.06       500      610      700      900      950      970     1000      129      960     1100   
                                          VAR    BASINP    GEOM    SYMINP    ZMAT    AOBASIS   BASIS     P2S    ABASIS      S 
                                         1400     1410     1200     1210     1080     1600     1650     1700   
                                           T        V       H0       H01     AOSYM     SMH    MOLCAS    OPER   

 PROGRAMS   *        TOTAL       INT
 CPU TIMES  *       318.02    317.83
 REAL TIME  *       503.35 SEC
 DISK USED  *        37.58 MB (local),       64.75 GB (total)
 GA USED    *         0.00 MB       (max)       0.00 MB       (current)
 **********************************************************************************************************************************


 PROGRAM * RHF-SCF (CLOSED SHELL)       Authors: W. Meyer, H.-J. Werner


 NUMBER OF ELECTRONS:      10+   10-    SPACE SYMMETRY=1    SPIN SYMMETRY: Singlet 
 CONVERGENCE THRESHOLDS:    1.00E-08 (Density)    1.00E-11 (Energy)
 MAX. NUMBER OF ITERATIONS:       60
 INTERPOLATION TYPE:            DIIS
 INTERPOLATION STEPS:              2 (START)      1 (STEP)
 LEVEL SHIFTS:                  0.00 (CLOSED)  0.00 (OPEN) 



 Orbital guess generated from atomic densities. Full valence occupancy:   16

 Molecular orbital dump at record        2100.2

 Initial occupancy:  10

 ITERATION    DDIFF          GRAD             ENERGY        2-EL.EN.            DIPOLE MOMENTS         DIIS   ORB.
    1      0.000D+00      0.000D+00      -116.22053251    157.536316   -1.06328   -0.20042   -0.40372    0    start
    2      0.000D+00      0.378D-02      -116.26443841    152.531121   -0.58110   -0.12725   -0.28447    1    diag
    3      0.273D-02      0.222D-02      -116.27803315    154.607312   -0.70361   -0.14567   -0.31714    2    diag
    4      0.948D-03      0.331D-03      -116.27869288    154.493893   -0.69275   -0.14371   -0.31448    3    diag
    5      0.204D-03      0.973D-04      -116.27876247    154.489207   -0.69192   -0.14361   -0.31510    4    diag
    6      0.831D-04      0.237D-04      -116.27876640    154.494844   -0.69101   -0.14343   -0.31497    5    diag
    7      0.224D-04      0.477D-05      -116.27876664    154.493263   -0.69098   -0.14342   -0.31500    6    diag
    8      0.660D-05      0.121D-05      -116.27876666    154.493439   -0.69090   -0.14341   -0.31500    7    diag
    9      0.145D-05      0.285D-06      -116.27876666    154.493412   -0.69087   -0.14340   -0.31500    8    diag
   10      0.430D-06      0.334D-07      -116.27876666    154.493413   -0.69087   -0.14340   -0.31500    9    orth
   11      0.471D-07      0.769D-08      -116.27876666    154.493414   -0.69087   -0.14340   -0.31500    9    diag
   12      0.101D-07      0.197D-08      -116.27876666    154.493414   -0.69087   -0.14340   -0.31500    9    diag
   13      0.236D-08      0.518D-09      -116.27876666    154.493414   -0.69087   -0.14340   -0.31500    0    orth

 Final occupancy:  10

 !RHF STATE  1.1 Energy              -116.278766657407
 Nuclear energy                        35.92323390
 One-electron energy                 -229.44870774
 Two-electron energy                   77.24670718
 Virial quotient                       -1.00079552
 !RHF STATE  1.1 Dipole moment         -0.69087182    -0.14340412    -0.31499930
 Dipole moment /Debye                  -1.75590599    -0.36447304    -0.80059592

 Orbital energies:

         1.1          2.1          3.1          4.1          5.1          6.1          7.1          8.1          9.1         10.1
    -20.569573   -11.190524    -1.341671    -0.945329    -0.707391    -0.580784    -0.546104    -0.545149    -0.541608    -0.509514

        11.1         12.1
      0.023147     0.036291


 HOMO     10.1    -0.509514 =     -13.8646eV
 LUMO     11.1     0.023147 =       0.6299eV
 LUMO-HOMO         0.532661 =      14.4944eV


 **********************************************************************************************************************************
 DATASETS  * FILE   NREC   LENGTH (MB)   RECORD NAMES
              1      18       37.06       500      610      700      900      950      970     1000      129      960     1100   
                                          VAR    BASINP    GEOM    SYMINP    ZMAT    AOBASIS   BASIS     P2S    ABASIS      S 
                                         1400     1410     1200     1210     1080     1600     1650     1700   
                                           T        V       H0       H01     AOSYM     SMH    MOLCAS    OPER   

              2       4        6.75       700     1000      520     2100   
                                         GEOM     BASIS   MCVARS     RHF  

 PROGRAMS   *        TOTAL    HF-SCF       INT
 CPU TIMES  *       605.79    287.77    317.83
 REAL TIME  *       850.59 SEC
 DISK USED  *        57.63 MB (local),       64.83 GB (total)
 SF USED    *         0.76 MB
 GA USED    *         0.00 MB       (max)       0.00 MB       (current)
 **********************************************************************************************************************************

 Basis set:  JKFIT                   
 Basis size:   740
 Attributes:
 Sphericals:   T
 Basis set:  MP2FIT                  
 Basis size:   816
 Attributes:
 Sphericals:   T
 Basis set:  RI                      
 Basis size:   556
 Attributes:
 Sphericals:   T
 Basis set:  TDDFT                   
 Basis size:   816
 Attributes:
 Sphericals:   T

 PROGRAM * CCSD (Closed-shell coupled cluster)     Authors: C. Hampel, H.-J. Werner, 1991, M. Deegan, P.J. Knowles, 1992


 Convergence thresholds:  THRVAR = 1.00D-08  THRDEN = 1.00D-10

 CCSD(T)     terms to be evaluated (factor= 1.000)


 Number of core orbitals:           2 (   2 )
 Number of closed-shell orbitals:   8 (   8 )
 Number of external orbitals:     426 ( 426 )

 Molecular orbitals read from record     2100.2  Type=RHF/CANONICAL (state 1.1)

 Number of N-1 electron functions:               8
 Number of N-2 electron functions:              36
 Number of singly external CSFs:              3408
 Number of doubly external CSFs:           5808936
 Total number of CSFs:                     5812345

 Length of J-op  integral file:               0.00 MB
 Length of K-op  integral file:              13.08 MB
 Length of 3-ext integral record:             0.00 MB

 Memory could be reduced to 828.85 Mwords without degradation in triples

 Integral transformation finished. Total CPU: 359.79 sec, npass=  1  Memory used: 389.48 MW

 Reference energy:                   -116.27876666

 MP2 singlet pair energy:              -0.34090835
 MP2 triplet pair energy:              -0.15844182
 MP2 correlation energy:               -0.49935016
 MP2 total energy:                   -116.77811682

 SCS-MP2 correlation energy:           -0.50767603   (PS=  1.200000  PT=  0.333333)
 SCS-MP2 total energy:               -116.78644269

 ITER.      SQ.NORM     CORR.ENERGY   TOTAL ENERGY   ENERGY CHANGE        DEN1      VAR(S)    VAR(P)  DIIS     TIME  TIME/IT
   1      1.13579118    -0.51700580  -116.79577246    -0.01765564    -0.00617334  0.14D-02  0.20D-02  1  1   525.65   166.64
   2      1.14439520    -0.51835386  -116.79712052    -0.00134806    -0.01023827  0.27D-04  0.25D-03  2  2   691.81   167.58
   3      1.14759617    -0.51847565  -116.79724230    -0.00012179    -0.00224543  0.11D-04  0.13D-04  3  3   858.47   168.09
   4      1.14845401    -0.51847865  -116.79724530    -0.00000300    -0.00040776  0.59D-06  0.12D-05  4  4  1025.04   168.34
   5      1.14860916    -0.51847844  -116.79724510     0.00000021    -0.00004561  0.20D-06  0.84D-07  5  5  1191.58   168.43
   6      1.14865748    -0.51847474  -116.79724140     0.00000370    -0.00001166  0.19D-07  0.60D-08  6  6  1357.97   168.52
   7      1.14866681    -0.51847377  -116.79724042     0.00000098    -0.00000153  0.15D-08  0.81D-09  6  2  1524.41   168.59
   8      1.14866879    -0.51847365  -116.79724030     0.00000012     0.00000005  0.26D-09  0.82D-10  6  1  1691.42   168.75
   9      1.14866962    -0.51847359  -116.79724025     0.00000006    -0.00000004  0.18D-10  0.12D-10  6  3  1858.13   168.82
  10      1.14866972    -0.51847359  -116.79724025    -0.00000000     0.00000007  0.21D-11  0.15D-11  6  4  2025.00   168.87
  11      1.14866969    -0.51847359  -116.79724025    -0.00000000     0.00000006  0.38D-12  0.22D-12  6  5  2191.67   168.89
  12      1.14866966    -0.51847359  -116.79724025    -0.00000000     0.00000002  0.82D-13  0.27D-13  6  6  2358.23   168.92
  13      1.14866964    -0.51847360  -116.79724025    -0.00000000     0.00000001  0.15D-13  0.39D-14  6  2  2524.60   168.91
  14      1.14866964    -0.51847360  -116.79724025    -0.00000000     0.00000000  0.20D-14  0.89D-15  6  1  2691.48   168.95
  15      1.14866963    -0.51847360  -116.79724025    -0.00000000     0.00000000  0.22D-15  0.11D-15  6  3  2858.61   169.00
  16      1.14866963    -0.51847360  -116.79724025    -0.00000000    -0.00000000  0.29D-16  0.16D-16  6  4  3025.79   169.05
  17      1.14866963    -0.51847360  -116.79724025     0.00000000    -0.00000000  0.59D-17  0.26D-17  6  5  3191.47   168.99

 Norm of t1 vector:      0.05006901      S-energy:     0.00000000      T1 diagnostic:  0.00885103
                                                                       D1 diagnostic:  0.02044033

   CPU time for triples:   2150.86 sec for i =  1 -  7 /  8 (~  68.8 % done)
   CPU time for triples:    867.09 sec for i =  8 -  8 /  8 (  100.0 % done)

 Total CPU time for triples:   3023.02 sec


 RESULTS
 =======

  Reference energy                   -116.278766657408
  CCSD singlet pair energy             -0.373564531286
  CCSD triplet pair energy             -0.144909065712
  CCSD correlation energy              -0.518473596953

  Triples (T) contribution             -0.016619458801
  Total correlation energy             -0.535093055754

  CCSD total energy                  -116.797240254360
  CCSD[T] energy                     -116.814395453696
  CCSD-T energy                      -116.813635422080
 !CCSD(T) total energy               -116.813859713161

 Timing summary (sec):

 STEP                 CPU(USER)    SYS     CPU(TOT)    WALL
 Transformation        361.00     10.99    371.99    378.21
 CCSD iterations      2830.58     38.01   2868.59   2873.07
 Triples              3023.02     22.92   3045.94   3050.19

 Program statistics:

 Available memory in ccsd:              1999999734
 Min. memory needed in ccsd:              17010489
 Max. memory used in ccsd:                22038113
 Max. memory used in cckext:              15155228 (17 integral passes)



 **********************************************************************************************************************************
 DATASETS  * FILE   NREC   LENGTH (MB)   RECORD NAMES
              1      19     2602.11       500      610      700      900      950      970     1000      129      960     1100   
                                          VAR    BASINP    GEOM    SYMINP    ZMAT    AOBASIS   BASIS     P2S    ABASIS      S 
                                         1400     1410     1200     1210     1080     1600     1650     1700     1380   
                                           T        V       H0       H01     AOSYM     SMH    MOLCAS    OPER     JKOP   

              2       4        6.75       700     1000      520     2100   
                                         GEOM     BASIS   MCVARS     RHF  

 PROGRAMS   *        TOTAL   CCSD(T)    HF-SCF       INT
 CPU TIMES  *      6820.61   6214.82    287.77    317.83
 REAL TIME  *      7153.16 SEC
 DISK USED  *         3.24 GB (local),       75.66 GB (total)
 SF USED    *         3.08 GB
 GA USED    *         0.00 MB       (max)       0.00 MB       (current)
 **********************************************************************************************************************************

 Running procedure: SET_MONOMER1

 Dummy atoms: C1  H41  H42  H43  H44


 Recomputing one-electron integrals since nuclear charges changed


 PROGRAM * SEWARD (Integral evaluation for generally contracted gaussian basis sets)     Author: Roland Lindh, 1990

 Geometry written to block  1 of record 700


 Point group  C1  



 ATOMIC COORDINATES

 NR  ATOM    CHARGE       X              Y              Z

   1  O10     8.00   -7.075890501    0.749465381   -4.723937366
   2  H19     1.00   -8.725621408    0.873242442   -3.820459306
   3  H20     1.00   -7.500134016    0.238294464   -6.423179097
   4  C1      0.00   -6.193010455    2.801518980    2.403542658
   5  H41     0.00   -4.656285171    1.699997622    3.119937832
   6  H42     0.00   -5.973046335    4.726205038    2.982932688
   7  H43     0.00   -7.940251230    2.077186956    3.118237078
   8  H44     0.00   -6.176569838    2.685300823    0.384937212

 Bond lengths in Bohr (Angstrom)

 1-2  1.884994809  1-3  1.824472726  4-5  2.021904040  4-6  2.022002335  4-7  2.021953343
     ( 0.997496296)     ( 0.965469388)     ( 1.069945541)     ( 1.069997556)     ( 1.069971630)

 4-8  2.022015060
     ( 1.070004290)

 Bond angles

  2-1-3  105.14667399   5-4-6  109.53398059   5-4-7  109.65604535   5-4-8  108.43490854

  6-4-7  109.49436728   6-4-8  109.86987750   7-4-8  109.83468330

 NUCLEAR CHARGE:                   10
 NUMBER OF PRIMITIVE AOS:         578
 NUMBER OF SYMMETRY AOS:          474
 NUMBER OF CONTRACTIONS:          436   (  436A   )
 NUMBER OF CORE ORBITALS:           1   (    1A   )
 NUMBER OF VALENCE ORBITALS:        6   (    6A   )

 MOLECULE CHANGED: INITIALIZING OCCUPATION AND DUMP RECORDS


 NUCLEAR REPULSION ENERGY    8.96831117

 Basis set:  JKFIT                   
 Basis size:   740
 Attributes:
 Sphericals:   T
 Basis set:  MP2FIT                  
 Basis size:   816
 Attributes:
 Sphericals:   T
 Basis set:  RI                      
 Basis size:   556
 Attributes:
 Sphericals:   T
 Basis set:  TDDFT                   
 Basis size:   816
 Attributes:
 Sphericals:   T

 Eigenvalues of metric

         1 0.136E-04 0.197E-04 0.311E-04 0.365E-04 0.613E-04 0.760E-04 0.865E-04 0.957E-04


 Contracted 2-electron integrals neglected if value below      1.0D-14

 OPERATOR DM      FOR CENTER  0  COORDINATES:    0.000000    0.000000    0.000000


 **********************************************************************************************************************************
 DATASETS  * FILE   NREC   LENGTH (MB)   RECORD NAMES
              1      18       37.06       500      610      700      900      950      970     1000      129      960     1100   
                                          VAR    BASINP    GEOM    SYMINP    ZMAT    AOBASIS   BASIS     P2S    ABASIS      S 
                                         1400     1410     1200     1210     1080     1600     1650     1700   
                                           T        V       H0       H01     AOSYM     SMH    MOLCAS    OPER   

              2       5       10.59       700     1000      520     2100      200   
                                         GEOM     BASIS   MCVARS     RHF    OPTIONS    

 PROGRAMS   *        TOTAL       INT   CCSD(T)    HF-SCF       INT
 CPU TIMES  *      6820.97      0.34   6214.82    287.77    317.83
 REAL TIME  *      7154.42 SEC
 DISK USED  *         3.24 GB (local),       75.68 GB (total)
 SF USED    *         3.08 GB
 GA USED    *         0.00 MB       (max)       0.00 MB       (current)
 **********************************************************************************************************************************


 PROGRAM * RHF-SCF (CLOSED SHELL)       Authors: W. Meyer, H.-J. Werner


 NUMBER OF ELECTRONS:       5+    5-    SPACE SYMMETRY=1    SPIN SYMMETRY: Singlet 
 CONVERGENCE THRESHOLDS:    1.00E-08 (Density)    1.00E-11 (Energy)
 MAX. NUMBER OF ITERATIONS:       60
 INTERPOLATION TYPE:            DIIS
 INTERPOLATION STEPS:              2 (START)      1 (STEP)
 LEVEL SHIFTS:                  0.00 (CLOSED)  0.00 (OPEN) 



 Orbital guess generated from atomic densities. Full valence occupancy:    7

 Molecular orbital dump at record        2101.2

 Initial occupancy:   5

 ITERATION    DDIFF          GRAD             ENERGY        2-EL.EN.            DIPOLE MOMENTS         DIIS   ORB.
    1      0.000D+00      0.000D+00       -76.02404302     77.368943   -1.06805   -0.19634   -0.39854    0    start
    2      0.000D+00      0.467D-02       -76.05086707     73.699505   -0.61361   -0.11572   -0.23934    1    diag
    3      0.223D-02      0.299D-02       -76.06255913     75.330444   -0.72620   -0.13630   -0.28094    2    diag
    4      0.848D-03      0.279D-03       -76.06275648     75.239010   -0.72071   -0.13586   -0.28092    3    diag
    5      0.107D-03      0.789D-04       -76.06277823     75.253487   -0.71862   -0.13572   -0.28100    4    diag
    6      0.351D-04      0.159D-04       -76.06277967     75.252419   -0.71811   -0.13570   -0.28109    5    diag
    7      0.932D-05      0.324D-05       -76.06277974     75.252566   -0.71795   -0.13570   -0.28110    6    diag
    8      0.251D-05      0.603D-06       -76.06277975     75.252550   -0.71791   -0.13569   -0.28110    7    diag
    9      0.463D-06      0.820D-07       -76.06277975     75.252541   -0.71790   -0.13569   -0.28110    8    diag
   10      0.586D-07      0.194D-07       -76.06277975     75.252544   -0.71790   -0.13569   -0.28110    9    orth
   11      0.154D-07      0.439D-08       -76.06277975     75.252543   -0.71790   -0.13569   -0.28110    9    diag
   12      0.323D-08      0.867D-09       -76.06277975     75.252543   -0.71790   -0.13569   -0.28110    0    orth

 Final occupancy:   5

 !RHF STATE  1.1 Energy               -76.062779746569
 Nuclear energy                         8.96831117
 One-electron energy                 -122.65736257
 Two-electron energy                   37.62627166
 Virial quotient                       -1.00211102
 !RHF STATE  1.1 Dipole moment         -0.71790032    -0.13569016    -0.28109722
 Dipole moment /Debye                  -1.82460110    -0.34486740    -0.71443107

 Orbital energies:

         1.1          2.1          3.1          4.1          5.1          6.1          7.1
    -20.568570    -1.340482    -0.705968    -0.579019    -0.508371     0.019943     0.033468


 HOMO      5.1    -0.508371 =     -13.8335eV
 LUMO      6.1     0.019943 =       0.5427eV
 LUMO-HOMO         0.528314 =      14.3762eV


 **********************************************************************************************************************************
 DATASETS  * FILE   NREC   LENGTH (MB)   RECORD NAMES
              1      18       37.06       500      610      700      900      950      970     1000      129      960     1100   
                                          VAR    BASINP    GEOM    SYMINP    ZMAT    AOBASIS   BASIS     P2S    ABASIS      S 
                                         1400     1410     1200     1210     1080     1600     1650     1700   
                                           T        V       H0       H01     AOSYM     SMH    MOLCAS    OPER   

              2       6       17.39       700     1000      520     2100      200     2101   
                                         GEOM     BASIS   MCVARS     RHF    OPTIONS    RHF  

 PROGRAMS   *        TOTAL    HF-SCF       INT   CCSD(T)    HF-SCF       INT
 CPU TIMES  *      7087.54    266.57      0.34   6214.82    287.77    317.83
 REAL TIME  *      7448.70 SEC
 DISK USED  *         3.24 GB (local),       75.68 GB (total)
 SF USED    *         3.08 GB
 GA USED    *         0.00 MB       (max)       0.00 MB       (current)
 **********************************************************************************************************************************

 Basis set:  JKFIT                   
 Basis size:   740
 Attributes:
 Sphericals:   T
 Basis set:  MP2FIT                  
 Basis size:   816
 Attributes:
 Sphericals:   T
 Basis set:  RI                      
 Basis size:   556
 Attributes:
 Sphericals:   T
 Basis set:  TDDFT                   
 Basis size:   816
 Attributes:
 Sphericals:   T

 PROGRAM * CCSD (Closed-shell coupled cluster)     Authors: C. Hampel, H.-J. Werner, 1991, M. Deegan, P.J. Knowles, 1992


 Convergence thresholds:  THRVAR = 1.00D-08  THRDEN = 1.00D-10

 CCSD(T)     terms to be evaluated (factor= 1.000)


 Number of core orbitals:           1 (   1 )
 Number of closed-shell orbitals:   4 (   4 )
 Number of external orbitals:     431 ( 431 )

 Molecular orbitals read from record     2101.2  Type=RHF/CANONICAL (state 1.1)

 Number of N-1 electron functions:               4
 Number of N-2 electron functions:              10
 Number of singly external CSFs:              1724
 Number of doubly external CSFs:           1486950
 Total number of CSFs:                     1488675

 Length of J-op  integral file:               0.00 MB
 Length of K-op  integral file:              13.08 MB
 Length of 3-ext integral record:             0.00 MB

 Memory could be reduced to 526.20 Mwords without degradation in triples

 Integral transformation finished. Total CPU: 173.49 sec, npass=  1  Memory used: 214.76 MW

 Reference energy:                    -76.06277975

 MP2 singlet pair energy:              -0.18632559
 MP2 triplet pair energy:              -0.10144513
 MP2 correlation energy:               -0.28777073
 MP2 total energy:                    -76.35055047

 SCS-MP2 correlation energy:           -0.28671213   (PS=  1.200000  PT=  0.333333)
 SCS-MP2 total energy:                -76.34949187

 ITER.      SQ.NORM     CORR.ENERGY   TOTAL ENERGY   ENERGY CHANGE        DEN1      VAR(S)    VAR(P)  DIIS     TIME  TIME/IT
   1      1.06459861    -0.28949852   -76.35227827    -0.00172779     0.00416900  0.85D-03  0.11D-02  1  1   223.92    51.62
   2      1.06827428    -0.28975609   -76.35253584    -0.00025757    -0.00493891  0.14D-04  0.12D-03  2  2   274.38    52.08
   3      1.06974722    -0.28983680   -76.35261654    -0.00008071    -0.00102613  0.89D-05  0.63D-05  3  3   324.81    52.20
   4      1.07022671    -0.28983621   -76.35261596     0.00000059    -0.00022284  0.48D-06  0.75D-06  4  4   375.03    52.22
   5      1.07033014    -0.28983394   -76.35261368     0.00000228    -0.00003189  0.16D-06  0.49D-07  5  5   425.50    52.27
   6      1.07036763    -0.28983079   -76.35261054     0.00000315    -0.00000859  0.14D-07  0.35D-08  6  6   476.08    52.31
   7      1.07037465    -0.28983044   -76.35261019     0.00000035    -0.00000052  0.98D-09  0.55D-09  6  1   526.63    52.35
   8      1.07037596    -0.28983039   -76.35261013     0.00000005     0.00000023  0.16D-09  0.61D-10  6  2   577.19    52.37
   9      1.07037658    -0.28983034   -76.35261008     0.00000005    -0.00000001  0.10D-10  0.61D-11  6  3   627.78    52.40
  10      1.07037665    -0.28983033   -76.35261008     0.00000000     0.00000003  0.18D-11  0.79D-12  6  4   678.28    52.42
  11      1.07037664    -0.28983033   -76.35261008    -0.00000000     0.00000002  0.40D-12  0.14D-12  6  5   728.81    52.43
  12      1.07037663    -0.28983033   -76.35261008    -0.00000000     0.00000001  0.77D-13  0.20D-13  6  6   779.45    52.45
  13      1.07037662    -0.28983034   -76.35261008    -0.00000000     0.00000000  0.10D-13  0.33D-14  6  1   830.18    52.45
  14      1.07037661    -0.28983034   -76.35261008    -0.00000000     0.00000000  0.11D-14  0.68D-15  6  2   880.22    52.44
  15      1.07037661    -0.28983034   -76.35261008    -0.00000000     0.00000000  0.12D-15  0.82D-16  6  3   929.32    52.34
  16      1.07037661    -0.28983034   -76.35261008    -0.00000000     0.00000000  0.15D-16  0.11D-16  6  4   978.81    52.27

 Norm of t1 vector:      0.03876172      S-energy:    -0.00000000      T1 diagnostic:  0.00969043
                                                                       D1 diagnostic:  0.02024973


 Total CPU time for triples:    459.86 sec


 RESULTS
 =======

  Reference energy                    -76.062779746570
  CCSD singlet pair energy             -0.200167460769
  CCSD triplet pair energy             -0.089662875810
  CCSD correlation energy              -0.289830336620

  Triples (T) contribution             -0.009624179292
  Total correlation energy             -0.299454515912

  CCSD total energy                   -76.352610083190
  CCSD[T] energy                      -76.362554731197
  CCSD-T energy                       -76.362079217575
 !CCSD(T) total energy                -76.362234262482

 Timing summary (sec):

 STEP                 CPU(USER)    SYS     CPU(TOT)    WALL
 Transformation        173.87      5.89    179.76    180.24
 CCSD iterations       805.03     30.19    835.22    836.43
 Triples               459.86      3.70    463.56    464.25

 Program statistics:

 Available memory in ccsd:              1999999921
 Min. memory needed in ccsd:               6768234
 Max. memory used in ccsd:                 7865440
 Max. memory used in cckext:               5182436 (16 integral passes)



 **********************************************************************************************************************************
 DATASETS  * FILE   NREC   LENGTH (MB)   RECORD NAMES
              1      19     1346.95       500      610      700      900      950      970     1000      129      960     1100   
                                          VAR    BASINP    GEOM    SYMINP    ZMAT    AOBASIS   BASIS     P2S    ABASIS      S 
                                         1400     1410     1200     1210     1080     1600     1650     1700     1380   
                                           T        V       H0       H01     AOSYM     SMH    MOLCAS    OPER     JKOP   

              2       6       17.39       700     1000      520     2100      200     2101   
                                         GEOM     BASIS   MCVARS     RHF    OPTIONS    RHF  

 PROGRAMS   *        TOTAL   CCSD(T)    HF-SCF       INT   CCSD(T)    HF-SCF       INT
 CPU TIMES  *      8526.54   1438.98    266.57      0.34   6214.82    287.77    317.83
 REAL TIME  *      8930.50 SEC
 DISK USED  *         3.24 GB (local),       75.68 GB (total)
 SF USED    *         3.08 GB
 GA USED    *         0.00 MB       (max)       0.00 MB       (current)
 **********************************************************************************************************************************

 Running procedure: SET_MONOMER2

 Dummy atoms: O10  H19  H20


 Recomputing one-electron integrals since nuclear charges changed


 PROGRAM * SEWARD (Integral evaluation for generally contracted gaussian basis sets)     Author: Roland Lindh, 1990

 Geometry written to block  1 of record 700


 Point group  C1  



 ATOMIC COORDINATES

 NR  ATOM    CHARGE       X              Y              Z

   1  O10     0.00   -7.075890501    0.749465381   -4.723937366
   2  H19     0.00   -8.725621408    0.873242442   -3.820459306
   3  H20     0.00   -7.500134016    0.238294464   -6.423179097
   4  C1      6.00   -6.193010455    2.801518980    2.403542658
   5  H41     1.00   -4.656285171    1.699997622    3.119937832
   6  H42     1.00   -5.973046335    4.726205038    2.982932688
   7  H43     1.00   -7.940251230    2.077186956    3.118237078
   8  H44     1.00   -6.176569838    2.685300823    0.384937212

 Bond lengths in Bohr (Angstrom)

 1-2  1.884994809  1-3  1.824472726  4-5  2.021904040  4-6  2.022002335  4-7  2.021953343
     ( 0.997496296)     ( 0.965469388)     ( 1.069945541)     ( 1.069997556)     ( 1.069971630)

 4-8  2.022015060
     ( 1.070004290)

 Bond angles

  2-1-3  105.14667399   5-4-6  109.53398059   5-4-7  109.65604535   5-4-8  108.43490854

  6-4-7  109.49436728   6-4-8  109.86987750   7-4-8  109.83468330

 NUCLEAR CHARGE:                   10
 NUMBER OF PRIMITIVE AOS:         578
 NUMBER OF SYMMETRY AOS:          474
 NUMBER OF CONTRACTIONS:          436   (  436A   )
 NUMBER OF CORE ORBITALS:           1   (    1A   )
 NUMBER OF VALENCE ORBITALS:        8   (    8A   )

 MOLECULE CHANGED: INITIALIZING OCCUPATION AND DUMP RECORDS


 NUCLEAR REPULSION ENERGY   13.68681606

 Basis set:  JKFIT                   
 Basis size:   740
 Attributes:
 Sphericals:   T
 Basis set:  MP2FIT                  
 Basis size:   816
 Attributes:
 Sphericals:   T
 Basis set:  RI                      
 Basis size:   556
 Attributes:
 Sphericals:   T
 Basis set:  TDDFT                   
 Basis size:   816
 Attributes:
 Sphericals:   T

 Eigenvalues of metric

         1 0.136E-04 0.197E-04 0.311E-04 0.365E-04 0.613E-04 0.760E-04 0.865E-04 0.957E-04


 Contracted 2-electron integrals neglected if value below      1.0D-14

 OPERATOR DM      FOR CENTER  0  COORDINATES:    0.000000    0.000000    0.000000


 **********************************************************************************************************************************
 DATASETS  * FILE   NREC   LENGTH (MB)   RECORD NAMES
              1      18       37.06       500      610      700      900      950      970     1000      129      960     1100   
                                          VAR    BASINP    GEOM    SYMINP    ZMAT    AOBASIS   BASIS     P2S    ABASIS      S 
                                         1400     1410     1200     1210     1080     1600     1650     1700   
                                           T        V       H0       H01     AOSYM     SMH    MOLCAS    OPER   

              2       6       17.39       700     1000      520     2100      200     2101   
                                         GEOM     BASIS   MCVARS     RHF    OPTIONS    RHF  

 PROGRAMS   *        TOTAL       INT   CCSD(T)    HF-SCF       INT   CCSD(T)    HF-SCF       INT
 CPU TIMES  *      8526.93      0.39   1438.98    266.57      0.34   6214.82    287.77    317.83
 REAL TIME  *      8931.57 SEC
 DISK USED  *         3.24 GB (local),       75.68 GB (total)
 SF USED    *         3.08 GB
 GA USED    *         0.00 MB       (max)       0.00 MB       (current)
 **********************************************************************************************************************************


 PROGRAM * RHF-SCF (CLOSED SHELL)       Authors: W. Meyer, H.-J. Werner


 NUMBER OF ELECTRONS:       5+    5-    SPACE SYMMETRY=1    SPIN SYMMETRY: Singlet 
 CONVERGENCE THRESHOLDS:    1.00E-08 (Density)    1.00E-11 (Energy)
 MAX. NUMBER OF ITERATIONS:       60
 INTERPOLATION TYPE:            DIIS
 INTERPOLATION STEPS:              2 (START)      1 (STEP)
 LEVEL SHIFTS:                  0.00 (CLOSED)  0.00 (OPEN) 



 Orbital guess generated from atomic densities. Full valence occupancy:    9

 Molecular orbital dump at record        2102.2

 Initial occupancy:   5

 ITERATION    DDIFF          GRAD             ENERGY        2-EL.EN.            DIPOLE MOMENTS         DIIS   ORB.
    1      0.000D+00      0.000D+00       -40.19609502     53.506289    0.00411   -0.00276   -0.00131    0    start
    2      0.000D+00      0.257D-02       -40.21334907     52.217625    0.00129   -0.00088   -0.00038    1    diag
    3      0.158D-02      0.998D-03       -40.21562498     52.672084    0.00182   -0.00123   -0.00055    2    diag
    4      0.442D-03      0.249D-03       -40.21594443     52.617271    0.00162   -0.00110   -0.00048    3    diag
    5      0.167D-03      0.322D-04       -40.21594992     52.619419    0.00159   -0.00108   -0.00047    4    diag
    6      0.417D-04      0.264D-05       -40.21594997     52.619555    0.00159   -0.00108   -0.00047    5    diag
    7      0.557D-05      0.212D-06       -40.21594997     52.619516    0.00159   -0.00108   -0.00047    6    diag
    8      0.225D-06      0.170D-07       -40.21594997     52.619517    0.00159   -0.00108   -0.00047    7    diag
    9      0.822D-07      0.217D-08       -40.21594997     52.619517    0.00159   -0.00108   -0.00047    8    diag
   10      0.820D-08      0.595D-09       -40.21594997     52.619517    0.00159   -0.00108   -0.00047    0    orth

 Final occupancy:   5

 !RHF STATE  1.1 Energy               -40.215949965536
 Nuclear energy                        13.68681606
 One-electron energy                  -80.21252461
 Two-electron energy                   26.30975859
 Virial quotient                       -0.99838100
 !RHF STATE  1.1 Dipole moment          0.00158857    -0.00108109    -0.00047023
 Dipole moment /Debye                   0.00403748    -0.00274768    -0.00119513

 Orbital energies:

         1.1          2.1          3.1          4.1          5.1          6.1          7.1
    -11.196223    -0.950661    -0.551889    -0.549955    -0.547776     0.023574     0.036323


 HOMO      5.1    -0.547776 =     -14.9057eV
 LUMO      6.1     0.023574 =       0.6415eV
 LUMO-HOMO         0.571350 =      15.5472eV


 **********************************************************************************************************************************
 DATASETS  * FILE   NREC   LENGTH (MB)   RECORD NAMES
              1      18       37.06       500      610      700      900      950      970     1000      129      960     1100   
                                          VAR    BASINP    GEOM    SYMINP    ZMAT    AOBASIS   BASIS     P2S    ABASIS      S 
                                         1400     1410     1200     1210     1080     1600     1650     1700   
                                           T        V       H0       H01     AOSYM     SMH    MOLCAS    OPER   

              2       7       27.51       700     1000      520     2100      200     2101     2102   
                                         GEOM     BASIS   MCVARS     RHF    OPTIONS    RHF      RHF  

 PROGRAMS   *        TOTAL    HF-SCF       INT   CCSD(T)    HF-SCF       INT   CCSD(T)    HF-SCF       INT
 CPU TIMES  *      8753.44    226.51      0.39   1438.98    266.57      0.34   6214.82    287.77    317.83
 REAL TIME  *      9181.64 SEC
 DISK USED  *         3.24 GB (local),       75.68 GB (total)
 SF USED    *         3.08 GB
 GA USED    *         0.00 MB       (max)       0.00 MB       (current)
 **********************************************************************************************************************************

 Basis set:  JKFIT                   
 Basis size:   740
 Attributes:
 Sphericals:   T
 Basis set:  MP2FIT                  
 Basis size:   816
 Attributes:
 Sphericals:   T
 Basis set:  RI                      
 Basis size:   556
 Attributes:
 Sphericals:   T
 Basis set:  TDDFT                   
 Basis size:   816
 Attributes:
 Sphericals:   T

 PROGRAM * CCSD (Closed-shell coupled cluster)     Authors: C. Hampel, H.-J. Werner, 1991, M. Deegan, P.J. Knowles, 1992


 Convergence thresholds:  THRVAR = 1.00D-08  THRDEN = 1.00D-10

 CCSD(T)     terms to be evaluated (factor= 1.000)


 Number of core orbitals:           1 (   1 )
 Number of closed-shell orbitals:   4 (   4 )
 Number of external orbitals:     431 ( 431 )

 Molecular orbitals read from record     2102.2  Type=RHF/CANONICAL (state 1.1)

 Number of N-1 electron functions:               4
 Number of N-2 electron functions:              10
 Number of singly external CSFs:              1724
 Number of doubly external CSFs:           1486950
 Total number of CSFs:                     1488675

 Length of J-op  integral file:               0.00 MB
 Length of K-op  integral file:              13.08 MB
 Length of 3-ext integral record:             0.00 MB

 Memory could be reduced to 526.20 Mwords without degradation in triples

 Integral transformation finished. Total CPU: 174.32 sec, npass=  1  Memory used: 214.76 MW

 Reference energy:                    -40.21594997

 MP2 singlet pair energy:              -0.15442951
 MP2 triplet pair energy:              -0.05646349
 MP2 correlation energy:               -0.21089300
 MP2 total energy:                    -40.42684297

 SCS-MP2 correlation energy:           -0.22044825   (PS=  1.200000  PT=  0.333333)
 SCS-MP2 total energy:                -40.43639822

 ITER.      SQ.NORM     CORR.ENERGY   TOTAL ENERGY   ENERGY CHANGE        DEN1      VAR(S)    VAR(P)  DIIS     TIME  TIME/IT
   1      1.07097400    -0.22687850   -40.44282846    -0.01598550    -0.01039831  0.55D-03  0.97D-03  1  1   224.55    51.55
   2      1.07611909    -0.22797857   -40.44392853    -0.00110007    -0.00547162  0.14D-04  0.91D-04  2  2   274.91    51.89
   3      1.07764029    -0.22801779   -40.44396775    -0.00003922    -0.00107318  0.18D-05  0.58D-05  3  3   325.37    52.06
   4      1.07800003    -0.22802348   -40.44397345    -0.00000569    -0.00017108  0.12D-06  0.28D-06  4  4   375.70    52.13
   5      1.07804806    -0.22802537   -40.44397533    -0.00000189    -0.00001302  0.10D-07  0.20D-07  5  5   426.16    52.21
   6      1.07805630    -0.22802415   -40.44397411     0.00000122    -0.00000328  0.63D-09  0.14D-08  6  6   476.71    52.27
   7      1.07805733    -0.22802386   -40.44397383     0.00000029    -0.00000055  0.45D-10  0.11D-09  6  1   527.23    52.30
   8      1.07805728    -0.22802391   -40.44397388    -0.00000005     0.00000023  0.45D-11  0.60D-11  6  3   577.64    52.33
   9      1.07805740    -0.22802390   -40.44397386     0.00000002    -0.00000008  0.37D-12  0.50D-12  6  2   628.20    52.38
  10      1.07805740    -0.22802389   -40.44397386     0.00000000     0.00000000  0.45D-13  0.54D-13  6  4   678.89    52.40
  11      1.07805741    -0.22802389   -40.44397386     0.00000000     0.00000000  0.42D-14  0.55D-14  6  5   729.59    52.41
  12      1.07805740    -0.22802389   -40.44397386     0.00000000     0.00000000  0.95D-16  0.60D-15  6  6   780.01    52.41
  13      1.07805740    -0.22802389   -40.44397386    -0.00000000     0.00000000  0.74D-17  0.60D-16  6  1   829.17    52.32
  14      1.07805740    -0.22802389   -40.44397386    -0.00000000     0.00000000  0.11D-17  0.79D-17  6  3   877.90    52.19

 Norm of t1 vector:      0.03128325      S-energy:    -0.00000000      T1 diagnostic:  0.00782081
                                                                       D1 diagnostic:  0.01257224

 Total CPU time for triples:    451.48 sec


 RESULTS
 =======

  Reference energy                    -40.215949965535
  CCSD singlet pair energy             -0.173328619182
  CCSD triplet pair energy             -0.054695273838
  CCSD correlation energy              -0.228023893025

  Triples (T) contribution             -0.006882065254
  Total correlation energy             -0.234905958279

  CCSD total energy                   -40.443973858560
  CCSD[T] energy                      -40.451069074169
  CCSD-T energy                       -40.450788316406
 !CCSD(T) total energy                -40.450855923814

 Timing summary (sec):

 STEP                 CPU(USER)    SYS     CPU(TOT)    WALL
 Transformation        174.67      5.30    179.97    180.53
 CCSD iterations       703.31     26.53    729.84    730.89
 Triples               451.48      4.06    455.54    456.19

 Program statistics:

 Available memory in ccsd:              1999999916
 Min. memory needed in ccsd:               6768234
 Max. memory used in ccsd:                 7865440
 Max. memory used in cckext:               5182436 (14 integral passes)



 **********************************************************************************************************************************
 DATASETS  * FILE   NREC   LENGTH (MB)   RECORD NAMES
              1      19     1346.95       500      610      700      900      950      970     1000      129      960     1100   
                                          VAR    BASINP    GEOM    SYMINP    ZMAT    AOBASIS   BASIS     P2S    ABASIS      S 
                                         1400     1410     1200     1210     1080     1600     1650     1700     1380   
                                           T        V       H0       H01     AOSYM     SMH    MOLCAS    OPER     JKOP   

              2       7       27.51       700     1000      520     2100      200     2101     2102   
                                         GEOM     BASIS   MCVARS     RHF    OPTIONS    RHF      RHF  

 PROGRAMS   *        TOTAL   CCSD(T)    HF-SCF       INT   CCSD(T)    HF-SCF       INT   CCSD(T)    HF-SCF       INT
 CPU TIMES  *     10083.15   1329.70    226.51      0.39   1438.98    266.57      0.34   6214.82    287.77    317.83
 REAL TIME  *     10550.14 SEC
 DISK USED  *         3.24 GB (local),       75.68 GB (total)
 SF USED    *         3.08 GB
 GA USED    *         0.00 MB       (max)       0.00 MB       (current)
 **********************************************************************************************************************************
 Molecular orbitals read from record     2102.2  Type=RHF/CANONICAL (state 1.1)
 Occupation numbers read from record     2102.2  Type=RHF/RHF (state 1.1)
 Orbital energies read from record       2102.2  Type=RHF/CANONICAL (state 1.1)
 Redundancy group numbers read from rec  2102.2  Type=RHF/RHF (state 1.1)

 CCSD(T)/aug-cc-pVQZ energy=    -40.450855923814

         CCSD(T)          HF-SCF         CCSD(T)          HF-SCF         CCSD(T)          HF-SCF
    -40.45085592    -40.21594997    -76.36223426    -76.06277975   -116.81385971   -116.27876666
 **********************************************************************************************************************************
 Molpro calculation terminated
