
 Primary working directories    : /scratch/klimes/383114/molpro.k06i1F8vo7
 Secondary working directories  : /scratch/klimes/383114/molpro.k06i1F8vo7
 Wavefunction directory         : /scratch/klimes/383114/
 Main file repository           : /scratch/klimes/383114/molpro.k06i1F8vo7/

 id        : karlovklimes

 Nodes                      nprocs
 nc-03.cc.karlov.mff.cuni.cz    4

 Using customized tuning parameters: mindgm=1; mindgv=20; mindgc=4; mindgr=1; noblas=0; minvec=7
 default implementation of scratch files=sf  


 Variables initialized (930), CPU time= 0.00 sec
                                                                                 !gdirect
 memory,2000,m
 gthresh,orbital=1d-10,energy=1d-10,grid=1d-8
 
 symmetry,nosym
 angstrom
 geometry={
 O11        -2.921900000000      2.481400000000      4.906200000000
 H21        -2.027400000000      2.492000000000      4.514500000000
 H22        -3.418800000000      3.190500000000      4.446000000000
 C1        -3.277200000000      1.482500000000      1.271900000000
 H41        -2.464000000000      0.899600000000      1.651000000000
 H42        -3.160800000000      2.501000000000      1.578500000000
 H43        -4.201800000000      1.099200000000      1.650100000000
 H44        -3.268500000000      1.421000000000      0.203700000000
 }
 
 nkerna=1
 nkernb=1
 
 gf=0
 sing=1
 thrdum=1d-4
 gridthr=1d-8
 
 basis={
 set,orbital
 default,avqz
 set,jkfit
 default,avqz/jkfit
 set,mp2fit
 default,avqz/mp2fit
 set,ri
 default,avqz/optri
 set,tddft
 default,avqz/mp2fit
 }
 
 proc set_monomer1
 dummy,4,5,6,7,8
 endproc
 
 proc set_monomer2
 dummy,1,2,3
 endproc
 
                                                                                 !1234 energy
 {hf,accu=1.d-16}
 ccsd(t)
 
 set_monomer1
 {hf,accu=1.d-16}
 ccsd(t)
 
 set_monomer2
 {hf,accu=1.d-16}
 ccsd(t)
 
 Commands  initialized (760), CPU time= 0.01 sec, 617 directives.
 Default parameters read. Elapsed time= 0.19 sec

 Checking input...
 Passed
1


                                         ***  PROGRAM SYSTEM MOLPRO  ***
                                       Copyright, TTI GmbH Stuttgart, 2015
                                    Version 2019.1 linked Jan 14 2019 13:09:19


 **********************************************************************************************************************************
 LABEL *                                                                                 
  64 bit mpp version                                                                     DATE: 11-Mar-20          TIME: 13:21:27  
 **********************************************************************************************************************************

 SHA1:             d688ac825633d238f2093ded1675ba87ccd55965
 **********************************************************************************************************************************

 THRESHOLDS:

 ZERO    =  1.00D-12  ONEINT  =  1.00D-12  TWOINT  =  1.00D-11  PREFAC  =  1.00D-14  XXXXXX  =  1.00D-09  EORDER  =  1.00D-04
 ENERGY  =  1.00D-10  ETEST   =  0.00D+00  EDENS   =  0.00D+00  THRDEDEF=  1.00D-06  GRADIENT=  1.00D-02  STEP    =  1.00D-03
 ORBITAL =  1.00D-10  CIVEC   =  1.00D-05  COEFF   =  1.00D-04  PRINTCI =  5.00D-02  PUNCHCI =  9.90D+01  OPTGRAD =  3.00D-04
 OPTENERG=  1.00D-06  OPTSTEP =  3.00D-04  THRGRAD =  1.00D-10  COMPRESS=  1.00D-11  VARMIN  =  1.00D-07  VARMAX  =  1.00D-03
 THRDOUB =  0.00D+00  THRDIV  =  1.00D-05  THRRED  =  1.00D-07  THRPSP  =  1.00D+00  THRDC   =  1.00D-10  THRCS   =  1.00D-10
 THRNRM  =  1.00D-08  THREQ   =  0.00D+00  THRDE   =  1.00D+00  THRREF  =  1.00D-05  SPARFAC =  1.00D+00  THRDLP  =  1.00D-07
 THRDIA  =  1.00D-10  THRDLS  =  1.00D-07  THRGPS  =  0.00D+00  THRKEX  =  0.00D+00  THRDIS  =  2.00D-01  THRVAR  =  1.00D-10
 THRLOC  =  1.00D-06  THRGAP  =  1.00D-06  THRLOCT = -1.00D+00  THRGAPT = -1.00D+00  THRORB  =  1.00D-06  THRMLTP =  0.00D+00
 THRCPQCI=  1.00D-10  KEXTA   =  0.00D+00  THRCOARS=  0.00D+00  SYMTOL  =  1.00D-06  GRADTOL =  1.00D-06  THROVL  =  1.00D-08
 THRORTH =  1.00D-08  GRID    =  1.00D-08  GRIDMAX =  1.00D-03  DTMAX   =  0.00D+00  THROCCDE=  1.00D-01  THROCCDE=  1.00D-01
 THRPRINT=  2.50D-01


 Variable memory set to 2000000000 words,  buffer space 

 ZSYMEL=NOSYM
 ZUNIT=ANG


Geometry recognized as XYZ

 SETTING NKERNA         =         1.00000000                                  
 SETTING NKERNB         =         1.00000000                                  
 SETTING GF             =     0.00000000D+00                                  
 SETTING SING           =         1.00000000                                  
 SETTING THRDUM         =     1.00000000D-04                                  
 SETTING GRIDTHR        =     1.00000000D-08                                  
 SETTING BASIS          =    AVQZ


 Recomputing integrals since basis changed


 Using spherical harmonics

 Library entry O      S aug-cc-pVQZ          selected for orbital group  1
 Library entry O      P aug-cc-pVQZ          selected for orbital group  1
 Library entry O      D aug-cc-pVQZ          selected for orbital group  1
 Library entry O      F aug-cc-pVQZ          selected for orbital group  1
 Library entry O      G aug-cc-pVQZ          selected for orbital group  1
 Library entry H      S aug-cc-pVQZ          selected for orbital group  2
 Library entry H      P aug-cc-pVQZ          selected for orbital group  2
 Library entry H      D aug-cc-pVQZ          selected for orbital group  2
 Library entry H      F aug-cc-pVQZ          selected for orbital group  2
 Library entry C      S aug-cc-pVQZ          selected for orbital group  3
 Library entry C      P aug-cc-pVQZ          selected for orbital group  3
 Library entry C      D aug-cc-pVQZ          selected for orbital group  3
 Library entry C      F aug-cc-pVQZ          selected for orbital group  3
 Library entry C      G aug-cc-pVQZ          selected for orbital group  3


 PROGRAM * SEWARD (Integral evaluation for generally contracted gaussian basis sets)     Author: Roland Lindh, 1990

 Geometry written to block  1 of record 700


 Point group  C1  



 ATOMIC COORDINATES

 NR  ATOM    CHARGE       X              Y              Z

   1  O11     8.00   -5.521590763    4.689166405    9.271374312
   2  H21     1.00   -3.831230745    4.709197502    8.531168589
   3  H22     1.00   -6.460595675    6.029171200    8.401722350
   4  C1      6.00   -6.193010455    2.801518980    2.403542658
   5  H41     1.00   -4.656285171    1.699997622    3.119937832
   6  H42     1.00   -5.973046335    4.726205038    2.982932688
   7  H43     1.00   -7.940251230    2.077186956    3.118237078
   8  H44     1.00   -6.176569838    2.685300823    0.384937212

 Bond lengths in Bohr (Angstrom)

 1-2  1.845432944  1-3  1.853007720  4-5  2.021904040  4-6  2.022002335  4-7  2.021953343
     ( 0.976561058)     ( 0.980569457)     ( 1.069945541)     ( 1.069997556)     ( 1.069971630)

 4-8  2.022015060
     ( 1.070004290)

 Bond angles

  2-1-3  105.54946434   5-4-6  109.53398059   5-4-7  109.65604535   5-4-8  108.43490854

  6-4-7  109.49436728   6-4-8  109.86987750   7-4-8  109.83468330

 NUCLEAR CHARGE:                   20
 NUMBER OF PRIMITIVE AOS:         578
 NUMBER OF SYMMETRY AOS:          474
 NUMBER OF CONTRACTIONS:          436   (  436A   )
 NUMBER OF CORE ORBITALS:           2   (    2A   )
 NUMBER OF VALENCE ORBITALS:       14   (   14A   )


 NUCLEAR REPULSION ENERGY   36.73986578


 Basis set:  JKFIT                   
 Basis size:   740
 Attributes:
 Sphericals:   T
 Basis set:  MP2FIT                  
 Basis size:   816
 Attributes:
 Sphericals:   T
 Basis set:  RI                      
 Basis size:   556
 Attributes:
 Sphericals:   T
 Basis set:  TDDFT                   
 Basis size:   816
 Attributes:
 Sphericals:   T

 **********************************************************************************************************************************


 Eigenvalues of metric

         1 0.147E-04 0.223E-04 0.343E-04 0.368E-04 0.637E-04 0.837E-04 0.932E-04 0.104E-03


 Contracted 2-electron integrals neglected if value below      1.0D-14
 AO integral compression algorithm  1   Integral accuracy      1.0D-14

     22992.126 MB (compressed) written to integral file ( 57.3%)

     Node minimum: 5213.258 MB, node maximum: 6596.329 MB


 NUMBER OF SORTED TWO-ELECTRON INTEGRALS: 1134451344.     BUFFER LENGTH:  32768
 NUMBER OF SEGMENTS:  36  SEGMENT LENGTH:   31999984      RECORD LENGTH: 524288

 Memory used in sort:      32.56 MW

 SORT1 READ  5012305700. AND WROTE   974433904. INTEGRALS IN   2808 RECORDS. CPU TIME:   254.53 SEC, REAL TIME:   274.89 SEC
 SORT2 READ  3896453165. AND WROTE  4537853011. INTEGRALS IN  79548 RECORDS. CPU TIME:    14.74 SEC, REAL TIME:   181.99 SEC

 Node minimum:  1134427528.  Node maximum:  1134498978. integrals

 OPERATOR DM      FOR CENTER  0  COORDINATES:    0.000000    0.000000    0.000000


 **********************************************************************************************************************************
 DATASETS  * FILE   NREC   LENGTH (MB)   RECORD NAMES
              1      18       37.06       500      610      700      900      950      970     1000      129      960     1100   
                                          VAR    BASINP    GEOM    SYMINP    ZMAT    AOBASIS   BASIS     P2S    ABASIS      S 
                                         1400     1410     1200     1210     1080     1600     1650     1700   
                                           T        V       H0       H01     AOSYM     SMH    MOLCAS    OPER   

 PROGRAMS   *        TOTAL       INT
 CPU TIMES  *       336.33    336.10
 REAL TIME  *       539.69 SEC
 DISK USED  *        37.58 MB (local),       69.86 GB (total)
 GA USED    *         0.00 MB       (max)       0.00 MB       (current)
 **********************************************************************************************************************************


 PROGRAM * RHF-SCF (CLOSED SHELL)       Authors: W. Meyer, H.-J. Werner


 NUMBER OF ELECTRONS:      10+   10-    SPACE SYMMETRY=1    SPIN SYMMETRY: Singlet 
 CONVERGENCE THRESHOLDS:    1.00E-08 (Density)    1.00E-11 (Energy)
 MAX. NUMBER OF ITERATIONS:       60
 INTERPOLATION TYPE:            DIIS
 INTERPOLATION STEPS:              2 (START)      1 (STEP)
 LEVEL SHIFTS:                  0.00 (CLOSED)  0.00 (OPEN) 



 Orbital guess generated from atomic densities. Full valence occupancy:   16

 Molecular orbital dump at record        2100.2

 Initial occupancy:  10

 ITERATION    DDIFF          GRAD             ENERGY        2-EL.EN.            DIPOLE MOMENTS         DIIS   ORB.
    1      0.000D+00      0.000D+00      -116.22068394    158.926186    0.38788    0.69411   -0.82673    0    start
    2      0.000D+00      0.379D-02      -116.26488106    154.071025    0.20502    0.35880   -0.48529    1    diag
    3      0.274D-02      0.222D-02      -116.27845740    156.099602    0.25187    0.44508   -0.57103    2    diag
    4      0.951D-03      0.331D-03      -116.27912046    155.987396    0.24878    0.43929   -0.56254    3    diag
    5      0.203D-03      0.969D-04      -116.27918951    155.981489    0.24843    0.43883   -0.56243    4    diag
    6      0.814D-04      0.235D-04      -116.27919331    155.987217    0.24817    0.43834   -0.56188    5    diag
    7      0.217D-04      0.462D-05      -116.27919353    155.985529    0.24818    0.43837   -0.56188    6    diag
    8      0.628D-05      0.116D-05      -116.27919355    155.985699    0.24815    0.43833   -0.56184    7    diag
    9      0.132D-05      0.273D-06      -116.27919355    155.985674    0.24815    0.43832   -0.56182    8    diag
   10      0.397D-06      0.322D-07      -116.27919355    155.985675    0.24815    0.43832   -0.56182    9    orth
   11      0.461D-07      0.757D-08      -116.27919355    155.985676    0.24815    0.43832   -0.56182    9    diag
   12      0.839D-08      0.204D-08      -116.27919355    155.985676    0.24815    0.43832   -0.56182    0    orth

 Final occupancy:  10

 !RHF STATE  1.1 Energy              -116.279193551682
 Nuclear energy                        36.73986578
 One-electron energy                 -231.01189751
 Two-electron energy                   77.99283818
 Virial quotient                       -1.00072823
 !RHF STATE  1.1 Dipole moment          0.24814595     0.43831617    -0.56182000
 Dipole moment /Debye                   0.63068278     1.11401562    -1.42791046

 Orbital energies:

         1.1          2.1          3.1          4.1          5.1          6.1          7.1          8.1          9.1         10.1
    -20.566710   -11.199667    -1.340377    -0.953973    -0.707180    -0.578458    -0.555593    -0.553175    -0.550991    -0.506987

        11.1         12.1
      0.023382     0.037160


 HOMO     10.1    -0.506987 =     -13.7958eV
 LUMO     11.1     0.023382 =       0.6363eV
 LUMO-HOMO         0.530369 =      14.4321eV


 **********************************************************************************************************************************
 DATASETS  * FILE   NREC   LENGTH (MB)   RECORD NAMES
              1      18       37.06       500      610      700      900      950      970     1000      129      960     1100   
                                          VAR    BASINP    GEOM    SYMINP    ZMAT    AOBASIS   BASIS     P2S    ABASIS      S 
                                         1400     1410     1200     1210     1080     1600     1650     1700   
                                           T        V       H0       H01     AOSYM     SMH    MOLCAS    OPER   

              2       4        6.75       700     1000      520     2100   
                                         GEOM     BASIS   MCVARS     RHF  

 PROGRAMS   *        TOTAL    HF-SCF       INT
 CPU TIMES  *       605.89    269.54    336.10
 REAL TIME  *       857.06 SEC
 DISK USED  *        57.63 MB (local),       69.94 GB (total)
 SF USED    *         0.76 MB
 GA USED    *         0.00 MB       (max)       0.00 MB       (current)
 **********************************************************************************************************************************

 Basis set:  JKFIT                   
 Basis size:   740
 Attributes:
 Sphericals:   T
 Basis set:  MP2FIT                  
 Basis size:   816
 Attributes:
 Sphericals:   T
 Basis set:  RI                      
 Basis size:   556
 Attributes:
 Sphericals:   T
 Basis set:  TDDFT                   
 Basis size:   816
 Attributes:
 Sphericals:   T

 PROGRAM * CCSD (Closed-shell coupled cluster)     Authors: C. Hampel, H.-J. Werner, 1991, M. Deegan, P.J. Knowles, 1992


 Convergence thresholds:  THRVAR = 1.00D-08  THRDEN = 1.00D-10

 CCSD(T)     terms to be evaluated (factor= 1.000)


 Number of core orbitals:           2 (   2 )
 Number of closed-shell orbitals:   8 (   8 )
 Number of external orbitals:     426 ( 426 )

 Molecular orbitals read from record     2100.2  Type=RHF/CANONICAL (state 1.1)

 Number of N-1 electron functions:               8
 Number of N-2 electron functions:              36
 Number of singly external CSFs:              3408
 Number of doubly external CSFs:           5808936
 Total number of CSFs:                     5812345

 Length of J-op  integral file:               0.00 MB
 Length of K-op  integral file:              13.08 MB
 Length of 3-ext integral record:             0.00 MB

 Memory could be reduced to 828.85 Mwords without degradation in triples

 Integral transformation finished. Total CPU: 360.86 sec, npass=  1  Memory used: 389.48 MW

 Reference energy:                   -116.27919355

 MP2 singlet pair energy:              -0.34078537
 MP2 triplet pair energy:              -0.15833583
 MP2 correlation energy:               -0.49912120
 MP2 total energy:                   -116.77831475

 SCS-MP2 correlation energy:           -0.50746251   (PS=  1.200000  PT=  0.333333)
 SCS-MP2 total energy:               -116.78665606

 ITER.      SQ.NORM     CORR.ENERGY   TOTAL ENERGY   ENERGY CHANGE        DEN1      VAR(S)    VAR(P)  DIIS     TIME  TIME/IT
   1      1.13564056    -0.51685570  -116.79604925    -0.01773450    -0.00627491  0.14D-02  0.20D-02  1  1   528.05   168.34
   2      1.14423544    -0.51821176  -116.79740531    -0.00135606    -0.01022259  0.27D-04  0.25D-03  2  2   696.12   169.63
   3      1.14743711    -0.51833300  -116.79752655    -0.00012124    -0.00224438  0.12D-04  0.12D-04  3  3   863.84   169.90
   4      1.14829399    -0.51833531  -116.79752887    -0.00000232    -0.00040771  0.58D-06  0.12D-05  4  4  1032.37   170.20
   5      1.14845067    -0.51833502  -116.79752857     0.00000030    -0.00004618  0.20D-06  0.86D-07  5  5  1200.58   170.32
   6      1.14849909    -0.51833133  -116.79752488     0.00000369    -0.00001173  0.19D-07  0.65D-08  6  6  1368.86   170.45
   7      1.14850842    -0.51833034  -116.79752389     0.00000099    -0.00000156  0.18D-08  0.98D-09  6  2  1537.02   170.53
   8      1.14851047    -0.51833019  -116.79752374     0.00000015    -0.00000007  0.35D-09  0.11D-09  6  1  1705.48   170.59
   9      1.14851135    -0.51833014  -116.79752369     0.00000005     0.00000003  0.29D-10  0.14D-10  6  3  1874.08   170.67
  10      1.14851151    -0.51833013  -116.79752369     0.00000001     0.00000006  0.32D-11  0.22D-11  6  4  2042.09   170.66
  11      1.14851148    -0.51833014  -116.79752369    -0.00000001     0.00000006  0.59D-12  0.29D-12  6  5  2210.12   170.66
  12      1.14851146    -0.51833014  -116.79752369    -0.00000000     0.00000002  0.10D-12  0.37D-13  6  6  2378.62   170.68
  13      1.14851144    -0.51833014  -116.79752370    -0.00000000     0.00000001  0.19D-13  0.60D-14  6  2  2547.09   170.70
  14      1.14851144    -0.51833014  -116.79752370    -0.00000000     0.00000000  0.26D-14  0.12D-14  6  1  2714.80   170.69
  15      1.14851143    -0.51833014  -116.79752370    -0.00000000     0.00000000  0.35D-15  0.18D-15  6  5  2883.33   170.73
  16      1.14851143    -0.51833014  -116.79752370    -0.00000000    -0.00000000  0.32D-16  0.14D-16  6  3  3051.54   170.74

 Norm of t1 vector:      0.05026380      S-energy:    -0.00000000      T1 diagnostic:  0.00888547
                                                                       D1 diagnostic:  0.02071784

   CPU time for triples:   2143.74 sec for i =  1 -  7 /  8 (~  68.8 % done)
   CPU time for triples:    856.37 sec for i =  8 -  8 /  8 (  100.0 % done)

 Total CPU time for triples:   3013.69 sec


 RESULTS
 =======

  Reference energy                   -116.279193551682
  CCSD singlet pair energy             -0.373437262814
  CCSD triplet pair energy             -0.144892880958
  CCSD correlation energy              -0.518330144009

  Triples (T) contribution             -0.016607564741
  Total correlation energy             -0.534937708749

  CCSD total energy                  -116.797523695690
  CCSD[T] energy                     -116.814667395026
  CCSD-T energy                      -116.813906851679
 !CCSD(T) total energy               -116.814131260431

 Timing summary (sec):

 STEP                 CPU(USER)    SYS     CPU(TOT)    WALL
 Transformation        362.06     11.60    373.66    380.22
 CCSD iterations      2689.61     38.19   2727.80   2732.10
 Triples              3013.69     21.23   3034.92   3039.39

 Program statistics:

 Available memory in ccsd:              1999999734
 Min. memory needed in ccsd:              17010489
 Max. memory used in ccsd:                22038113
 Max. memory used in cckext:              15155228 (16 integral passes)



 **********************************************************************************************************************************
 DATASETS  * FILE   NREC   LENGTH (MB)   RECORD NAMES
              1      19     2602.11       500      610      700      900      950      970     1000      129      960     1100   
                                          VAR    BASINP    GEOM    SYMINP    ZMAT    AOBASIS   BASIS     P2S    ABASIS      S 
                                         1400     1410     1200     1210     1080     1600     1650     1700     1380   
                                           T        V       H0       H01     AOSYM     SMH    MOLCAS    OPER     JKOP   

              2       4        6.75       700     1000      520     2100   
                                         GEOM     BASIS   MCVARS     RHF  

 PROGRAMS   *        TOTAL   CCSD(T)    HF-SCF       INT
 CPU TIMES  *      6671.48   6065.59    269.54    336.10
 REAL TIME  *      7009.82 SEC
 DISK USED  *         3.24 GB (local),       80.77 GB (total)
 SF USED    *         3.08 GB
 GA USED    *         0.00 MB       (max)       0.00 MB       (current)
 **********************************************************************************************************************************

 Running procedure: SET_MONOMER1

 Dummy atoms: C1  H41  H42  H43  H44


 Recomputing one-electron integrals since nuclear charges changed


 PROGRAM * SEWARD (Integral evaluation for generally contracted gaussian basis sets)     Author: Roland Lindh, 1990

 Geometry written to block  1 of record 700


 Point group  C1  



 ATOMIC COORDINATES

 NR  ATOM    CHARGE       X              Y              Z

   1  O11     8.00   -5.521590763    4.689166405    9.271374312
   2  H21     1.00   -3.831230745    4.709197502    8.531168589
   3  H22     1.00   -6.460595675    6.029171200    8.401722350
   4  C1      0.00   -6.193010455    2.801518980    2.403542658
   5  H41     0.00   -4.656285171    1.699997622    3.119937832
   6  H42     0.00   -5.973046335    4.726205038    2.982932688
   7  H43     0.00   -7.940251230    2.077186956    3.118237078
   8  H44     0.00   -6.176569838    2.685300823    0.384937212

 Bond lengths in Bohr (Angstrom)

 1-2  1.845432944  1-3  1.853007720  4-5  2.021904040  4-6  2.022002335  4-7  2.021953343
     ( 0.976561058)     ( 0.980569457)     ( 1.069945541)     ( 1.069997556)     ( 1.069971630)

 4-8  2.022015060
     ( 1.070004290)

 Bond angles

  2-1-3  105.54946434   5-4-6  109.53398059   5-4-7  109.65604535   5-4-8  108.43490854

  6-4-7  109.49436728   6-4-8  109.86987750   7-4-8  109.83468330

 NUCLEAR CHARGE:                   10
 NUMBER OF PRIMITIVE AOS:         578
 NUMBER OF SYMMETRY AOS:          474
 NUMBER OF CONTRACTIONS:          436   (  436A   )
 NUMBER OF CORE ORBITALS:           1   (    1A   )
 NUMBER OF VALENCE ORBITALS:        6   (    6A   )

 MOLECULE CHANGED: INITIALIZING OCCUPATION AND DUMP RECORDS


 NUCLEAR REPULSION ENERGY    8.99189736

 Basis set:  JKFIT                   
 Basis size:   740
 Attributes:
 Sphericals:   T
 Basis set:  MP2FIT                  
 Basis size:   816
 Attributes:
 Sphericals:   T
 Basis set:  RI                      
 Basis size:   556
 Attributes:
 Sphericals:   T
 Basis set:  TDDFT                   
 Basis size:   816
 Attributes:
 Sphericals:   T

 Eigenvalues of metric

         1 0.147E-04 0.223E-04 0.343E-04 0.368E-04 0.637E-04 0.837E-04 0.932E-04 0.104E-03


 Contracted 2-electron integrals neglected if value below      1.0D-14

 OPERATOR DM      FOR CENTER  0  COORDINATES:    0.000000    0.000000    0.000000


 **********************************************************************************************************************************
 DATASETS  * FILE   NREC   LENGTH (MB)   RECORD NAMES
              1      18       37.06       500      610      700      900      950      970     1000      129      960     1100   
                                          VAR    BASINP    GEOM    SYMINP    ZMAT    AOBASIS   BASIS     P2S    ABASIS      S 
                                         1400     1410     1200     1210     1080     1600     1650     1700   
                                           T        V       H0       H01     AOSYM     SMH    MOLCAS    OPER   

              2       5       10.59       700     1000      520     2100      200   
                                         GEOM     BASIS   MCVARS     RHF    OPTIONS    

 PROGRAMS   *        TOTAL       INT   CCSD(T)    HF-SCF       INT
 CPU TIMES  *      6671.85      0.37   6065.59    269.54    336.10
 REAL TIME  *      7011.09 SEC
 DISK USED  *         3.24 GB (local),       80.79 GB (total)
 SF USED    *         3.08 GB
 GA USED    *         0.00 MB       (max)       0.00 MB       (current)
 **********************************************************************************************************************************


 PROGRAM * RHF-SCF (CLOSED SHELL)       Authors: W. Meyer, H.-J. Werner


 NUMBER OF ELECTRONS:       5+    5-    SPACE SYMMETRY=1    SPIN SYMMETRY: Singlet 
 CONVERGENCE THRESHOLDS:    1.00E-08 (Density)    1.00E-11 (Energy)
 MAX. NUMBER OF ITERATIONS:       60
 INTERPOLATION TYPE:            DIIS
 INTERPOLATION STEPS:              2 (START)      1 (STEP)
 LEVEL SHIFTS:                  0.00 (CLOSED)  0.00 (OPEN) 



 Orbital guess generated from atomic densities. Full valence occupancy:    7

 Molecular orbital dump at record        2101.2

 Initial occupancy:   5

 ITERATION    DDIFF          GRAD             ENERGY        2-EL.EN.            DIPOLE MOMENTS         DIIS   ORB.
    1      0.000D+00      0.000D+00       -76.02513805     77.402241    0.38417    0.69818   -0.82576    0    start
    2      0.000D+00      0.467D-02       -76.05188496     73.747933    0.22424    0.40495   -0.47958    1    diag
    3      0.223D-02      0.297D-02       -76.06343670     75.369628    0.26429    0.47784   -0.56576    2    diag
    4      0.845D-03      0.278D-03       -76.06363082     75.278376    0.26289    0.47479   -0.56226    3    diag
    5      0.105D-03      0.778D-04       -76.06365172     75.292655    0.26237    0.47364   -0.56096    4    diag
    6      0.328D-04      0.154D-04       -76.06365307     75.291629    0.26227    0.47339   -0.56067    5    diag
    7      0.825D-05      0.313D-05       -76.06365313     75.291776    0.26223    0.47330   -0.56057    6    diag
    8      0.227D-05      0.592D-06       -76.06365314     75.291761    0.26222    0.47328   -0.56054    7    diag
    9      0.423D-06      0.796D-07       -76.06365314     75.291753    0.26222    0.47327   -0.56054    8    diag
   10      0.550D-07      0.180D-07       -76.06365314     75.291756    0.26222    0.47327   -0.56054    9    orth
   11      0.132D-07      0.303D-08       -76.06365314     75.291755    0.26222    0.47327   -0.56054    9    diag
   12      0.243D-08      0.494D-09       -76.06365314     75.291755    0.26222    0.47327   -0.56054    0    orth

 Final occupancy:   5

 !RHF STATE  1.1 Energy               -76.063653136324
 Nuclear energy                         8.99189736
 One-electron energy                 -122.70142816
 Two-electron energy                   37.64587766
 Virial quotient                       -1.00201434
 !RHF STATE  1.1 Dipole moment          0.26221774     0.47327360    -0.56053725
 Dipole moment /Debye                   0.66644736     1.20286273    -1.42465027

 Orbital energies:

         1.1          2.1          3.1          4.1          5.1          6.1          7.1
    -20.567941    -1.341392    -0.708166    -0.578882    -0.508455     0.017702     0.034989


 HOMO      5.1    -0.508455 =     -13.8358eV
 LUMO      6.1     0.017702 =       0.4817eV
 LUMO-HOMO         0.526158 =      14.3175eV


 **********************************************************************************************************************************
 DATASETS  * FILE   NREC   LENGTH (MB)   RECORD NAMES
              1      18       37.06       500      610      700      900      950      970     1000      129      960     1100   
                                          VAR    BASINP    GEOM    SYMINP    ZMAT    AOBASIS   BASIS     P2S    ABASIS      S 
                                         1400     1410     1200     1210     1080     1600     1650     1700   
                                           T        V       H0       H01     AOSYM     SMH    MOLCAS    OPER   

              2       6       17.39       700     1000      520     2100      200     2101   
                                         GEOM     BASIS   MCVARS     RHF    OPTIONS    RHF  

 PROGRAMS   *        TOTAL    HF-SCF       INT   CCSD(T)    HF-SCF       INT
 CPU TIMES  *      6927.95    256.10      0.37   6065.59    269.54    336.10
 REAL TIME  *      7295.74 SEC
 DISK USED  *         3.24 GB (local),       80.79 GB (total)
 SF USED    *         3.08 GB
 GA USED    *         0.00 MB       (max)       0.00 MB       (current)
 **********************************************************************************************************************************

 Basis set:  JKFIT                   
 Basis size:   740
 Attributes:
 Sphericals:   T
 Basis set:  MP2FIT                  
 Basis size:   816
 Attributes:
 Sphericals:   T
 Basis set:  RI                      
 Basis size:   556
 Attributes:
 Sphericals:   T
 Basis set:  TDDFT                   
 Basis size:   816
 Attributes:
 Sphericals:   T

 PROGRAM * CCSD (Closed-shell coupled cluster)     Authors: C. Hampel, H.-J. Werner, 1991, M. Deegan, P.J. Knowles, 1992


 Convergence thresholds:  THRVAR = 1.00D-08  THRDEN = 1.00D-10

 CCSD(T)     terms to be evaluated (factor= 1.000)


 Number of core orbitals:           1 (   1 )
 Number of closed-shell orbitals:   4 (   4 )
 Number of external orbitals:     431 ( 431 )

 Molecular orbitals read from record     2101.2  Type=RHF/CANONICAL (state 1.1)

 Number of N-1 electron functions:               4
 Number of N-2 electron functions:              10
 Number of singly external CSFs:              1724
 Number of doubly external CSFs:           1486950
 Total number of CSFs:                     1488675

 Length of J-op  integral file:               0.00 MB
 Length of K-op  integral file:              13.08 MB
 Length of 3-ext integral record:             0.00 MB

 Memory could be reduced to 526.20 Mwords without degradation in triples

 Integral transformation finished. Total CPU: 194.15 sec, npass=  1  Memory used: 214.76 MW

 Reference energy:                    -76.06365314

 MP2 singlet pair energy:              -0.18616838
 MP2 triplet pair energy:              -0.10136192
 MP2 correlation energy:               -0.28753030
 MP2 total energy:                    -76.35118344

 SCS-MP2 correlation energy:           -0.28647170   (PS=  1.200000  PT=  0.333333)
 SCS-MP2 total energy:                -76.35012484

 ITER.      SQ.NORM     CORR.ENERGY   TOTAL ENERGY   ENERGY CHANGE        DEN1      VAR(S)    VAR(P)  DIIS     TIME  TIME/IT
   1      1.06438915    -0.28928932   -76.35294245    -0.00175901     0.00409585  0.84D-03  0.10D-02  1  1   243.85    51.00
   2      1.06802885    -0.28954507   -76.35319821    -0.00025576    -0.00490883  0.14D-04  0.12D-03  2  2   293.13    51.22
   3      1.06947657    -0.28962372   -76.35327686    -0.00007865    -0.00101407  0.87D-05  0.62D-05  3  3   343.69    51.58
   4      1.06994537    -0.28962297   -76.35327611     0.00000075    -0.00021900  0.48D-06  0.75D-06  4  4   395.03    52.00
   5      1.07004778    -0.28962069   -76.35327382     0.00000229    -0.00003197  0.17D-06  0.51D-07  5  5   446.10    52.24
   6      1.07008430    -0.28961767   -76.35327080     0.00000302    -0.00000835  0.17D-07  0.42D-08  6  6   497.24    52.39
   7      1.07009167    -0.28961727   -76.35327041     0.00000039    -0.00000056  0.14D-08  0.81D-09  6  1   548.49    52.52
   8      1.07009341    -0.28961718   -76.35327031     0.00000010    -0.00000005  0.25D-09  0.95D-10  6  2   600.06    52.64
   9      1.07009407    -0.28961713   -76.35327027     0.00000004     0.00000011  0.19D-10  0.84D-11  6  3   651.07    52.71
  10      1.07009422    -0.28961712   -76.35327026     0.00000001     0.00000001  0.22D-11  0.13D-11  6  4   701.90    52.78
  11      1.07009422    -0.28961712   -76.35327026    -0.00000000     0.00000002  0.50D-12  0.16D-12  6  5   752.88    52.82
  12      1.07009422    -0.28961712   -76.35327026    -0.00000000     0.00000001  0.85D-13  0.26D-13  6  6   804.10    52.86
  13      1.07009421    -0.28961712   -76.35327026    -0.00000000     0.00000000  0.15D-13  0.50D-14  6  1   855.26    52.89
  14      1.07009421    -0.28961713   -76.35327026    -0.00000000     0.00000000  0.16D-14  0.72D-15  6  2   906.45    52.92
  15      1.07009421    -0.28961713   -76.35327026    -0.00000000     0.00000000  0.19D-15  0.12D-15  6  3   957.48    52.94
  16      1.07009421    -0.28961713   -76.35327026    -0.00000000    -0.00000000  0.42D-16  0.19D-16  6  4  1008.73    52.98

 Norm of t1 vector:      0.03849201      S-energy:    -0.00000000      T1 diagnostic:  0.00962300
                                                                       D1 diagnostic:  0.02009046


 Total CPU time for triples:    456.04 sec


 RESULTS
 =======

  Reference energy                    -76.063653136325
  CCSD singlet pair energy             -0.199971719686
  CCSD triplet pair energy             -0.089645405440
  CCSD correlation energy              -0.289617125212

  Triples (T) contribution             -0.009590926833
  Total correlation energy             -0.299208052045

  CCSD total energy                   -76.353270261537
  CCSD[T] energy                      -76.363178557203
  CCSD-T energy                       -76.362707796034
 !CCSD(T) total energy                -76.362861188370

 Timing summary (sec):

 STEP                 CPU(USER)    SYS     CPU(TOT)    WALL
 Transformation        194.59      6.97    201.56    201.84
 CCSD iterations       814.23     32.34    846.57    847.82
 Triples               456.04      4.41    460.45    461.11

 Program statistics:

 Available memory in ccsd:              1999999921
 Min. memory needed in ccsd:               6768234
 Max. memory used in ccsd:                 7865440
 Max. memory used in cckext:               5182436 (16 integral passes)



 **********************************************************************************************************************************
 DATASETS  * FILE   NREC   LENGTH (MB)   RECORD NAMES
              1      19     1346.95       500      610      700      900      950      970     1000      129      960     1100   
                                          VAR    BASINP    GEOM    SYMINP    ZMAT    AOBASIS   BASIS     P2S    ABASIS      S 
                                         1400     1410     1200     1210     1080     1600     1650     1700     1380   
                                           T        V       H0       H01     AOSYM     SMH    MOLCAS    OPER     JKOP   

              2       6       17.39       700     1000      520     2100      200     2101   
                                         GEOM     BASIS   MCVARS     RHF    OPTIONS    RHF  

 PROGRAMS   *        TOTAL   CCSD(T)    HF-SCF       INT   CCSD(T)    HF-SCF       INT
 CPU TIMES  *      8393.06   1465.10    256.10      0.37   6065.59    269.54    336.10
 REAL TIME  *      8807.41 SEC
 DISK USED  *         3.24 GB (local),       80.79 GB (total)
 SF USED    *         3.08 GB
 GA USED    *         0.00 MB       (max)       0.00 MB       (current)
 **********************************************************************************************************************************

 Running procedure: SET_MONOMER2

 Dummy atoms: O11  H21  H22


 Recomputing one-electron integrals since nuclear charges changed


 PROGRAM * SEWARD (Integral evaluation for generally contracted gaussian basis sets)     Author: Roland Lindh, 1990

 Geometry written to block  1 of record 700


 Point group  C1  



 ATOMIC COORDINATES

 NR  ATOM    CHARGE       X              Y              Z

   1  O11     0.00   -5.521590763    4.689166405    9.271374312
   2  H21     0.00   -3.831230745    4.709197502    8.531168589
   3  H22     0.00   -6.460595675    6.029171200    8.401722350
   4  C1      6.00   -6.193010455    2.801518980    2.403542658
   5  H41     1.00   -4.656285171    1.699997622    3.119937832
   6  H42     1.00   -5.973046335    4.726205038    2.982932688
   7  H43     1.00   -7.940251230    2.077186956    3.118237078
   8  H44     1.00   -6.176569838    2.685300823    0.384937212

 Bond lengths in Bohr (Angstrom)

 1-2  1.845432944  1-3  1.853007720  4-5  2.021904040  4-6  2.022002335  4-7  2.021953343
     ( 0.976561058)     ( 0.980569457)     ( 1.069945541)     ( 1.069997556)     ( 1.069971630)

 4-8  2.022015060
     ( 1.070004290)

 Bond angles

  2-1-3  105.54946434   5-4-6  109.53398059   5-4-7  109.65604535   5-4-8  108.43490854

  6-4-7  109.49436728   6-4-8  109.86987750   7-4-8  109.83468330

 NUCLEAR CHARGE:                   10
 NUMBER OF PRIMITIVE AOS:         578
 NUMBER OF SYMMETRY AOS:          474
 NUMBER OF CONTRACTIONS:          436   (  436A   )
 NUMBER OF CORE ORBITALS:           1   (    1A   )
 NUMBER OF VALENCE ORBITALS:        8   (    8A   )

 MOLECULE CHANGED: INITIALIZING OCCUPATION AND DUMP RECORDS


 NUCLEAR REPULSION ENERGY   13.68681606

 Basis set:  JKFIT                   
 Basis size:   740
 Attributes:
 Sphericals:   T
 Basis set:  MP2FIT                  
 Basis size:   816
 Attributes:
 Sphericals:   T
 Basis set:  RI                      
 Basis size:   556
 Attributes:
 Sphericals:   T
 Basis set:  TDDFT                   
 Basis size:   816
 Attributes:
 Sphericals:   T

 Eigenvalues of metric

         1 0.147E-04 0.223E-04 0.343E-04 0.368E-04 0.637E-04 0.837E-04 0.932E-04 0.104E-03


 Contracted 2-electron integrals neglected if value below      1.0D-14

 OPERATOR DM      FOR CENTER  0  COORDINATES:    0.000000    0.000000    0.000000


 **********************************************************************************************************************************
 DATASETS  * FILE   NREC   LENGTH (MB)   RECORD NAMES
              1      18       37.06       500      610      700      900      950      970     1000      129      960     1100   
                                          VAR    BASINP    GEOM    SYMINP    ZMAT    AOBASIS   BASIS     P2S    ABASIS      S 
                                         1400     1410     1200     1210     1080     1600     1650     1700   
                                           T        V       H0       H01     AOSYM     SMH    MOLCAS    OPER   

              2       6       17.39       700     1000      520     2100      200     2101   
                                         GEOM     BASIS   MCVARS     RHF    OPTIONS    RHF  

 PROGRAMS   *        TOTAL       INT   CCSD(T)    HF-SCF       INT   CCSD(T)    HF-SCF       INT
 CPU TIMES  *      8393.45      0.39   1465.10    256.10      0.37   6065.59    269.54    336.10
 REAL TIME  *      8808.51 SEC
 DISK USED  *         3.24 GB (local),       80.79 GB (total)
 SF USED    *         3.08 GB
 GA USED    *         0.00 MB       (max)       0.00 MB       (current)
 **********************************************************************************************************************************


 PROGRAM * RHF-SCF (CLOSED SHELL)       Authors: W. Meyer, H.-J. Werner


 NUMBER OF ELECTRONS:       5+    5-    SPACE SYMMETRY=1    SPIN SYMMETRY: Singlet 
 CONVERGENCE THRESHOLDS:    1.00E-08 (Density)    1.00E-11 (Energy)
 MAX. NUMBER OF ITERATIONS:       60
 INTERPOLATION TYPE:            DIIS
 INTERPOLATION STEPS:              2 (START)      1 (STEP)
 LEVEL SHIFTS:                  0.00 (CLOSED)  0.00 (OPEN) 



 Orbital guess generated from atomic densities. Full valence occupancy:    9

 Molecular orbital dump at record        2102.2

 Initial occupancy:   5

 ITERATION    DDIFF          GRAD             ENERGY        2-EL.EN.            DIPOLE MOMENTS         DIIS   ORB.
    1      0.000D+00      0.000D+00       -40.19609607     53.506292    0.00411   -0.00276   -0.00131    0    start
    2      0.000D+00      0.257D-02       -40.21335024     52.217621    0.00128   -0.00088   -0.00039    1    diag
    3      0.159D-02      0.998D-03       -40.21562619     52.672081    0.00182   -0.00124   -0.00056    2    diag
    4      0.445D-03      0.249D-03       -40.21594565     52.617268    0.00162   -0.00111   -0.00049    3    diag
    5      0.165D-03      0.322D-04       -40.21595114     52.619416    0.00159   -0.00109   -0.00048    4    diag
    6      0.412D-04      0.264D-05       -40.21595118     52.619552    0.00159   -0.00109   -0.00048    5    diag
    7      0.559D-05      0.212D-06       -40.21595118     52.619513    0.00159   -0.00109   -0.00048    6    diag
    8      0.212D-06      0.170D-07       -40.21595118     52.619514    0.00159   -0.00109   -0.00048    7    diag
    9      0.826D-07      0.217D-08       -40.21595118     52.619514    0.00159   -0.00109   -0.00048    8    diag
   10      0.845D-08      0.595D-09       -40.21595118     52.619514    0.00159   -0.00109   -0.00048    0    orth

 Final occupancy:   5

 !RHF STATE  1.1 Energy               -40.215951178457
 Nuclear energy                        13.68681606
 One-electron energy                  -80.21252441
 Two-electron energy                   26.30975718
 Virial quotient                       -0.99838111
 !RHF STATE  1.1 Dipole moment          0.00158523    -0.00108692    -0.00047752
 Dipole moment /Debye                   0.00402899    -0.00276250    -0.00121366

 Orbital energies:

         1.1          2.1          3.1          4.1          5.1          6.1          7.1
    -11.196224    -0.950661    -0.551889    -0.549954    -0.547776     0.024979     0.037195


 HOMO      5.1    -0.547776 =     -14.9058eV
 LUMO      6.1     0.024979 =       0.6797eV
 LUMO-HOMO         0.572755 =      15.5855eV


 **********************************************************************************************************************************
 DATASETS  * FILE   NREC   LENGTH (MB)   RECORD NAMES
              1      18       37.06       500      610      700      900      950      970     1000      129      960     1100   
                                          VAR    BASINP    GEOM    SYMINP    ZMAT    AOBASIS   BASIS     P2S    ABASIS      S 
                                         1400     1410     1200     1210     1080     1600     1650     1700   
                                           T        V       H0       H01     AOSYM     SMH    MOLCAS    OPER   

              2       7       27.51       700     1000      520     2100      200     2101     2102   
                                         GEOM     BASIS   MCVARS     RHF    OPTIONS    RHF      RHF  

 PROGRAMS   *        TOTAL    HF-SCF       INT   CCSD(T)    HF-SCF       INT   CCSD(T)    HF-SCF       INT
 CPU TIMES  *      8610.30    216.85      0.39   1465.10    256.10      0.37   6065.59    269.54    336.10
 REAL TIME  *      9048.09 SEC
 DISK USED  *         3.24 GB (local),       80.79 GB (total)
 SF USED    *         3.08 GB
 GA USED    *         0.00 MB       (max)       0.00 MB       (current)
 **********************************************************************************************************************************

 Basis set:  JKFIT                   
 Basis size:   740
 Attributes:
 Sphericals:   T
 Basis set:  MP2FIT                  
 Basis size:   816
 Attributes:
 Sphericals:   T
 Basis set:  RI                      
 Basis size:   556
 Attributes:
 Sphericals:   T
 Basis set:  TDDFT                   
 Basis size:   816
 Attributes:
 Sphericals:   T

 PROGRAM * CCSD (Closed-shell coupled cluster)     Authors: C. Hampel, H.-J. Werner, 1991, M. Deegan, P.J. Knowles, 1992


 Convergence thresholds:  THRVAR = 1.00D-08  THRDEN = 1.00D-10

 CCSD(T)     terms to be evaluated (factor= 1.000)


 Number of core orbitals:           1 (   1 )
 Number of closed-shell orbitals:   4 (   4 )
 Number of external orbitals:     431 ( 431 )

 Molecular orbitals read from record     2102.2  Type=RHF/CANONICAL (state 1.1)

 Number of N-1 electron functions:               4
 Number of N-2 electron functions:              10
 Number of singly external CSFs:              1724
 Number of doubly external CSFs:           1486950
 Total number of CSFs:                     1488675

 Length of J-op  integral file:               0.00 MB
 Length of K-op  integral file:              13.08 MB
 Length of 3-ext integral record:             0.00 MB

 Memory could be reduced to 526.20 Mwords without degradation in triples

 Integral transformation finished. Total CPU: 195.05 sec, npass=  1  Memory used: 214.76 MW

 Reference energy:                    -40.21595118

 MP2 singlet pair energy:              -0.15442769
 MP2 triplet pair energy:              -0.05646299
 MP2 correlation energy:               -0.21089068
 MP2 total energy:                    -40.42684186

 SCS-MP2 correlation energy:           -0.22044576   (PS=  1.200000  PT=  0.333333)
 SCS-MP2 total energy:                -40.43639694

 ITER.      SQ.NORM     CORR.ENERGY   TOTAL ENERGY   ENERGY CHANGE        DEN1      VAR(S)    VAR(P)  DIIS     TIME  TIME/IT
   1      1.07097406    -0.22687683   -40.44282801    -0.01598615    -0.01039897  0.55D-03  0.97D-03  1  1   244.16    50.40
   2      1.07611922    -0.22797690   -40.44392808    -0.00110007    -0.00547169  0.14D-04  0.91D-04  2  2   293.73    50.88
   3      1.07764037    -0.22801612   -40.44396730    -0.00003922    -0.00107312  0.18D-05  0.58D-05  3  3   344.77    51.64
   4      1.07800006    -0.22802182   -40.44397300    -0.00000569    -0.00017106  0.12D-06  0.28D-06  4  4   396.09    52.12
   5      1.07804809    -0.22802370   -40.44397488    -0.00000189    -0.00001302  0.10D-07  0.20D-07  5  5   447.46    52.43
   6      1.07805634    -0.22802249   -40.44397366     0.00000122    -0.00000328  0.64D-09  0.14D-08  6  6   499.10    52.63
   7      1.07805737    -0.22802220   -40.44397338     0.00000029    -0.00000055  0.46D-10  0.11D-09  6  1   550.43    52.77
   8      1.07805732    -0.22802225   -40.44397343    -0.00000005     0.00000022  0.46D-11  0.66D-11  6  3   601.71    52.87
   9      1.07805744    -0.22802223   -40.44397341     0.00000002    -0.00000008  0.40D-12  0.54D-12  6  2   653.37    52.97
  10      1.07805745    -0.22802223   -40.44397341     0.00000000     0.00000000  0.46D-13  0.56D-13  6  4   704.98    53.03
  11      1.07805745    -0.22802223   -40.44397341     0.00000000     0.00000000  0.43D-14  0.56D-14  6  5   756.25    53.08
  12      1.07805745    -0.22802223   -40.44397341     0.00000000     0.00000000  0.10D-15  0.61D-15  6  6   807.46    53.11
  13      1.07805744    -0.22802223   -40.44397341    -0.00000000     0.00000000  0.74D-17  0.59D-16  6  1   858.81    53.14
  14      1.07805744    -0.22802223   -40.44397341    -0.00000000     0.00000000  0.10D-17  0.76D-17  6  3   909.97    53.17

 Norm of t1 vector:      0.03128247      S-energy:    -0.00000000      T1 diagnostic:  0.00782062
                                                                       D1 diagnostic:  0.01257158

 Total CPU time for triples:    452.85 sec


 RESULTS
 =======

  Reference energy                    -40.215951178458
  CCSD singlet pair energy             -0.173327454835
  CCSD triplet pair energy             -0.054694774928
  CCSD correlation energy              -0.228022229768

  Triples (T) contribution             -0.006881892336
  Total correlation energy             -0.234904122103

  CCSD total energy                   -40.443973408226
  CCSD[T] energy                      -40.451068451241
  CCSD-T energy                       -40.450787690470
 !CCSD(T) total energy                -40.450855300562

 Timing summary (sec):

 STEP                 CPU(USER)    SYS     CPU(TOT)    WALL
 Transformation        195.42      6.89    202.31    202.59
 CCSD iterations       714.63     28.86    743.49    744.54
 Triples               452.85      4.24    457.09    457.75

 Program statistics:

 Available memory in ccsd:              1999999916
 Min. memory needed in ccsd:               6768234
 Max. memory used in ccsd:                 7865440
 Max. memory used in cckext:               5182436 (14 integral passes)



 **********************************************************************************************************************************
 DATASETS  * FILE   NREC   LENGTH (MB)   RECORD NAMES
              1      19     1346.95       500      610      700      900      950      970     1000      129      960     1100   
                                          VAR    BASINP    GEOM    SYMINP    ZMAT    AOBASIS   BASIS     P2S    ABASIS      S 
                                         1400     1410     1200     1210     1080     1600     1650     1700     1380   
                                           T        V       H0       H01     AOSYM     SMH    MOLCAS    OPER     JKOP   

              2       7       27.51       700     1000      520     2100      200     2101     2102   
                                         GEOM     BASIS   MCVARS     RHF    OPTIONS    RHF      RHF  

 PROGRAMS   *        TOTAL   CCSD(T)    HF-SCF       INT   CCSD(T)    HF-SCF       INT   CCSD(T)    HF-SCF       INT
 CPU TIMES  *      9973.43   1363.13    216.85      0.39   1465.10    256.10      0.37   6065.59    269.54    336.10
 REAL TIME  *     10453.89 SEC
 DISK USED  *         3.24 GB (local),       80.79 GB (total)
 SF USED    *         3.08 GB
 GA USED    *         0.00 MB       (max)       0.00 MB       (current)
 **********************************************************************************************************************************
 Molecular orbitals read from record     2102.2  Type=RHF/CANONICAL (state 1.1)
 Occupation numbers read from record     2102.2  Type=RHF/RHF (state 1.1)
 Orbital energies read from record       2102.2  Type=RHF/CANONICAL (state 1.1)
 Redundancy group numbers read from rec  2102.2  Type=RHF/RHF (state 1.1)

 CCSD(T)/aug-cc-pVQZ energy=    -40.450855300562

         CCSD(T)          HF-SCF         CCSD(T)          HF-SCF         CCSD(T)          HF-SCF
    -40.45085530    -40.21595118    -76.36286119    -76.06365314   -116.81413126   -116.27919355
 **********************************************************************************************************************************
 Molpro calculation terminated
