
 Primary working directories    : /scratch/klimes/383115/molpro.7xwgTgbIBw
 Secondary working directories  : /scratch/klimes/383115/molpro.7xwgTgbIBw
 Wavefunction directory         : /scratch/klimes/383115/
 Main file repository           : /scratch/klimes/383115/molpro.7xwgTgbIBw/

 id        : karlovklimes

 Nodes                      nprocs
 nc-04.cc.karlov.mff.cuni.cz    4

 Using customized tuning parameters: mindgm=1; mindgv=20; mindgc=4; mindgr=1; noblas=0; minvec=7
 default implementation of scratch files=sf  


 Variables initialized (930), CPU time= 0.01 sec
                                                                                 !gdirect
 memory,2000,m
 gthresh,orbital=1d-10,energy=1d-10,grid=1d-8
 
 symmetry,nosym
 angstrom
 geometry={
 O12        -3.033300000000      5.280000000000      1.506600000000
 H23        -3.438200000000      5.030900000000      0.655500000000
 H24        -2.124100000000      4.895600000000      1.489400000000
 C1        -3.277200000000      1.482500000000      1.271900000000
 H41        -2.464000000000      0.899600000000      1.651000000000
 H42        -3.160800000000      2.501000000000      1.578500000000
 H43        -4.201800000000      1.099200000000      1.650100000000
 H44        -3.268500000000      1.421000000000      0.203700000000
 }
 
 nkerna=1
 nkernb=1
 
 gf=0
 sing=1
 thrdum=1d-4
 gridthr=1d-8
 
 basis={
 set,orbital
 default,avqz
 set,jkfit
 default,avqz/jkfit
 set,mp2fit
 default,avqz/mp2fit
 set,ri
 default,avqz/optri
 set,tddft
 default,avqz/mp2fit
 }
 
 proc set_monomer1
 dummy,4,5,6,7,8
 endproc
 
 proc set_monomer2
 dummy,1,2,3
 endproc
 
                                                                                 !1234 energy
 {hf,accu=1.d-16}
 ccsd(t)
 
 set_monomer1
 {hf,accu=1.d-16}
 ccsd(t)
 
 set_monomer2
 {hf,accu=1.d-16}
 ccsd(t)
 
 Commands  initialized (760), CPU time= 0.02 sec, 617 directives.
 Default parameters read. Elapsed time= 0.19 sec

 Checking input...
 Passed
1


                                         ***  PROGRAM SYSTEM MOLPRO  ***
                                       Copyright, TTI GmbH Stuttgart, 2015
                                    Version 2019.1 linked Jan 14 2019 13:09:19


 **********************************************************************************************************************************
 LABEL *                                                                                 
  64 bit mpp version                                                                     DATE: 11-Mar-20          TIME: 13:21:27  
 **********************************************************************************************************************************

 SHA1:             d688ac825633d238f2093ded1675ba87ccd55965
 **********************************************************************************************************************************

 THRESHOLDS:

 ZERO    =  1.00D-12  ONEINT  =  1.00D-12  TWOINT  =  1.00D-11  PREFAC  =  1.00D-14  XXXXXX  =  1.00D-09  EORDER  =  1.00D-04
 ENERGY  =  1.00D-10  ETEST   =  0.00D+00  EDENS   =  0.00D+00  THRDEDEF=  1.00D-06  GRADIENT=  1.00D-02  STEP    =  1.00D-03
 ORBITAL =  1.00D-10  CIVEC   =  1.00D-05  COEFF   =  1.00D-04  PRINTCI =  5.00D-02  PUNCHCI =  9.90D+01  OPTGRAD =  3.00D-04
 OPTENERG=  1.00D-06  OPTSTEP =  3.00D-04  THRGRAD =  1.00D-10  COMPRESS=  1.00D-11  VARMIN  =  1.00D-07  VARMAX  =  1.00D-03
 THRDOUB =  0.00D+00  THRDIV  =  1.00D-05  THRRED  =  1.00D-07  THRPSP  =  1.00D+00  THRDC   =  1.00D-10  THRCS   =  1.00D-10
 THRNRM  =  1.00D-08  THREQ   =  0.00D+00  THRDE   =  1.00D+00  THRREF  =  1.00D-05  SPARFAC =  1.00D+00  THRDLP  =  1.00D-07
 THRDIA  =  1.00D-10  THRDLS  =  1.00D-07  THRGPS  =  0.00D+00  THRKEX  =  0.00D+00  THRDIS  =  2.00D-01  THRVAR  =  1.00D-10
 THRLOC  =  1.00D-06  THRGAP  =  1.00D-06  THRLOCT = -1.00D+00  THRGAPT = -1.00D+00  THRORB  =  1.00D-06  THRMLTP =  0.00D+00
 THRCPQCI=  1.00D-10  KEXTA   =  0.00D+00  THRCOARS=  0.00D+00  SYMTOL  =  1.00D-06  GRADTOL =  1.00D-06  THROVL  =  1.00D-08
 THRORTH =  1.00D-08  GRID    =  1.00D-08  GRIDMAX =  1.00D-03  DTMAX   =  0.00D+00  THROCCDE=  1.00D-01  THROCCDE=  1.00D-01
 THRPRINT=  2.50D-01


 Variable memory set to 2000000000 words,  buffer space 

 ZSYMEL=NOSYM
 ZUNIT=ANG


Geometry recognized as XYZ

 SETTING NKERNA         =         1.00000000                                  
 SETTING NKERNB         =         1.00000000                                  
 SETTING GF             =     0.00000000D+00                                  
 SETTING SING           =         1.00000000                                  
 SETTING THRDUM         =     1.00000000D-04                                  
 SETTING GRIDTHR        =     1.00000000D-08                                  
 SETTING BASIS          =    AVQZ


 Recomputing integrals since basis changed


 Using spherical harmonics

 Library entry O      S aug-cc-pVQZ          selected for orbital group  1
 Library entry O      P aug-cc-pVQZ          selected for orbital group  1
 Library entry O      D aug-cc-pVQZ          selected for orbital group  1
 Library entry O      F aug-cc-pVQZ          selected for orbital group  1
 Library entry O      G aug-cc-pVQZ          selected for orbital group  1
 Library entry H      S aug-cc-pVQZ          selected for orbital group  2
 Library entry H      P aug-cc-pVQZ          selected for orbital group  2
 Library entry H      D aug-cc-pVQZ          selected for orbital group  2
 Library entry H      F aug-cc-pVQZ          selected for orbital group  2
 Library entry C      S aug-cc-pVQZ          selected for orbital group  3
 Library entry C      P aug-cc-pVQZ          selected for orbital group  3
 Library entry C      D aug-cc-pVQZ          selected for orbital group  3
 Library entry C      F aug-cc-pVQZ          selected for orbital group  3
 Library entry C      G aug-cc-pVQZ          selected for orbital group  3


 PROGRAM * SEWARD (Integral evaluation for generally contracted gaussian basis sets)     Author: Roland Lindh, 1990

 Geometry written to block  1 of record 700


 Point group  C1  



 ATOMIC COORDINATES

 NR  ATOM    CHARGE       X              Y              Z

   1  O12     8.00   -5.732106254    9.977753938    2.847061379
   2  H23     1.00   -6.497256361    9.507023160    1.238715475
   3  H24     1.00   -4.013967261    9.251343215    2.814558090
   4  C1      6.00   -6.193010455    2.801518980    2.403542658
   5  H41     1.00   -4.656285171    1.699997622    3.119937832
   6  H42     1.00   -5.973046335    4.726205038    2.982932688
   7  H43     1.00   -7.940251230    2.077186956    3.118237078
   8  H44     1.00   -6.176569838    2.685300823    0.384937212

 Bond lengths in Bohr (Angstrom)

 1-2  1.842231989  1-3  1.865671621  4-5  2.021904040  4-6  2.022002335  4-7  2.021953343
     ( 0.974867186)     ( 0.987270905)     ( 1.069945541)     ( 1.069997556)     ( 1.069971630)

 4-8  2.022015060
     ( 1.070004290)

 Bond angles

  2-1-3  105.53314040   5-4-6  109.53398059   5-4-7  109.65604535   5-4-8  108.43490854

  6-4-7  109.49436728   6-4-8  109.86987750   7-4-8  109.83468330

 NUCLEAR CHARGE:                   20
 NUMBER OF PRIMITIVE AOS:         578
 NUMBER OF SYMMETRY AOS:          474
 NUMBER OF CONTRACTIONS:          436   (  436A   )
 NUMBER OF CORE ORBITALS:           2   (    2A   )
 NUMBER OF VALENCE ORBITALS:       14   (   14A   )


 NUCLEAR REPULSION ENERGY   36.75387538


 Basis set:  JKFIT                   
 Basis size:   740
 Attributes:
 Sphericals:   T
 Basis set:  MP2FIT                  
 Basis size:   816
 Attributes:
 Sphericals:   T
 Basis set:  RI                      
 Basis size:   556
 Attributes:
 Sphericals:   T
 Basis set:  TDDFT                   
 Basis size:   816
 Attributes:
 Sphericals:   T

 **********************************************************************************************************************************


 Eigenvalues of metric

         1 0.132E-04 0.184E-04 0.292E-04 0.343E-04 0.620E-04 0.664E-04 0.923E-04 0.104E-03


 Contracted 2-electron integrals neglected if value below      1.0D-14
 AO integral compression algorithm  1   Integral accuracy      1.0D-14

     23186.375 MB (compressed) written to integral file ( 57.8%)

     Node minimum: 5694.030 MB, node maximum: 5898.764 MB


 NUMBER OF SORTED TWO-ELECTRON INTEGRALS: 1134451344.     BUFFER LENGTH:  32768
 NUMBER OF SEGMENTS:  36  SEGMENT LENGTH:   31999984      RECORD LENGTH: 524288

 Memory used in sort:      32.56 MW

 SORT1 READ  5012305700. AND WROTE   975740148. INTEGRALS IN   2811 RECORDS. CPU TIME:   151.33 SEC, REAL TIME:   168.53 SEC
 SORT2 READ  3903783013. AND WROTE  4537853011. INTEGRALS IN  87344 RECORDS. CPU TIME:    16.10 SEC, REAL TIME:   101.70 SEC

 Node minimum:  1134427528.  Node maximum:  1134498978. integrals

 OPERATOR DM      FOR CENTER  0  COORDINATES:    0.000000    0.000000    0.000000


 **********************************************************************************************************************************
 DATASETS  * FILE   NREC   LENGTH (MB)   RECORD NAMES
              1      18       37.06       500      610      700      900      950      970     1000      129      960     1100   
                                          VAR    BASINP    GEOM    SYMINP    ZMAT    AOBASIS   BASIS     P2S    ABASIS      S 
                                         1400     1410     1200     1210     1080     1600     1650     1700   
                                           T        V       H0       H01     AOSYM     SMH    MOLCAS    OPER   

 PROGRAMS   *        TOTAL       INT
 CPU TIMES  *       235.87    235.64
 REAL TIME  *       351.20 SEC
 DISK USED  *        37.58 MB (local),       69.88 GB (total)
 GA USED    *         0.00 MB       (max)       0.00 MB       (current)
 **********************************************************************************************************************************


 PROGRAM * RHF-SCF (CLOSED SHELL)       Authors: W. Meyer, H.-J. Werner


 NUMBER OF ELECTRONS:      10+   10-    SPACE SYMMETRY=1    SPIN SYMMETRY: Singlet 
 CONVERGENCE THRESHOLDS:    1.00E-08 (Density)    1.00E-11 (Energy)
 MAX. NUMBER OF ITERATIONS:       60
 INTERPOLATION TYPE:            DIIS
 INTERPOLATION STEPS:              2 (START)      1 (STEP)
 LEVEL SHIFTS:                  0.00 (CLOSED)  0.00 (OPEN) 



 Orbital guess generated from atomic densities. Full valence occupancy:   16

 Molecular orbital dump at record        2100.2

 Initial occupancy:  10

 ITERATION    DDIFF          GRAD             ENERGY        2-EL.EN.            DIPOLE MOMENTS         DIIS   ORB.
    1      0.000D+00      0.000D+00      -116.22069089    158.878355    0.49585   -0.60696   -0.83967    0    start
    2      0.000D+00      0.378D-02      -116.26453129    154.104141    0.26031   -0.35533   -0.45875    1    diag
    3      0.271D-02      0.221D-02      -116.27790070    156.110810    0.32013   -0.41686   -0.55539    2    diag
    4      0.940D-03      0.332D-03      -116.27856155    155.996776    0.31527   -0.40932   -0.54744    3    diag
    5      0.205D-03      0.976D-04      -116.27863181    155.991830    0.31459   -0.40926   -0.54668    4    diag
    6      0.821D-04      0.240D-04      -116.27863591    155.997461    0.31415   -0.40898   -0.54596    5    diag
    7      0.222D-04      0.499D-05      -116.27863617    155.995775    0.31412   -0.40903   -0.54594    6    diag
    8      0.648D-05      0.130D-05      -116.27863619    155.995962    0.31406   -0.40904   -0.54588    7    diag
    9      0.147D-05      0.294D-06      -116.27863619    155.995931    0.31405   -0.40904   -0.54587    8    diag
   10      0.437D-06      0.369D-07      -116.27863619    155.995933    0.31405   -0.40904   -0.54586    9    orth
   11      0.450D-07      0.995D-08      -116.27863619    155.995934    0.31405   -0.40904   -0.54586    9    diag
   12      0.109D-07      0.281D-08      -116.27863619    155.995934    0.31405   -0.40904   -0.54586    9    diag
   13      0.319D-08      0.741D-09      -116.27863619    155.995934    0.31405   -0.40904   -0.54586    0    orth

 Final occupancy:  10

 !RHF STATE  1.1 Energy              -116.278636192336
 Nuclear energy                        36.75387538
 One-electron energy                 -231.03047863
 Two-electron energy                   77.99796706
 Virial quotient                       -1.00076047
 !RHF STATE  1.1 Dipole moment          0.31404829    -0.40903869    -0.54586441
 Dipole moment /Debye                   0.79817886    -1.03960456    -1.38735806

 Orbital energies:

         1.1          2.1          3.1          4.1          5.1          6.1          7.1          8.1          9.1         10.1
    -20.568733   -11.198626    -1.341124    -0.953799    -0.707556    -0.580187    -0.555337    -0.553522    -0.551216    -0.507173

        11.1         12.1
      0.022393     0.037538


 HOMO     10.1    -0.507173 =     -13.8009eV
 LUMO     11.1     0.022393 =       0.6093eV
 LUMO-HOMO         0.529566 =      14.4102eV


 **********************************************************************************************************************************
 DATASETS  * FILE   NREC   LENGTH (MB)   RECORD NAMES
              1      18       37.06       500      610      700      900      950      970     1000      129      960     1100   
                                          VAR    BASINP    GEOM    SYMINP    ZMAT    AOBASIS   BASIS     P2S    ABASIS      S 
                                         1400     1410     1200     1210     1080     1600     1650     1700   
                                           T        V       H0       H01     AOSYM     SMH    MOLCAS    OPER   

              2       4        6.75       700     1000      520     2100   
                                         GEOM     BASIS   MCVARS     RHF  

 PROGRAMS   *        TOTAL    HF-SCF       INT
 CPU TIMES  *       491.59    255.72    235.64
 REAL TIME  *       637.86 SEC
 DISK USED  *        57.63 MB (local),       69.96 GB (total)
 SF USED    *         0.76 MB
 GA USED    *         0.00 MB       (max)       0.00 MB       (current)
 **********************************************************************************************************************************

 Basis set:  JKFIT                   
 Basis size:   740
 Attributes:
 Sphericals:   T
 Basis set:  MP2FIT                  
 Basis size:   816
 Attributes:
 Sphericals:   T
 Basis set:  RI                      
 Basis size:   556
 Attributes:
 Sphericals:   T
 Basis set:  TDDFT                   
 Basis size:   816
 Attributes:
 Sphericals:   T

 PROGRAM * CCSD (Closed-shell coupled cluster)     Authors: C. Hampel, H.-J. Werner, 1991, M. Deegan, P.J. Knowles, 1992


 Convergence thresholds:  THRVAR = 1.00D-08  THRDEN = 1.00D-10

 CCSD(T)     terms to be evaluated (factor= 1.000)


 Number of core orbitals:           2 (   2 )
 Number of closed-shell orbitals:   8 (   8 )
 Number of external orbitals:     426 ( 426 )

 Molecular orbitals read from record     2100.2  Type=RHF/CANONICAL (state 1.1)

 Number of N-1 electron functions:               8
 Number of N-2 electron functions:              36
 Number of singly external CSFs:              3408
 Number of doubly external CSFs:           5808936
 Total number of CSFs:                     5812345

 Length of J-op  integral file:               0.00 MB
 Length of K-op  integral file:              13.08 MB
 Length of 3-ext integral record:             0.00 MB

 Memory could be reduced to 828.85 Mwords without degradation in triples

 Integral transformation finished. Total CPU: 318.69 sec, npass=  1  Memory used: 389.48 MW

 Reference energy:                   -116.27863619

 MP2 singlet pair energy:              -0.34097016
 MP2 triplet pair energy:              -0.15867037
 MP2 correlation energy:               -0.49964052
 MP2 total energy:                   -116.77827672

 SCS-MP2 correlation energy:           -0.50789242   (PS=  1.200000  PT=  0.333333)
 SCS-MP2 total energy:               -116.78652861

 ITER.      SQ.NORM     CORR.ENERGY   TOTAL ENERGY   ENERGY CHANGE        DEN1      VAR(S)    VAR(P)  DIIS     TIME  TIME/IT
   1      1.13584107    -0.51732543  -116.79596162    -0.01768491    -0.00619749  0.14D-02  0.20D-02  1  1   485.06   167.15
   2      1.14445657    -0.51867654  -116.79731274    -0.00135111    -0.01024246  0.27D-04  0.25D-03  2  2   651.70   167.99
   3      1.14766601    -0.51879701  -116.79743320    -0.00012047    -0.00224183  0.12D-04  0.12D-04  3  3   817.96   168.26
   4      1.14852667    -0.51879849  -116.79743469    -0.00000149    -0.00040998  0.60D-06  0.13D-05  4  4   983.72   168.27
   5      1.14868800    -0.51879828  -116.79743447     0.00000022    -0.00004734  0.22D-06  0.87D-07  5  5  1150.07   168.40
   6      1.14873801    -0.51879450  -116.79743069     0.00000378    -0.00001204  0.21D-07  0.67D-08  6  6  1316.16   168.48
   7      1.14874782    -0.51879346  -116.79742965     0.00000104    -0.00000165  0.19D-08  0.10D-08  6  2  1481.40   168.41
   8      1.14875002    -0.51879329  -116.79742948     0.00000017    -0.00000011  0.38D-09  0.12D-09  6  1  1647.51   168.41
   9      1.14875095    -0.51879324  -116.79742943     0.00000005     0.00000004  0.30D-10  0.15D-10  6  3  1813.79   168.46
  10      1.14875112    -0.51879323  -116.79742942     0.00000001     0.00000006  0.32D-11  0.24D-11  6  4  1979.52   168.42
  11      1.14875108    -0.51879324  -116.79742943    -0.00000001     0.00000006  0.62D-12  0.30D-12  6  5  2145.03   168.38
  12      1.14875107    -0.51879324  -116.79742943    -0.00000000     0.00000002  0.10D-12  0.37D-13  6  6  2310.85   168.37
  13      1.14875105    -0.51879324  -116.79742943    -0.00000000     0.00000001  0.19D-13  0.59D-14  6  2  2476.57   168.34
  14      1.14875104    -0.51879324  -116.79742943    -0.00000000     0.00000000  0.27D-14  0.11D-14  6  1  2641.71   168.30
  15      1.14875104    -0.51879324  -116.79742943    -0.00000000     0.00000000  0.28D-15  0.17D-15  6  3  2807.29   168.27
  16      1.14875104    -0.51879324  -116.79742943    -0.00000000    -0.00000000  0.45D-16  0.23D-16  6  4  2973.26   168.27
  17      1.14875104    -0.51879324  -116.79742943     0.00000000    -0.00000000  0.66D-17  0.34D-17  6  5  3139.26   168.29

 Norm of t1 vector:      0.05056288      S-energy:     0.00000000      T1 diagnostic:  0.00893834
                                                                       D1 diagnostic:  0.02103223

   CPU time for triples:   1893.88 sec for i =  1 -  7 /  8 (~  68.8 % done)
   CPU time for triples:   1049.37 sec for i =  8 -  8 /  8 (  100.0 % done)

 Total CPU time for triples:   2943.28 sec


 RESULTS
 =======

  Reference energy                   -116.278636192339
  CCSD singlet pair energy             -0.373581319012
  CCSD triplet pair energy             -0.145211922507
  CCSD correlation energy              -0.518793241495

  Triples (T) contribution             -0.016693019959
  Total correlation energy             -0.535486261453

  CCSD total energy                  -116.797429433834
  CCSD[T] energy                     -116.814661124167
  CCSD-T energy                      -116.813896538319
 !CCSD(T) total energy               -116.814122453793

 Timing summary (sec):

 STEP                 CPU(USER)    SYS     CPU(TOT)    WALL
 Transformation        319.90     11.18    331.08    332.36
 CCSD iterations      2819.48     37.04   2856.52   2861.11
 Triples              2943.28     30.23   2973.51   2977.00

 Program statistics:

 Available memory in ccsd:              1999999734
 Min. memory needed in ccsd:              17010489
 Max. memory used in ccsd:                22038113
 Max. memory used in cckext:              15155228 (17 integral passes)



 **********************************************************************************************************************************
 DATASETS  * FILE   NREC   LENGTH (MB)   RECORD NAMES
              1      19     2602.11       500      610      700      900      950      970     1000      129      960     1100   
                                          VAR    BASINP    GEOM    SYMINP    ZMAT    AOBASIS   BASIS     P2S    ABASIS      S 
                                         1400     1410     1200     1210     1080     1600     1650     1700     1380   
                                           T        V       H0       H01     AOSYM     SMH    MOLCAS    OPER     JKOP   

              2       4        6.75       700     1000      520     2100   
                                         GEOM     BASIS   MCVARS     RHF  

 PROGRAMS   *        TOTAL   CCSD(T)    HF-SCF       INT
 CPU TIMES  *      6574.50   6082.90    255.72    235.64
 REAL TIME  *      6809.21 SEC
 DISK USED  *         3.24 GB (local),       80.80 GB (total)
 SF USED    *         3.08 GB
 GA USED    *         0.00 MB       (max)       0.00 MB       (current)
 **********************************************************************************************************************************

 Running procedure: SET_MONOMER1

 Dummy atoms: C1  H41  H42  H43  H44


 Recomputing one-electron integrals since nuclear charges changed


 PROGRAM * SEWARD (Integral evaluation for generally contracted gaussian basis sets)     Author: Roland Lindh, 1990

 Geometry written to block  1 of record 700


 Point group  C1  



 ATOMIC COORDINATES

 NR  ATOM    CHARGE       X              Y              Z

   1  O12     8.00   -5.732106254    9.977753938    2.847061379
   2  H23     1.00   -6.497256361    9.507023160    1.238715475
   3  H24     1.00   -4.013967261    9.251343215    2.814558090
   4  C1      0.00   -6.193010455    2.801518980    2.403542658
   5  H41     0.00   -4.656285171    1.699997622    3.119937832
   6  H42     0.00   -5.973046335    4.726205038    2.982932688
   7  H43     0.00   -7.940251230    2.077186956    3.118237078
   8  H44     0.00   -6.176569838    2.685300823    0.384937212

 Bond lengths in Bohr (Angstrom)

 1-2  1.842231989  1-3  1.865671621  4-5  2.021904040  4-6  2.022002335  4-7  2.021953343
     ( 0.974867186)     ( 0.987270905)     ( 1.069945541)     ( 1.069997556)     ( 1.069971630)

 4-8  2.022015060
     ( 1.070004290)

 Bond angles

  2-1-3  105.53314040   5-4-6  109.53398059   5-4-7  109.65604535   5-4-8  108.43490854

  6-4-7  109.49436728   6-4-8  109.86987750   7-4-8  109.83468330

 NUCLEAR CHARGE:                   10
 NUMBER OF PRIMITIVE AOS:         578
 NUMBER OF SYMMETRY AOS:          474
 NUMBER OF CONTRACTIONS:          436   (  436A   )
 NUMBER OF CORE ORBITALS:           1   (    1A   )
 NUMBER OF VALENCE ORBITALS:        6   (    6A   )

 MOLECULE CHANGED: INITIALIZING OCCUPATION AND DUMP RECORDS


 NUCLEAR REPULSION ENERGY    8.96929098

 Basis set:  JKFIT                   
 Basis size:   740
 Attributes:
 Sphericals:   T
 Basis set:  MP2FIT                  
 Basis size:   816
 Attributes:
 Sphericals:   T
 Basis set:  RI                      
 Basis size:   556
 Attributes:
 Sphericals:   T
 Basis set:  TDDFT                   
 Basis size:   816
 Attributes:
 Sphericals:   T

 Eigenvalues of metric

         1 0.132E-04 0.184E-04 0.292E-04 0.343E-04 0.620E-04 0.664E-04 0.923E-04 0.104E-03


 Contracted 2-electron integrals neglected if value below      1.0D-14

 OPERATOR DM      FOR CENTER  0  COORDINATES:    0.000000    0.000000    0.000000


 **********************************************************************************************************************************
 DATASETS  * FILE   NREC   LENGTH (MB)   RECORD NAMES
              1      18       37.06       500      610      700      900      950      970     1000      129      960     1100   
                                          VAR    BASINP    GEOM    SYMINP    ZMAT    AOBASIS   BASIS     P2S    ABASIS      S 
                                         1400     1410     1200     1210     1080     1600     1650     1700   
                                           T        V       H0       H01     AOSYM     SMH    MOLCAS    OPER   

              2       5       10.59       700     1000      520     2100      200   
                                         GEOM     BASIS   MCVARS     RHF    OPTIONS    

 PROGRAMS   *        TOTAL       INT   CCSD(T)    HF-SCF       INT
 CPU TIMES  *      6574.85      0.34   6082.90    255.72    235.64
 REAL TIME  *      6810.46 SEC
 DISK USED  *         3.24 GB (local),       80.81 GB (total)
 SF USED    *         3.08 GB
 GA USED    *         0.00 MB       (max)       0.00 MB       (current)
 **********************************************************************************************************************************


 PROGRAM * RHF-SCF (CLOSED SHELL)       Authors: W. Meyer, H.-J. Werner


 NUMBER OF ELECTRONS:       5+    5-    SPACE SYMMETRY=1    SPIN SYMMETRY: Singlet 
 CONVERGENCE THRESHOLDS:    1.00E-08 (Density)    1.00E-11 (Energy)
 MAX. NUMBER OF ITERATIONS:       60
 INTERPOLATION TYPE:            DIIS
 INTERPOLATION STEPS:              2 (START)      1 (STEP)
 LEVEL SHIFTS:                  0.00 (CLOSED)  0.00 (OPEN) 



 Orbital guess generated from atomic densities. Full valence occupancy:    7

 Molecular orbital dump at record        2101.2

 Initial occupancy:   5

 ITERATION    DDIFF          GRAD             ENERGY        2-EL.EN.            DIPOLE MOMENTS         DIIS   ORB.
    1      0.000D+00      0.000D+00       -76.02461214     77.370816    0.49241   -0.61454   -0.83951    0    start
    2      0.000D+00      0.467D-02       -76.05136228     73.707100    0.28199   -0.35573   -0.48835    1    diag
    3      0.222D-02      0.298D-02       -76.06299632     75.334839    0.33375   -0.42016   -0.57630    2    diag
    4      0.843D-03      0.279D-03       -76.06319211     75.243432    0.33097   -0.41742   -0.57305    3    diag
    5      0.105D-03      0.783D-04       -76.06321344     75.257810    0.32990   -0.41639   -0.57185    4    diag
    6      0.332D-04      0.156D-04       -76.06321484     75.256760    0.32963   -0.41616   -0.57160    5    diag
    7      0.856D-05      0.318D-05       -76.06321491     75.256909    0.32955   -0.41608   -0.57151    6    diag
    8      0.235D-05      0.598D-06       -76.06321491     75.256893    0.32953   -0.41606   -0.57148    7    diag
    9      0.427D-06      0.811D-07       -76.06321491     75.256884    0.32953   -0.41605   -0.57148    8    diag
   10      0.553D-07      0.185D-07       -76.06321491     75.256888    0.32953   -0.41605   -0.57148    9    orth
   11      0.132D-07      0.332D-08       -76.06321491     75.256887    0.32953   -0.41605   -0.57148    9    diag
   12      0.249D-08      0.600D-09       -76.06321491     75.256887    0.32953   -0.41605   -0.57148    0    orth

 Final occupancy:   5

 !RHF STATE  1.1 Energy               -76.063214907643
 Nuclear energy                         8.96929098
 One-electron energy                 -122.66094935
 Two-electron energy                   37.62844346
 Virial quotient                       -1.00212517
 !RHF STATE  1.1 Dipole moment          0.32952566    -0.41605433    -0.57147960
 Dipole moment /Debye                   0.83751582    -1.05743536    -1.45246113

 Orbital energies:

         1.1          2.1          3.1          4.1          5.1          6.1          7.1
    -20.568354    -1.340203    -0.706796    -0.578413    -0.508265     0.016770     0.035641


 HOMO      5.1    -0.508265 =     -13.8306eV
 LUMO      6.1     0.016770 =       0.4563eV
 LUMO-HOMO         0.525035 =      14.2869eV


 **********************************************************************************************************************************
 DATASETS  * FILE   NREC   LENGTH (MB)   RECORD NAMES
              1      18       37.06       500      610      700      900      950      970     1000      129      960     1100   
                                          VAR    BASINP    GEOM    SYMINP    ZMAT    AOBASIS   BASIS     P2S    ABASIS      S 
                                         1400     1410     1200     1210     1080     1600     1650     1700   
                                           T        V       H0       H01     AOSYM     SMH    MOLCAS    OPER   

              2       6       17.39       700     1000      520     2100      200     2101   
                                         GEOM     BASIS   MCVARS     RHF    OPTIONS    RHF  

 PROGRAMS   *        TOTAL    HF-SCF       INT   CCSD(T)    HF-SCF       INT
 CPU TIMES  *      6794.96    220.11      0.34   6082.90    255.72    235.64
 REAL TIME  *      7053.13 SEC
 DISK USED  *         3.24 GB (local),       80.81 GB (total)
 SF USED    *         3.08 GB
 GA USED    *         0.00 MB       (max)       0.00 MB       (current)
 **********************************************************************************************************************************

 Basis set:  JKFIT                   
 Basis size:   740
 Attributes:
 Sphericals:   T
 Basis set:  MP2FIT                  
 Basis size:   816
 Attributes:
 Sphericals:   T
 Basis set:  RI                      
 Basis size:   556
 Attributes:
 Sphericals:   T
 Basis set:  TDDFT                   
 Basis size:   816
 Attributes:
 Sphericals:   T

 PROGRAM * CCSD (Closed-shell coupled cluster)     Authors: C. Hampel, H.-J. Werner, 1991, M. Deegan, P.J. Knowles, 1992


 Convergence thresholds:  THRVAR = 1.00D-08  THRDEN = 1.00D-10

 CCSD(T)     terms to be evaluated (factor= 1.000)


 Number of core orbitals:           1 (   1 )
 Number of closed-shell orbitals:   4 (   4 )
 Number of external orbitals:     431 ( 431 )

 Molecular orbitals read from record     2101.2  Type=RHF/CANONICAL (state 1.1)

 Number of N-1 electron functions:               4
 Number of N-2 electron functions:              10
 Number of singly external CSFs:              1724
 Number of doubly external CSFs:           1486950
 Total number of CSFs:                     1488675

 Length of J-op  integral file:               0.00 MB
 Length of K-op  integral file:              13.08 MB
 Length of 3-ext integral record:             0.00 MB

 Memory could be reduced to 526.20 Mwords without degradation in triples

 Integral transformation finished. Total CPU: 167.73 sec, npass=  1  Memory used: 214.76 MW

 Reference energy:                    -76.06321491

 MP2 singlet pair energy:              -0.18631178
 MP2 triplet pair energy:              -0.10142866
 MP2 correlation energy:               -0.28774044
 MP2 total energy:                    -76.35095535

 SCS-MP2 correlation energy:           -0.28668530   (PS=  1.200000  PT=  0.333333)
 SCS-MP2 total energy:                -76.34990021

 ITER.      SQ.NORM     CORR.ENERGY   TOTAL ENERGY   ENERGY CHANGE        DEN1      VAR(S)    VAR(P)  DIIS     TIME  TIME/IT
   1      1.06455053    -0.28946913   -76.35268403    -0.00172868     0.00415958  0.85D-03  0.10D-02  1  1   215.86    49.53
   2      1.06821716    -0.28972542   -76.35294033    -0.00025630    -0.00493204  0.14D-04  0.12D-03  2  2   264.20    49.87
   3      1.06968146    -0.28980552   -76.35302043    -0.00008010    -0.00102266  0.88D-05  0.64D-05  3  3   312.49    49.99
   4      1.07015560    -0.28980485   -76.35301976     0.00000067    -0.00022128  0.50D-06  0.77D-06  4  4   361.01    50.08
   5      1.07026098    -0.28980255   -76.35301746     0.00000231    -0.00003313  0.17D-06  0.52D-07  5  5   409.48    50.12
   6      1.07029817    -0.28979950   -76.35301441     0.00000304    -0.00000847  0.18D-07  0.42D-08  6  6   457.97    50.15
   7      1.07030576    -0.28979910   -76.35301400     0.00000041    -0.00000060  0.15D-08  0.81D-09  6  1   506.12    50.13
   8      1.07030752    -0.28979900   -76.35301391     0.00000010    -0.00000005  0.25D-09  0.95D-10  6  2   554.40    50.13
   9      1.07030819    -0.28979896   -76.35301386     0.00000004     0.00000011  0.19D-10  0.86D-11  6  3   603.19    50.16
  10      1.07030833    -0.28979894   -76.35301385     0.00000001     0.00000002  0.23D-11  0.13D-11  6  4   652.31    50.23
  11      1.07030833    -0.28979895   -76.35301385    -0.00000000     0.00000002  0.53D-12  0.16D-12  6  5   701.06    50.28
  12      1.07030833    -0.28979895   -76.35301385    -0.00000000     0.00000001  0.91D-13  0.27D-13  6  6   750.08    50.31
  13      1.07030833    -0.28979895   -76.35301385    -0.00000000     0.00000000  0.16D-13  0.51D-14  6  1   798.94    50.33
  14      1.07030832    -0.28979895   -76.35301385    -0.00000000     0.00000000  0.17D-14  0.73D-15  6  2   848.02    50.38
  15      1.07030832    -0.28979895   -76.35301385    -0.00000000     0.00000000  0.18D-15  0.12D-15  6  3   896.65    50.39
  16      1.07030832    -0.28979895   -76.35301385    -0.00000000    -0.00000000  0.40D-16  0.19D-16  6  4   946.00    50.43

 Norm of t1 vector:      0.03867114      S-energy:    -0.00000000      T1 diagnostic:  0.00966779
                                                                       D1 diagnostic:  0.02019255


 Total CPU time for triples:    438.01 sec


 RESULTS
 =======

  Reference energy                    -76.063214907643
  CCSD singlet pair energy             -0.200138899814
  CCSD triplet pair energy             -0.089660047278
  CCSD correlation energy              -0.289798947188

  Triples (T) contribution             -0.009618612955
  Total correlation energy             -0.299417560143

  CCSD total energy                   -76.353013854831
  CCSD[T] energy                      -76.362952110104
  CCSD-T energy                       -76.362477964527
 !CCSD(T) total energy                -76.362632467786

 Timing summary (sec):

 STEP                 CPU(USER)    SYS     CPU(TOT)    WALL
 Transformation        168.12      5.53    173.65    173.86
 CCSD iterations       777.97     27.73    805.70    807.02
 Triples               438.01      5.47    443.48    443.99

 Program statistics:

 Available memory in ccsd:              1999999921
 Min. memory needed in ccsd:               6768234
 Max. memory used in ccsd:                 7865440
 Max. memory used in cckext:               5182436 (16 integral passes)



 **********************************************************************************************************************************
 DATASETS  * FILE   NREC   LENGTH (MB)   RECORD NAMES
              1      19     1346.95       500      610      700      900      950      970     1000      129      960     1100   
                                          VAR    BASINP    GEOM    SYMINP    ZMAT    AOBASIS   BASIS     P2S    ABASIS      S 
                                         1400     1410     1200     1210     1080     1600     1650     1700     1380   
                                           T        V       H0       H01     AOSYM     SMH    MOLCAS    OPER     JKOP   

              2       6       17.39       700     1000      520     2100      200     2101   
                                         GEOM     BASIS   MCVARS     RHF    OPTIONS    RHF  

 PROGRAMS   *        TOTAL   CCSD(T)    HF-SCF       INT   CCSD(T)    HF-SCF       INT
 CPU TIMES  *      8179.33   1384.36    220.11      0.34   6082.90    255.72    235.64
 REAL TIME  *      8478.90 SEC
 DISK USED  *         3.24 GB (local),       80.81 GB (total)
 SF USED    *         3.08 GB
 GA USED    *         0.00 MB       (max)       0.00 MB       (current)
 **********************************************************************************************************************************

 Running procedure: SET_MONOMER2

 Dummy atoms: O12  H23  H24


 Recomputing one-electron integrals since nuclear charges changed


 PROGRAM * SEWARD (Integral evaluation for generally contracted gaussian basis sets)     Author: Roland Lindh, 1990

 Geometry written to block  1 of record 700


 Point group  C1  



 ATOMIC COORDINATES

 NR  ATOM    CHARGE       X              Y              Z

   1  O12     0.00   -5.732106254    9.977753938    2.847061379
   2  H23     0.00   -6.497256361    9.507023160    1.238715475
   3  H24     0.00   -4.013967261    9.251343215    2.814558090
   4  C1      6.00   -6.193010455    2.801518980    2.403542658
   5  H41     1.00   -4.656285171    1.699997622    3.119937832
   6  H42     1.00   -5.973046335    4.726205038    2.982932688
   7  H43     1.00   -7.940251230    2.077186956    3.118237078
   8  H44     1.00   -6.176569838    2.685300823    0.384937212

 Bond lengths in Bohr (Angstrom)

 1-2  1.842231989  1-3  1.865671621  4-5  2.021904040  4-6  2.022002335  4-7  2.021953343
     ( 0.974867186)     ( 0.987270905)     ( 1.069945541)     ( 1.069997556)     ( 1.069971630)

 4-8  2.022015060
     ( 1.070004290)

 Bond angles

  2-1-3  105.53314040   5-4-6  109.53398059   5-4-7  109.65604535   5-4-8  108.43490854

  6-4-7  109.49436728   6-4-8  109.86987750   7-4-8  109.83468330

 NUCLEAR CHARGE:                   10
 NUMBER OF PRIMITIVE AOS:         578
 NUMBER OF SYMMETRY AOS:          474
 NUMBER OF CONTRACTIONS:          436   (  436A   )
 NUMBER OF CORE ORBITALS:           1   (    1A   )
 NUMBER OF VALENCE ORBITALS:        8   (    8A   )

 MOLECULE CHANGED: INITIALIZING OCCUPATION AND DUMP RECORDS


 NUCLEAR REPULSION ENERGY   13.68681606

 Basis set:  JKFIT                   
 Basis size:   740
 Attributes:
 Sphericals:   T
 Basis set:  MP2FIT                  
 Basis size:   816
 Attributes:
 Sphericals:   T
 Basis set:  RI                      
 Basis size:   556
 Attributes:
 Sphericals:   T
 Basis set:  TDDFT                   
 Basis size:   816
 Attributes:
 Sphericals:   T

 Eigenvalues of metric

         1 0.132E-04 0.184E-04 0.292E-04 0.343E-04 0.620E-04 0.664E-04 0.923E-04 0.104E-03


 Contracted 2-electron integrals neglected if value below      1.0D-14

 OPERATOR DM      FOR CENTER  0  COORDINATES:    0.000000    0.000000    0.000000


 **********************************************************************************************************************************
 DATASETS  * FILE   NREC   LENGTH (MB)   RECORD NAMES
              1      18       37.06       500      610      700      900      950      970     1000      129      960     1100   
                                          VAR    BASINP    GEOM    SYMINP    ZMAT    AOBASIS   BASIS     P2S    ABASIS      S 
                                         1400     1410     1200     1210     1080     1600     1650     1700   
                                           T        V       H0       H01     AOSYM     SMH    MOLCAS    OPER   

              2       6       17.39       700     1000      520     2100      200     2101   
                                         GEOM     BASIS   MCVARS     RHF    OPTIONS    RHF  

 PROGRAMS   *        TOTAL       INT   CCSD(T)    HF-SCF       INT   CCSD(T)    HF-SCF       INT
 CPU TIMES  *      8179.71      0.37   1384.36    220.11      0.34   6082.90    255.72    235.64
 REAL TIME  *      8480.04 SEC
 DISK USED  *         3.24 GB (local),       80.81 GB (total)
 SF USED    *         3.08 GB
 GA USED    *         0.00 MB       (max)       0.00 MB       (current)
 **********************************************************************************************************************************


 PROGRAM * RHF-SCF (CLOSED SHELL)       Authors: W. Meyer, H.-J. Werner


 NUMBER OF ELECTRONS:       5+    5-    SPACE SYMMETRY=1    SPIN SYMMETRY: Singlet 
 CONVERGENCE THRESHOLDS:    1.00E-08 (Density)    1.00E-11 (Energy)
 MAX. NUMBER OF ITERATIONS:       60
 INTERPOLATION TYPE:            DIIS
 INTERPOLATION STEPS:              2 (START)      1 (STEP)
 LEVEL SHIFTS:                  0.00 (CLOSED)  0.00 (OPEN) 



 Orbital guess generated from atomic densities. Full valence occupancy:    9

 Molecular orbital dump at record        2102.2

 Initial occupancy:   5

 ITERATION    DDIFF          GRAD             ENERGY        2-EL.EN.            DIPOLE MOMENTS         DIIS   ORB.
    1      0.000D+00      0.000D+00       -40.19609609     53.506297    0.00411   -0.00276   -0.00130    0    start
    2      0.000D+00      0.257D-02       -40.21335025     52.217629    0.00129   -0.00088   -0.00038    1    diag
    3      0.158D-02      0.998D-03       -40.21562619     52.672088    0.00182   -0.00124   -0.00055    2    diag
    4      0.442D-03      0.249D-03       -40.21594564     52.617276    0.00162   -0.00111   -0.00048    3    diag
    5      0.167D-03      0.322D-04       -40.21595113     52.619423    0.00159   -0.00109   -0.00048    4    diag
    6      0.409D-04      0.264D-05       -40.21595118     52.619560    0.00159   -0.00109   -0.00048    5    diag
    7      0.537D-05      0.212D-06       -40.21595118     52.619521    0.00159   -0.00109   -0.00047    6    diag
    8      0.242D-06      0.170D-07       -40.21595118     52.619522    0.00159   -0.00109   -0.00047    7    diag
    9      0.835D-07      0.217D-08       -40.21595118     52.619522    0.00159   -0.00109   -0.00047    8    diag
   10      0.826D-08      0.594D-09       -40.21595118     52.619522    0.00159   -0.00109   -0.00047    0    orth

 Final occupancy:   5

 !RHF STATE  1.1 Energy               -40.215951177353
 Nuclear energy                        13.68681606
 One-electron energy                  -80.21252811
 Two-electron energy                   26.30976088
 Virial quotient                       -0.99838103
 !RHF STATE  1.1 Dipole moment          0.00158814    -0.00108684    -0.00047455
 Dipole moment /Debye                   0.00403638    -0.00276229    -0.00120610

 Orbital energies:

         1.1          2.1          3.1          4.1          5.1          6.1          7.1
    -11.196223    -0.950661    -0.551889    -0.549954    -0.547776     0.024439     0.039028


 HOMO      5.1    -0.547776 =     -14.9057eV
 LUMO      6.1     0.024439 =       0.6650eV
 LUMO-HOMO         0.572215 =      15.5708eV


 **********************************************************************************************************************************
 DATASETS  * FILE   NREC   LENGTH (MB)   RECORD NAMES
              1      18       37.06       500      610      700      900      950      970     1000      129      960     1100   
                                          VAR    BASINP    GEOM    SYMINP    ZMAT    AOBASIS   BASIS     P2S    ABASIS      S 
                                         1400     1410     1200     1210     1080     1600     1650     1700   
                                           T        V       H0       H01     AOSYM     SMH    MOLCAS    OPER   

              2       7       27.51       700     1000      520     2100      200     2101     2102   
                                         GEOM     BASIS   MCVARS     RHF    OPTIONS    RHF      RHF  

 PROGRAMS   *        TOTAL    HF-SCF       INT   CCSD(T)    HF-SCF       INT   CCSD(T)    HF-SCF       INT
 CPU TIMES  *      8364.81    185.09      0.37   1384.36    220.11      0.34   6082.90    255.72    235.64
 REAL TIME  *      8684.76 SEC
 DISK USED  *         3.24 GB (local),       80.81 GB (total)
 SF USED    *         3.08 GB
 GA USED    *         0.00 MB       (max)       0.00 MB       (current)
 **********************************************************************************************************************************

 Basis set:  JKFIT                   
 Basis size:   740
 Attributes:
 Sphericals:   T
 Basis set:  MP2FIT                  
 Basis size:   816
 Attributes:
 Sphericals:   T
 Basis set:  RI                      
 Basis size:   556
 Attributes:
 Sphericals:   T
 Basis set:  TDDFT                   
 Basis size:   816
 Attributes:
 Sphericals:   T

 PROGRAM * CCSD (Closed-shell coupled cluster)     Authors: C. Hampel, H.-J. Werner, 1991, M. Deegan, P.J. Knowles, 1992


 Convergence thresholds:  THRVAR = 1.00D-08  THRDEN = 1.00D-10

 CCSD(T)     terms to be evaluated (factor= 1.000)


 Number of core orbitals:           1 (   1 )
 Number of closed-shell orbitals:   4 (   4 )
 Number of external orbitals:     431 ( 431 )

 Molecular orbitals read from record     2102.2  Type=RHF/CANONICAL (state 1.1)

 Number of N-1 electron functions:               4
 Number of N-2 electron functions:              10
 Number of singly external CSFs:              1724
 Number of doubly external CSFs:           1486950
 Total number of CSFs:                     1488675

 Length of J-op  integral file:               0.00 MB
 Length of K-op  integral file:              13.08 MB
 Length of 3-ext integral record:             0.00 MB

 Memory could be reduced to 526.20 Mwords without degradation in triples

 Integral transformation finished. Total CPU: 166.02 sec, npass=  1  Memory used: 214.76 MW

 Reference energy:                    -40.21595118

 MP2 singlet pair energy:              -0.15443547
 MP2 triplet pair energy:              -0.05646411
 MP2 correlation energy:               -0.21089957
 MP2 total energy:                    -40.42685075

 SCS-MP2 correlation energy:           -0.22045578   (PS=  1.200000  PT=  0.333333)
 SCS-MP2 total energy:                -40.43640696

 ITER.      SQ.NORM     CORR.ENERGY   TOTAL ENERGY   ENERGY CHANGE        DEN1      VAR(S)    VAR(P)  DIIS     TIME  TIME/IT
   1      1.07097374    -0.22688283   -40.44283401    -0.01598326    -0.01039589  0.55D-03  0.97D-03  1  1   214.20    49.25
   2      1.07611862    -0.22798293   -40.44393411    -0.00110010    -0.00547144  0.14D-04  0.92D-04  2  2   262.60    49.74
   3      1.07764009    -0.22802213   -40.44397331    -0.00003920    -0.00107348  0.18D-05  0.58D-05  3  3   311.02    49.89
   4      1.07799984    -0.22802782   -40.44397900    -0.00000569    -0.00017111  0.12D-06  0.28D-06  4  4   359.70    49.98
   5      1.07804790    -0.22802971   -40.44398089    -0.00000189    -0.00001304  0.10D-07  0.20D-07  5  5   408.29    50.07
   6      1.07805616    -0.22802850   -40.44397968     0.00000121    -0.00000327  0.65D-09  0.14D-08  6  6   457.08    50.15
   7      1.07805722    -0.22802821   -40.44397938     0.00000029    -0.00000056  0.47D-10  0.12D-09  6  1   505.92    50.21
   8      1.07805716    -0.22802826   -40.44397943    -0.00000005     0.00000022  0.48D-11  0.68D-11  6  3   554.53    50.26
   9      1.07805729    -0.22802824   -40.44397942     0.00000002    -0.00000008  0.41D-12  0.56D-12  6  2   603.16    50.28
  10      1.07805729    -0.22802824   -40.44397942     0.00000000     0.00000000  0.47D-13  0.57D-13  6  4   652.15    50.32
  11      1.07805729    -0.22802824   -40.44397941     0.00000000     0.00000000  0.43D-14  0.57D-14  6  5   700.79    50.32
  12      1.07805729    -0.22802824   -40.44397941     0.00000000     0.00000000  0.10D-15  0.63D-15  6  6   749.80    50.36
  13      1.07805729    -0.22802824   -40.44397941    -0.00000000     0.00000000  0.76D-17  0.60D-16  6  1   798.49    50.36
  14      1.07805729    -0.22802824   -40.44397941    -0.00000000     0.00000000  0.10D-17  0.77D-17  6  3   846.55    50.42

 Norm of t1 vector:      0.03128403      S-energy:    -0.00000000      T1 diagnostic:  0.00782101
                                                                       D1 diagnostic:  0.01257242

 Total CPU time for triples:    438.00 sec


 RESULTS
 =======

  Reference energy                    -40.215951177353
  CCSD singlet pair energy             -0.173332446537
  CCSD triplet pair energy             -0.054695790853
  CCSD correlation energy              -0.228028237395

  Triples (T) contribution             -0.006882426061
  Total correlation energy             -0.234910663456

  CCSD total energy                   -40.443979414748
  CCSD[T] energy                      -40.451074993122
  CCSD-T energy                       -40.450794233695
 !CCSD(T) total energy                -40.450861840809

 Timing summary (sec):

 STEP                 CPU(USER)    SYS     CPU(TOT)    WALL
 Transformation        166.38      5.99    172.37    173.52
 CCSD iterations       680.26     23.71    703.97    706.02
 Triples               438.00      5.43    443.43    444.31

 Program statistics:

 Available memory in ccsd:              1999999916
 Min. memory needed in ccsd:               6768234
 Max. memory used in ccsd:                 7865440
 Max. memory used in cckext:               5182436 (14 integral passes)



 **********************************************************************************************************************************
 DATASETS  * FILE   NREC   LENGTH (MB)   RECORD NAMES
              1      19     1346.95       500      610      700      900      950      970     1000      129      960     1100   
                                          VAR    BASINP    GEOM    SYMINP    ZMAT    AOBASIS   BASIS     P2S    ABASIS      S 
                                         1400     1410     1200     1210     1080     1600     1650     1700     1380   
                                           T        V       H0       H01     AOSYM     SMH    MOLCAS    OPER     JKOP   

              2       7       27.51       700     1000      520     2100      200     2101     2102   
                                         GEOM     BASIS   MCVARS     RHF    OPTIONS    RHF      RHF  

 PROGRAMS   *        TOTAL   CCSD(T)    HF-SCF       INT   CCSD(T)    HF-SCF       INT   CCSD(T)    HF-SCF       INT
 CPU TIMES  *      9649.70   1284.88    185.09      0.37   1384.36    220.11      0.34   6082.90    255.72    235.64
 REAL TIME  *     10009.51 SEC
 DISK USED  *         3.24 GB (local),       80.81 GB (total)
 SF USED    *         3.08 GB
 GA USED    *         0.00 MB       (max)       0.00 MB       (current)
 **********************************************************************************************************************************
 Molecular orbitals read from record     2102.2  Type=RHF/CANONICAL (state 1.1)
 Occupation numbers read from record     2102.2  Type=RHF/RHF (state 1.1)
 Orbital energies read from record       2102.2  Type=RHF/CANONICAL (state 1.1)
 Redundancy group numbers read from rec  2102.2  Type=RHF/RHF (state 1.1)

 CCSD(T)/aug-cc-pVQZ energy=    -40.450861840809

         CCSD(T)          HF-SCF         CCSD(T)          HF-SCF         CCSD(T)          HF-SCF
    -40.45086184    -40.21595118    -76.36263247    -76.06321491   -116.81412245   -116.27863619
 **********************************************************************************************************************************
 Molpro calculation terminated
