
 Primary working directories    : /scratch/klimes/383116/molpro.lokqiwIg5i
 Secondary working directories  : /scratch/klimes/383116/molpro.lokqiwIg5i
 Wavefunction directory         : /scratch/klimes/383116/
 Main file repository           : /scratch/klimes/383116/molpro.lokqiwIg5i/

 id        : karlovklimes

 Nodes                      nprocs
 nc-04.cc.karlov.mff.cuni.cz    4

 Using customized tuning parameters: mindgm=1; mindgv=20; mindgc=4; mindgr=1; noblas=0; minvec=7
 default implementation of scratch files=sf  


 Variables initialized (930), CPU time= 0.01 sec
                                                                                 !gdirect
 memory,2000,m
 gthresh,orbital=1d-10,energy=1d-10,grid=1d-8
 
 symmetry,nosym
 angstrom
 geometry={
 O13        -4.053700000000      0.094100000000      4.862800000000
 H25        -3.635600000000      1.001800000000      4.895500000000
 H26        -4.213700000000     -0.141300000000      5.785400000000
 C1        -3.277200000000      1.482500000000      1.271900000000
 H41        -2.464000000000      0.899600000000      1.651000000000
 H42        -3.160800000000      2.501000000000      1.578500000000
 H43        -4.201800000000      1.099200000000      1.650100000000
 H44        -3.268500000000      1.421000000000      0.203700000000
 }
 
 nkerna=1
 nkernb=1
 
 gf=0
 sing=1
 thrdum=1d-4
 gridthr=1d-8
 
 basis={
 set,orbital
 default,avqz
 set,jkfit
 default,avqz/jkfit
 set,mp2fit
 default,avqz/mp2fit
 set,ri
 default,avqz/optri
 set,tddft
 default,avqz/mp2fit
 }
 
 proc set_monomer1
 dummy,4,5,6,7,8
 endproc
 
 proc set_monomer2
 dummy,1,2,3
 endproc
 
                                                                                 !1234 energy
 {hf,accu=1.d-16}
 ccsd(t)
 
 set_monomer1
 {hf,accu=1.d-16}
 ccsd(t)
 
 set_monomer2
 {hf,accu=1.d-16}
 ccsd(t)
 
 Commands  initialized (760), CPU time= 0.02 sec, 617 directives.
 Default parameters read. Elapsed time= 0.20 sec

 Checking input...
 Passed
1


                                         ***  PROGRAM SYSTEM MOLPRO  ***
                                       Copyright, TTI GmbH Stuttgart, 2015
                                    Version 2019.1 linked Jan 14 2019 13:09:19


 **********************************************************************************************************************************
 LABEL *                                                                                 
  64 bit mpp version                                                                     DATE: 11-Mar-20          TIME: 13:21:27  
 **********************************************************************************************************************************

 SHA1:             d688ac825633d238f2093ded1675ba87ccd55965
 **********************************************************************************************************************************

 THRESHOLDS:

 ZERO    =  1.00D-12  ONEINT  =  1.00D-12  TWOINT  =  1.00D-11  PREFAC  =  1.00D-14  XXXXXX  =  1.00D-09  EORDER  =  1.00D-04
 ENERGY  =  1.00D-10  ETEST   =  0.00D+00  EDENS   =  0.00D+00  THRDEDEF=  1.00D-06  GRADIENT=  1.00D-02  STEP    =  1.00D-03
 ORBITAL =  1.00D-10  CIVEC   =  1.00D-05  COEFF   =  1.00D-04  PRINTCI =  5.00D-02  PUNCHCI =  9.90D+01  OPTGRAD =  3.00D-04
 OPTENERG=  1.00D-06  OPTSTEP =  3.00D-04  THRGRAD =  1.00D-10  COMPRESS=  1.00D-11  VARMIN  =  1.00D-07  VARMAX  =  1.00D-03
 THRDOUB =  0.00D+00  THRDIV  =  1.00D-05  THRRED  =  1.00D-07  THRPSP  =  1.00D+00  THRDC   =  1.00D-10  THRCS   =  1.00D-10
 THRNRM  =  1.00D-08  THREQ   =  0.00D+00  THRDE   =  1.00D+00  THRREF  =  1.00D-05  SPARFAC =  1.00D+00  THRDLP  =  1.00D-07
 THRDIA  =  1.00D-10  THRDLS  =  1.00D-07  THRGPS  =  0.00D+00  THRKEX  =  0.00D+00  THRDIS  =  2.00D-01  THRVAR  =  1.00D-10
 THRLOC  =  1.00D-06  THRGAP  =  1.00D-06  THRLOCT = -1.00D+00  THRGAPT = -1.00D+00  THRORB  =  1.00D-06  THRMLTP =  0.00D+00
 THRCPQCI=  1.00D-10  KEXTA   =  0.00D+00  THRCOARS=  0.00D+00  SYMTOL  =  1.00D-06  GRADTOL =  1.00D-06  THROVL  =  1.00D-08
 THRORTH =  1.00D-08  GRID    =  1.00D-08  GRIDMAX =  1.00D-03  DTMAX   =  0.00D+00  THROCCDE=  1.00D-01  THROCCDE=  1.00D-01
 THRPRINT=  2.50D-01


 Variable memory set to 2000000000 words,  buffer space 

 ZSYMEL=NOSYM
 ZUNIT=ANG


Geometry recognized as XYZ

 SETTING NKERNA         =         1.00000000                                  
 SETTING NKERNB         =         1.00000000                                  
 SETTING GF             =     0.00000000D+00                                  
 SETTING SING           =         1.00000000                                  
 SETTING THRDUM         =     1.00000000D-04                                  
 SETTING GRIDTHR        =     1.00000000D-08                                  
 SETTING BASIS          =    AVQZ


 Recomputing integrals since basis changed


 Using spherical harmonics

 Library entry O      S aug-cc-pVQZ          selected for orbital group  1
 Library entry O      P aug-cc-pVQZ          selected for orbital group  1
 Library entry O      D aug-cc-pVQZ          selected for orbital group  1
 Library entry O      F aug-cc-pVQZ          selected for orbital group  1
 Library entry O      G aug-cc-pVQZ          selected for orbital group  1
 Library entry H      S aug-cc-pVQZ          selected for orbital group  2
 Library entry H      P aug-cc-pVQZ          selected for orbital group  2
 Library entry H      D aug-cc-pVQZ          selected for orbital group  2
 Library entry H      F aug-cc-pVQZ          selected for orbital group  2
 Library entry C      S aug-cc-pVQZ          selected for orbital group  3
 Library entry C      P aug-cc-pVQZ          selected for orbital group  3
 Library entry C      D aug-cc-pVQZ          selected for orbital group  3
 Library entry C      F aug-cc-pVQZ          selected for orbital group  3
 Library entry C      G aug-cc-pVQZ          selected for orbital group  3


 PROGRAM * SEWARD (Integral evaluation for generally contracted gaussian basis sets)     Author: Roland Lindh, 1990

 Geometry written to block  1 of record 700


 Point group  C1  



 ATOMIC COORDINATES

 NR  ATOM    CHARGE       X              Y              Z

   1  O13     8.00   -7.660382791    0.177823228    9.189360199
   2  H25     1.00   -6.870288298    1.893127632    9.251154243
   3  H26     1.00   -7.962738971   -0.267018301   10.932821521
   4  C1      6.00   -6.193010455    2.801518980    2.403542658
   5  H41     1.00   -4.656285171    1.699997622    3.119937832
   6  H42     1.00   -5.973046335    4.726205038    2.982932688
   7  H43     1.00   -7.940251230    2.077186956    3.118237078
   8  H44     1.00   -6.176569838    2.685300823    0.384937212

 Bond lengths in Bohr (Angstrom)

 1-2  1.889533542  1-3  1.824543951  4-5  2.021904040  4-6  2.022002335  4-7  2.021953343
     ( 0.999898090)     ( 0.965507079)     ( 1.069945541)     ( 1.069997556)     ( 1.069971630)

 4-8  2.022015060
     ( 1.070004290)

 Bond angles

  2-1-3  105.03277623   5-4-6  109.53398059   5-4-7  109.65604535   5-4-8  108.43490854

  6-4-7  109.49436728   6-4-8  109.86987750   7-4-8  109.83468330

 NUCLEAR CHARGE:                   20
 NUMBER OF PRIMITIVE AOS:         578
 NUMBER OF SYMMETRY AOS:          474
 NUMBER OF CONTRACTIONS:          436   (  436A   )
 NUMBER OF CORE ORBITALS:           2   (    2A   )
 NUMBER OF VALENCE ORBITALS:       14   (   14A   )


 NUCLEAR REPULSION ENERGY   35.91495842


 Basis set:  JKFIT                   
 Basis size:   740
 Attributes:
 Sphericals:   T
 Basis set:  MP2FIT                  
 Basis size:   816
 Attributes:
 Sphericals:   T
 Basis set:  RI                      
 Basis size:   556
 Attributes:
 Sphericals:   T
 Basis set:  TDDFT                   
 Basis size:   816
 Attributes:
 Sphericals:   T

 **********************************************************************************************************************************


 Eigenvalues of metric

         1 0.152E-04 0.219E-04 0.349E-04 0.379E-04 0.621E-04 0.864E-04 0.963E-04 0.991E-04


 Contracted 2-electron integrals neglected if value below      1.0D-14
 AO integral compression algorithm  1   Integral accuracy      1.0D-14

     21140.603 MB (compressed) written to integral file ( 52.7%)

     Node minimum: 5017.174 MB, node maximum: 5941.232 MB


 NUMBER OF SORTED TWO-ELECTRON INTEGRALS: 1134451344.     BUFFER LENGTH:  32768
 NUMBER OF SEGMENTS:  36  SEGMENT LENGTH:   31999984      RECORD LENGTH: 524288

 Memory used in sort:      32.56 MW

 SORT1 READ  5012305700. AND WROTE   914360605. INTEGRALS IN   2632 RECORDS. CPU TIME:   139.19 SEC, REAL TIME:   157.56 SEC
 SORT2 READ  3655606397. AND WROTE  4537853011. INTEGRALS IN  78000 RECORDS. CPU TIME:    15.16 SEC, REAL TIME:    95.02 SEC

 Node minimum:  1134427528.  Node maximum:  1134498978. integrals

 OPERATOR DM      FOR CENTER  0  COORDINATES:    0.000000    0.000000    0.000000


 **********************************************************************************************************************************
 DATASETS  * FILE   NREC   LENGTH (MB)   RECORD NAMES
              1      18       37.06       500      610      700      900      950      970     1000      129      960     1100   
                                          VAR    BASINP    GEOM    SYMINP    ZMAT    AOBASIS   BASIS     P2S    ABASIS      S 
                                         1400     1410     1200     1210     1080     1600     1650     1700   
                                           T        V       H0       H01     AOSYM     SMH    MOLCAS    OPER   

 PROGRAMS   *        TOTAL       INT
 CPU TIMES  *       219.92    219.70
 REAL TIME  *       331.46 SEC
 DISK USED  *        37.58 MB (local),       64.84 GB (total)
 GA USED    *         0.00 MB       (max)       0.00 MB       (current)
 **********************************************************************************************************************************


 PROGRAM * RHF-SCF (CLOSED SHELL)       Authors: W. Meyer, H.-J. Werner


 NUMBER OF ELECTRONS:      10+   10-    SPACE SYMMETRY=1    SPIN SYMMETRY: Singlet 
 CONVERGENCE THRESHOLDS:    1.00E-08 (Density)    1.00E-11 (Energy)
 MAX. NUMBER OF ITERATIONS:       60
 INTERPOLATION TYPE:            DIIS
 INTERPOLATION STEPS:              2 (START)      1 (STEP)
 LEVEL SHIFTS:                  0.00 (CLOSED)  0.00 (OPEN) 



 Orbital guess generated from atomic densities. Full valence occupancy:   16

 Molecular orbital dump at record        2100.2

 Initial occupancy:  10

 ITERATION    DDIFF          GRAD             ENERGY        2-EL.EN.            DIPOLE MOMENTS         DIIS   ORB.
    1      0.000D+00      0.000D+00      -116.21991037    157.573478    0.25817    0.65629    0.91830    0    start
    2      0.000D+00      0.379D-02      -116.26396680    152.521035    0.12488    0.33167    0.54643    1    diag
    3      0.273D-02      0.224D-02      -116.27777281    154.614902    0.15715    0.41275    0.64324    2    diag
    4      0.949D-03      0.331D-03      -116.27843239    154.501543    0.15379    0.40498    0.63542    3    diag
    5      0.202D-03      0.974D-04      -116.27850224    154.496224    0.15307    0.40388    0.63569    4    diag
    6      0.829D-04      0.237D-04      -116.27850619    154.501864    0.15272    0.40314    0.63522    5    diag
    7      0.225D-04      0.483D-05      -116.27850643    154.500218    0.15268    0.40308    0.63527    6    diag
    8      0.673D-05      0.125D-05      -116.27850645    154.500392    0.15265    0.40301    0.63524    7    diag
    9      0.146D-05      0.287D-06      -116.27850645    154.500365    0.15264    0.40299    0.63522    8    diag
   10      0.419D-06      0.334D-07      -116.27850645    154.500366    0.15264    0.40299    0.63522    9    orth
   11      0.434D-07      0.782D-08      -116.27850645    154.500368    0.15264    0.40299    0.63522    9    diag
   12      0.919D-08      0.199D-08      -116.27850645    154.500367    0.15264    0.40299    0.63522    0    orth

 Final occupancy:  10

 !RHF STATE  1.1 Energy              -116.278506452454
 Nuclear energy                        35.91495842
 One-electron energy                 -229.44364857
 Two-electron energy                   77.25018370
 Virial quotient                       -1.00083939
 !RHF STATE  1.1 Dipole moment          0.15263764     0.40298863     0.63521893
 Dipole moment /Debye                   0.38794079     1.02422785     1.61445972

 Orbital energies:

         1.1          2.1          3.1          4.1          5.1          6.1          7.1          8.1          9.1         10.1
    -20.568701   -11.190924    -1.339937    -0.945588    -0.705070    -0.579161    -0.547208    -0.544300    -0.542520    -0.508231

        11.1         12.1
      0.023985     0.035722


 HOMO     10.1    -0.508231 =     -13.8297eV
 LUMO     11.1     0.023985 =       0.6527eV
 LUMO-HOMO         0.532216 =      14.4823eV


 **********************************************************************************************************************************
 DATASETS  * FILE   NREC   LENGTH (MB)   RECORD NAMES
              1      18       37.06       500      610      700      900      950      970     1000      129      960     1100   
                                          VAR    BASINP    GEOM    SYMINP    ZMAT    AOBASIS   BASIS     P2S    ABASIS      S 
                                         1400     1410     1200     1210     1080     1600     1650     1700   
                                           T        V       H0       H01     AOSYM     SMH    MOLCAS    OPER   

              2       4        6.75       700     1000      520     2100   
                                         GEOM     BASIS   MCVARS     RHF  

 PROGRAMS   *        TOTAL    HF-SCF       INT
 CPU TIMES  *       433.27    213.34    219.70
 REAL TIME  *       578.24 SEC
 DISK USED  *        57.63 MB (local),       64.92 GB (total)
 SF USED    *         0.76 MB
 GA USED    *         0.00 MB       (max)       0.00 MB       (current)
 **********************************************************************************************************************************

 Basis set:  JKFIT                   
 Basis size:   740
 Attributes:
 Sphericals:   T
 Basis set:  MP2FIT                  
 Basis size:   816
 Attributes:
 Sphericals:   T
 Basis set:  RI                      
 Basis size:   556
 Attributes:
 Sphericals:   T
 Basis set:  TDDFT                   
 Basis size:   816
 Attributes:
 Sphericals:   T

 PROGRAM * CCSD (Closed-shell coupled cluster)     Authors: C. Hampel, H.-J. Werner, 1991, M. Deegan, P.J. Knowles, 1992


 Convergence thresholds:  THRVAR = 1.00D-08  THRDEN = 1.00D-10

 CCSD(T)     terms to be evaluated (factor= 1.000)


 Number of core orbitals:           2 (   2 )
 Number of closed-shell orbitals:   8 (   8 )
 Number of external orbitals:     426 ( 426 )

 Molecular orbitals read from record     2100.2  Type=RHF/CANONICAL (state 1.1)

 Number of N-1 electron functions:               8
 Number of N-2 electron functions:              36
 Number of singly external CSFs:              3408
 Number of doubly external CSFs:           5808936
 Total number of CSFs:                     5812345

 Length of J-op  integral file:               0.00 MB
 Length of K-op  integral file:              13.08 MB
 Length of 3-ext integral record:             0.00 MB

 Memory could be reduced to 828.85 Mwords without degradation in triples

 Integral transformation finished. Total CPU: 316.76 sec, npass=  1  Memory used: 389.48 MW

 Reference energy:                   -116.27850645

 MP2 singlet pair energy:              -0.34093918
 MP2 triplet pair energy:              -0.15836101
 MP2 correlation energy:               -0.49930020
 MP2 total energy:                   -116.77780665

 SCS-MP2 correlation energy:           -0.50766276   (PS=  1.200000  PT=  0.333333)
 SCS-MP2 total energy:               -116.78616921

 ITER.      SQ.NORM     CORR.ENERGY   TOTAL ENERGY   ENERGY CHANGE        DEN1      VAR(S)    VAR(P)  DIIS     TIME  TIME/IT
   1      1.13585351    -0.51695332  -116.79545978    -0.01765313    -0.00614909  0.14D-02  0.20D-02  1  1   473.72   158.50
   2      1.14447109    -0.51830557  -116.79681202    -0.00135224    -0.01024578  0.27D-04  0.25D-03  2  2   632.39   159.83
   3      1.14769718    -0.51842977  -116.79693622    -0.00012420    -0.00226358  0.12D-04  0.13D-04  3  3   790.70   160.16
   4      1.14856220    -0.51843308  -116.79693953    -0.00000330    -0.00041004  0.60D-06  0.12D-05  4  4   947.93   160.06
   5      1.14871940    -0.51843278  -116.79693923     0.00000030    -0.00004621  0.20D-06  0.85D-07  5  5  1105.34   160.00
   6      1.14876836    -0.51842903  -116.79693548     0.00000375    -0.00001172  0.19D-07  0.61D-08  6  6  1261.57   159.80
   7      1.14877768    -0.51842805  -116.79693450     0.00000098    -0.00000144  0.15D-08  0.82D-09  6  2  1417.93   159.65
   8      1.14877966    -0.51842793  -116.79693438     0.00000012     0.00000007  0.26D-09  0.85D-10  6  1  1574.53   159.52
   9      1.14878050    -0.51842787  -116.79693432     0.00000006    -0.00000004  0.18D-10  0.12D-10  6  3  1730.96   159.41
  10      1.14878061    -0.51842787  -116.79693432     0.00000000     0.00000007  0.22D-11  0.15D-11  6  4  1887.60   159.34
  11      1.14878057    -0.51842787  -116.79693433    -0.00000000     0.00000006  0.39D-12  0.22D-12  6  5  2042.77   159.14
  12      1.14878055    -0.51842788  -116.79693433    -0.00000000     0.00000002  0.83D-13  0.27D-13  6  6  2197.95   158.99
  13      1.14878053    -0.51842788  -116.79693433    -0.00000000     0.00000001  0.15D-13  0.41D-14  6  2  2352.61   158.83
  14      1.14878052    -0.51842788  -116.79693433    -0.00000000     0.00000000  0.20D-14  0.94D-15  6  1  2507.04   158.67
  15      1.14878052    -0.51842788  -116.79693433    -0.00000000     0.00000000  0.21D-15  0.12D-15  6  3  2661.50   158.54
  16      1.14878052    -0.51842788  -116.79693433    -0.00000000    -0.00000000  0.22D-16  0.16D-16  6  4  2816.33   158.42
  17      1.14878052    -0.51842788  -116.79693433     0.00000000    -0.00000000  0.32D-17  0.23D-17  6  5  2971.05   158.33

 Norm of t1 vector:      0.05024089      S-energy:    -0.00000000      T1 diagnostic:  0.00888142
                                                                       D1 diagnostic:  0.02052098

   CPU time for triples:   2078.80 sec for i =  1 -  7 /  8 (~  68.8 % done)
   CPU time for triples:    828.29 sec for i =  8 -  8 /  8 (  100.0 % done)

 Total CPU time for triples:   2919.75 sec


 RESULTS
 =======

  Reference energy                   -116.278506452451
  CCSD singlet pair energy             -0.373640608484
  CCSD triplet pair energy             -0.144787269973
  CCSD correlation energy              -0.518427878681

  Triples (T) contribution             -0.016609055614
  Total correlation energy             -0.535036934295

  CCSD total energy                  -116.796934331132
  CCSD[T] energy                     -116.814081018036
  CCSD-T energy                      -116.813318489022
 !CCSD(T) total energy               -116.813543386746

 Timing summary (sec):

 STEP                 CPU(USER)    SYS     CPU(TOT)    WALL
 Transformation        317.95      9.17    327.12    329.81
 CCSD iterations      2653.20     31.80   2685.00   2691.80
 Triples              2919.75     20.17   2939.92   2943.79

 Program statistics:

 Available memory in ccsd:              1999999734
 Min. memory needed in ccsd:              17010489
 Max. memory used in ccsd:                22038113
 Max. memory used in cckext:              15155228 (17 integral passes)



 **********************************************************************************************************************************
 DATASETS  * FILE   NREC   LENGTH (MB)   RECORD NAMES
              1      19     2602.11       500      610      700      900      950      970     1000      129      960     1100   
                                          VAR    BASINP    GEOM    SYMINP    ZMAT    AOBASIS   BASIS     P2S    ABASIS      S 
                                         1400     1410     1200     1210     1080     1600     1650     1700     1380   
                                           T        V       H0       H01     AOSYM     SMH    MOLCAS    OPER     JKOP   

              2       4        6.75       700     1000      520     2100   
                                         GEOM     BASIS   MCVARS     RHF  

 PROGRAMS   *        TOTAL   CCSD(T)    HF-SCF       INT
 CPU TIMES  *      6324.39   5891.12    213.34    219.70
 REAL TIME  *      6544.56 SEC
 DISK USED  *         3.24 GB (local),       75.76 GB (total)
 SF USED    *         3.08 GB
 GA USED    *         0.00 MB       (max)       0.00 MB       (current)
 **********************************************************************************************************************************

 Running procedure: SET_MONOMER1

 Dummy atoms: C1  H41  H42  H43  H44


 Recomputing one-electron integrals since nuclear charges changed


 PROGRAM * SEWARD (Integral evaluation for generally contracted gaussian basis sets)     Author: Roland Lindh, 1990

 Geometry written to block  1 of record 700


 Point group  C1  



 ATOMIC COORDINATES

 NR  ATOM    CHARGE       X              Y              Z

   1  O13     8.00   -7.660382791    0.177823228    9.189360199
   2  H25     1.00   -6.870288298    1.893127632    9.251154243
   3  H26     1.00   -7.962738971   -0.267018301   10.932821521
   4  C1      0.00   -6.193010455    2.801518980    2.403542658
   5  H41     0.00   -4.656285171    1.699997622    3.119937832
   6  H42     0.00   -5.973046335    4.726205038    2.982932688
   7  H43     0.00   -7.940251230    2.077186956    3.118237078
   8  H44     0.00   -6.176569838    2.685300823    0.384937212

 Bond lengths in Bohr (Angstrom)

 1-2  1.889533542  1-3  1.824543951  4-5  2.021904040  4-6  2.022002335  4-7  2.021953343
     ( 0.999898090)     ( 0.965507079)     ( 1.069945541)     ( 1.069997556)     ( 1.069971630)

 4-8  2.022015060
     ( 1.070004290)

 Bond angles

  2-1-3  105.03277623   5-4-6  109.53398059   5-4-7  109.65604535   5-4-8  108.43490854

  6-4-7  109.49436728   6-4-8  109.86987750   7-4-8  109.83468330

 NUCLEAR CHARGE:                   10
 NUMBER OF PRIMITIVE AOS:         578
 NUMBER OF SYMMETRY AOS:          474
 NUMBER OF CONTRACTIONS:          436   (  436A   )
 NUMBER OF CORE ORBITALS:           1   (    1A   )
 NUMBER OF VALENCE ORBITALS:        6   (    6A   )

 MOLECULE CHANGED: INITIALIZING OCCUPATION AND DUMP RECORDS


 NUCLEAR REPULSION ENERGY    8.95777847

 Basis set:  JKFIT                   
 Basis size:   740
 Attributes:
 Sphericals:   T
 Basis set:  MP2FIT                  
 Basis size:   816
 Attributes:
 Sphericals:   T
 Basis set:  RI                      
 Basis size:   556
 Attributes:
 Sphericals:   T
 Basis set:  TDDFT                   
 Basis size:   816
 Attributes:
 Sphericals:   T

 Eigenvalues of metric

         1 0.152E-04 0.219E-04 0.349E-04 0.379E-04 0.621E-04 0.864E-04 0.963E-04 0.991E-04


 Contracted 2-electron integrals neglected if value below      1.0D-14

 OPERATOR DM      FOR CENTER  0  COORDINATES:    0.000000    0.000000    0.000000


 **********************************************************************************************************************************
 DATASETS  * FILE   NREC   LENGTH (MB)   RECORD NAMES
              1      18       37.06       500      610      700      900      950      970     1000      129      960     1100   
                                          VAR    BASINP    GEOM    SYMINP    ZMAT    AOBASIS   BASIS     P2S    ABASIS      S 
                                         1400     1410     1200     1210     1080     1600     1650     1700   
                                           T        V       H0       H01     AOSYM     SMH    MOLCAS    OPER   

              2       5       10.59       700     1000      520     2100      200   
                                         GEOM     BASIS   MCVARS     RHF    OPTIONS    

 PROGRAMS   *        TOTAL       INT   CCSD(T)    HF-SCF       INT
 CPU TIMES  *      6324.77      0.37   5891.12    213.34    219.70
 REAL TIME  *      6545.85 SEC
 DISK USED  *         3.24 GB (local),       75.77 GB (total)
 SF USED    *         3.08 GB
 GA USED    *         0.00 MB       (max)       0.00 MB       (current)
 **********************************************************************************************************************************


 PROGRAM * RHF-SCF (CLOSED SHELL)       Authors: W. Meyer, H.-J. Werner


 NUMBER OF ELECTRONS:       5+    5-    SPACE SYMMETRY=1    SPIN SYMMETRY: Singlet 
 CONVERGENCE THRESHOLDS:    1.00E-08 (Density)    1.00E-11 (Energy)
 MAX. NUMBER OF ITERATIONS:       60
 INTERPOLATION TYPE:            DIIS
 INTERPOLATION STEPS:              2 (START)      1 (STEP)
 LEVEL SHIFTS:                  0.00 (CLOSED)  0.00 (OPEN) 



 Orbital guess generated from atomic densities. Full valence occupancy:    7

 Molecular orbital dump at record        2101.2

 Initial occupancy:   5

 ITERATION    DDIFF          GRAD             ENERGY        2-EL.EN.            DIPOLE MOMENTS         DIIS   ORB.
    1      0.000D+00      0.000D+00       -76.02371796     77.353677    0.25442    0.65997    0.91910    0    start
    2      0.000D+00      0.467D-02       -76.05055720     73.679190    0.14297    0.37326    0.53690    1    diag
    3      0.222D-02      0.299D-02       -76.06229819     75.313472    0.16998    0.44325    0.63370    2    diag
    4      0.844D-03      0.280D-03       -76.06249652     75.221944    0.16807    0.43878    0.63081    3    diag
    5      0.106D-03      0.792D-04       -76.06251854     75.236494    0.16732    0.43703    0.62979    4    diag
    6      0.340D-04      0.160D-04       -76.06252000     75.235411    0.16712    0.43656    0.62961    5    diag
    7      0.886D-05      0.327D-05       -76.06252008     75.235558    0.16706    0.43643    0.62955    6    diag
    8      0.242D-05      0.606D-06       -76.06252008     75.235542    0.16704    0.43640    0.62952    7    diag
    9      0.439D-06      0.825D-07       -76.06252008     75.235533    0.16704    0.43639    0.62951    8    diag
   10      0.505D-07      0.197D-07       -76.06252008     75.235535    0.16704    0.43639    0.62951    9    orth
   11      0.123D-07      0.457D-08       -76.06252008     75.235535    0.16704    0.43639    0.62951    9    diag
   12      0.311D-08      0.897D-09       -76.06252008     75.235535    0.16704    0.43639    0.62951    0    orth

 Final occupancy:   5

 !RHF STATE  1.1 Energy               -76.062520080854
 Nuclear energy                         8.95777847
 One-electron energy                 -122.63806614
 Two-electron energy                   37.61776759
 Virial quotient                       -1.00216007
 !RHF STATE  1.1 Dipole moment          0.16704154     0.43639302     0.62951383
 Dipole moment /Debye                   0.42454945     1.10912777     1.59995975

 Orbital energies:

         1.1          2.1          3.1          4.1          5.1          6.1          7.1
    -20.568824    -1.340005    -0.705128    -0.578990    -0.508318     0.020622     0.032657


 HOMO      5.1    -0.508318 =     -13.8320eV
 LUMO      6.1     0.020622 =       0.5612eV
 LUMO-HOMO         0.528941 =      14.3932eV


 **********************************************************************************************************************************
 DATASETS  * FILE   NREC   LENGTH (MB)   RECORD NAMES
              1      18       37.06       500      610      700      900      950      970     1000      129      960     1100   
                                          VAR    BASINP    GEOM    SYMINP    ZMAT    AOBASIS   BASIS     P2S    ABASIS      S 
                                         1400     1410     1200     1210     1080     1600     1650     1700   
                                           T        V       H0       H01     AOSYM     SMH    MOLCAS    OPER   

              2       6       17.39       700     1000      520     2100      200     2101   
                                         GEOM     BASIS   MCVARS     RHF    OPTIONS    RHF  

 PROGRAMS   *        TOTAL    HF-SCF       INT   CCSD(T)    HF-SCF       INT
 CPU TIMES  *      6519.21    194.44      0.37   5891.12    213.34    219.70
 REAL TIME  *      6756.44 SEC
 DISK USED  *         3.24 GB (local),       75.77 GB (total)
 SF USED    *         3.08 GB
 GA USED    *         0.00 MB       (max)       0.00 MB       (current)
 **********************************************************************************************************************************

 Basis set:  JKFIT                   
 Basis size:   740
 Attributes:
 Sphericals:   T
 Basis set:  MP2FIT                  
 Basis size:   816
 Attributes:
 Sphericals:   T
 Basis set:  RI                      
 Basis size:   556
 Attributes:
 Sphericals:   T
 Basis set:  TDDFT                   
 Basis size:   816
 Attributes:
 Sphericals:   T

 PROGRAM * CCSD (Closed-shell coupled cluster)     Authors: C. Hampel, H.-J. Werner, 1991, M. Deegan, P.J. Knowles, 1992


 Convergence thresholds:  THRVAR = 1.00D-08  THRDEN = 1.00D-10

 CCSD(T)     terms to be evaluated (factor= 1.000)


 Number of core orbitals:           1 (   1 )
 Number of closed-shell orbitals:   4 (   4 )
 Number of external orbitals:     431 ( 431 )

 Molecular orbitals read from record     2101.2  Type=RHF/CANONICAL (state 1.1)

 Number of N-1 electron functions:               4
 Number of N-2 electron functions:              10
 Number of singly external CSFs:              1724
 Number of doubly external CSFs:           1486950
 Total number of CSFs:                     1488675

 Length of J-op  integral file:               0.00 MB
 Length of K-op  integral file:              13.08 MB
 Length of 3-ext integral record:             0.00 MB

 Memory could be reduced to 526.20 Mwords without degradation in triples

 Integral transformation finished. Total CPU: 155.10 sec, npass=  1  Memory used: 214.76 MW

 Reference energy:                    -76.06252008

 MP2 singlet pair energy:              -0.18637976
 MP2 triplet pair energy:              -0.10147880
 MP2 correlation energy:               -0.28785855
 MP2 total energy:                    -76.35037863

 SCS-MP2 correlation energy:           -0.28679807   (PS=  1.200000  PT=  0.333333)
 SCS-MP2 total energy:                -76.34931815

 ITER.      SQ.NORM     CORR.ENERGY   TOTAL ENERGY   ENERGY CHANGE        DEN1      VAR(S)    VAR(P)  DIIS     TIME  TIME/IT
   1      1.06468344    -0.28957654   -76.35209662    -0.00171799     0.00419493  0.86D-03  0.11D-02  1  1   200.28    46.28
   2      1.06837290    -0.28983479   -76.35235487    -0.00025824    -0.00495055  0.14D-04  0.12D-03  2  2   245.82    46.57
   3      1.06985514    -0.28991627   -76.35243635    -0.00008148    -0.00103068  0.90D-05  0.64D-05  3  3   291.44    46.77
   4      1.07033810    -0.28991575   -76.35243583     0.00000052    -0.00022415  0.48D-06  0.75D-06  4  4   336.94    46.86
   5      1.07044201    -0.28991347   -76.35243355     0.00000227    -0.00003198  0.16D-06  0.49D-07  5  5   382.22    46.84
   6      1.07047973    -0.28991031   -76.35243039     0.00000316    -0.00000865  0.15D-07  0.35D-08  6  6   427.94    46.89
   7      1.07048677    -0.28990996   -76.35243004     0.00000035    -0.00000052  0.10D-08  0.56D-09  6  1   473.27    46.86
   8      1.07048808    -0.28990991   -76.35242999     0.00000005     0.00000023  0.16D-09  0.63D-10  6  2   518.69    46.88
   9      1.07048870    -0.28990986   -76.35242994     0.00000005    -0.00000001  0.11D-10  0.64D-11  6  3   564.40    46.92
  10      1.07048878    -0.28990985   -76.35242993     0.00000000     0.00000003  0.19D-11  0.83D-12  6  4   609.83    46.91
  11      1.07048877    -0.28990985   -76.35242993    -0.00000000     0.00000002  0.41D-12  0.14D-12  6  5   655.47    46.93
  12      1.07048876    -0.28990985   -76.35242994    -0.00000000     0.00000001  0.78D-13  0.20D-13  6  6   701.14    46.95
  13      1.07048875    -0.28990986   -76.35242994    -0.00000000     0.00000000  0.11D-13  0.35D-14  6  1   746.57    46.96
  14      1.07048874    -0.28990986   -76.35242994    -0.00000000     0.00000000  0.11D-14  0.72D-15  6  2   792.27    46.98
  15      1.07048874    -0.28990986   -76.35242994    -0.00000000     0.00000000  0.12D-15  0.88D-16  6  3   837.44    46.95
  16      1.07048874    -0.28990986   -76.35242994    -0.00000000     0.00000000  0.15D-16  0.12D-16  6  4   882.89    46.95

 Norm of t1 vector:      0.03885643      S-energy:    -0.00000000      T1 diagnostic:  0.00971411
                                                                       D1 diagnostic:  0.02030453


 Total CPU time for triples:    432.97 sec


 RESULTS
 =======

  Reference energy                    -76.062520080853
  CCSD singlet pair energy             -0.200240421209
  CCSD triplet pair energy             -0.089669435542
  CCSD correlation energy              -0.289909856801

  Triples (T) contribution             -0.009637126577
  Total correlation energy             -0.299546983378

  CCSD total energy                   -76.352429937655
  CCSD[T] energy                      -76.362388715747
  CCSD-T energy                       -76.361911395321
 !CCSD(T) total energy                -76.362067064231

 Timing summary (sec):

 STEP                 CPU(USER)    SYS     CPU(TOT)    WALL
 Transformation        155.44      5.07    160.51    161.00
 CCSD iterations       727.52     22.51    750.03    751.35
 Triples               432.97      2.87    435.84    436.45

 Program statistics:

 Available memory in ccsd:              1999999921
 Min. memory needed in ccsd:               6768234
 Max. memory used in ccsd:                 7865440
 Max. memory used in cckext:               5182436 (16 integral passes)



 **********************************************************************************************************************************
 DATASETS  * FILE   NREC   LENGTH (MB)   RECORD NAMES
              1      19     1346.95       500      610      700      900      950      970     1000      129      960     1100   
                                          VAR    BASINP    GEOM    SYMINP    ZMAT    AOBASIS   BASIS     P2S    ABASIS      S 
                                         1400     1410     1200     1210     1080     1600     1650     1700     1380   
                                           T        V       H0       H01     AOSYM     SMH    MOLCAS    OPER     JKOP   

              2       6       17.39       700     1000      520     2100      200     2101   
                                         GEOM     BASIS   MCVARS     RHF    OPTIONS    RHF  

 PROGRAMS   *        TOTAL   CCSD(T)    HF-SCF       INT   CCSD(T)    HF-SCF       INT
 CPU TIMES  *      7835.37   1316.16    194.44      0.37   5891.12    213.34    219.70
 REAL TIME  *      8106.13 SEC
 DISK USED  *         3.24 GB (local),       75.77 GB (total)
 SF USED    *         3.08 GB
 GA USED    *         0.00 MB       (max)       0.00 MB       (current)
 **********************************************************************************************************************************

 Running procedure: SET_MONOMER2

 Dummy atoms: O13  H25  H26


 Recomputing one-electron integrals since nuclear charges changed


 PROGRAM * SEWARD (Integral evaluation for generally contracted gaussian basis sets)     Author: Roland Lindh, 1990

 Geometry written to block  1 of record 700


 Point group  C1  



 ATOMIC COORDINATES

 NR  ATOM    CHARGE       X              Y              Z

   1  O13     0.00   -7.660382791    0.177823228    9.189360199
   2  H25     0.00   -6.870288298    1.893127632    9.251154243
   3  H26     0.00   -7.962738971   -0.267018301   10.932821521
   4  C1      6.00   -6.193010455    2.801518980    2.403542658
   5  H41     1.00   -4.656285171    1.699997622    3.119937832
   6  H42     1.00   -5.973046335    4.726205038    2.982932688
   7  H43     1.00   -7.940251230    2.077186956    3.118237078
   8  H44     1.00   -6.176569838    2.685300823    0.384937212

 Bond lengths in Bohr (Angstrom)

 1-2  1.889533542  1-3  1.824543951  4-5  2.021904040  4-6  2.022002335  4-7  2.021953343
     ( 0.999898090)     ( 0.965507079)     ( 1.069945541)     ( 1.069997556)     ( 1.069971630)

 4-8  2.022015060
     ( 1.070004290)

 Bond angles

  2-1-3  105.03277623   5-4-6  109.53398059   5-4-7  109.65604535   5-4-8  108.43490854

  6-4-7  109.49436728   6-4-8  109.86987750   7-4-8  109.83468330

 NUCLEAR CHARGE:                   10
 NUMBER OF PRIMITIVE AOS:         578
 NUMBER OF SYMMETRY AOS:          474
 NUMBER OF CONTRACTIONS:          436   (  436A   )
 NUMBER OF CORE ORBITALS:           1   (    1A   )
 NUMBER OF VALENCE ORBITALS:        8   (    8A   )

 MOLECULE CHANGED: INITIALIZING OCCUPATION AND DUMP RECORDS


 NUCLEAR REPULSION ENERGY   13.68681606

 Basis set:  JKFIT                   
 Basis size:   740
 Attributes:
 Sphericals:   T
 Basis set:  MP2FIT                  
 Basis size:   816
 Attributes:
 Sphericals:   T
 Basis set:  RI                      
 Basis size:   556
 Attributes:
 Sphericals:   T
 Basis set:  TDDFT                   
 Basis size:   816
 Attributes:
 Sphericals:   T

 Eigenvalues of metric

         1 0.152E-04 0.219E-04 0.349E-04 0.379E-04 0.621E-04 0.864E-04 0.963E-04 0.991E-04


 Contracted 2-electron integrals neglected if value below      1.0D-14

 OPERATOR DM      FOR CENTER  0  COORDINATES:    0.000000    0.000000    0.000000


 **********************************************************************************************************************************
 DATASETS  * FILE   NREC   LENGTH (MB)   RECORD NAMES
              1      18       37.06       500      610      700      900      950      970     1000      129      960     1100   
                                          VAR    BASINP    GEOM    SYMINP    ZMAT    AOBASIS   BASIS     P2S    ABASIS      S 
                                         1400     1410     1200     1210     1080     1600     1650     1700   
                                           T        V       H0       H01     AOSYM     SMH    MOLCAS    OPER   

              2       6       17.39       700     1000      520     2100      200     2101   
                                         GEOM     BASIS   MCVARS     RHF    OPTIONS    RHF  

 PROGRAMS   *        TOTAL       INT   CCSD(T)    HF-SCF       INT   CCSD(T)    HF-SCF       INT
 CPU TIMES  *      7835.76      0.38   1316.16    194.44      0.37   5891.12    213.34    219.70
 REAL TIME  *      8107.18 SEC
 DISK USED  *         3.24 GB (local),       75.77 GB (total)
 SF USED    *         3.08 GB
 GA USED    *         0.00 MB       (max)       0.00 MB       (current)
 **********************************************************************************************************************************


 PROGRAM * RHF-SCF (CLOSED SHELL)       Authors: W. Meyer, H.-J. Werner


 NUMBER OF ELECTRONS:       5+    5-    SPACE SYMMETRY=1    SPIN SYMMETRY: Singlet 
 CONVERGENCE THRESHOLDS:    1.00E-08 (Density)    1.00E-11 (Energy)
 MAX. NUMBER OF ITERATIONS:       60
 INTERPOLATION TYPE:            DIIS
 INTERPOLATION STEPS:              2 (START)      1 (STEP)
 LEVEL SHIFTS:                  0.00 (CLOSED)  0.00 (OPEN) 



 Orbital guess generated from atomic densities. Full valence occupancy:    9

 Molecular orbital dump at record        2102.2

 Initial occupancy:   5

 ITERATION    DDIFF          GRAD             ENERGY        2-EL.EN.            DIPOLE MOMENTS         DIIS   ORB.
    1      0.000D+00      0.000D+00       -40.19609590     53.506289    0.00410   -0.00276   -0.00131    0    start
    2      0.000D+00      0.257D-02       -40.21335004     52.217618    0.00129   -0.00087   -0.00038    1    diag
    3      0.159D-02      0.998D-03       -40.21562598     52.672078    0.00182   -0.00123   -0.00055    2    diag
    4      0.445D-03      0.249D-03       -40.21594543     52.617265    0.00162   -0.00110   -0.00048    3    diag
    5      0.165D-03      0.322D-04       -40.21595092     52.619413    0.00159   -0.00108   -0.00047    4    diag
    6      0.416D-04      0.264D-05       -40.21595097     52.619549    0.00159   -0.00108   -0.00047    5    diag
    7      0.567D-05      0.212D-06       -40.21595097     52.619510    0.00159   -0.00108   -0.00047    6    diag
    8      0.210D-06      0.170D-07       -40.21595097     52.619511    0.00159   -0.00108   -0.00047    7    diag
    9      0.827D-07      0.217D-08       -40.21595097     52.619511    0.00159   -0.00108   -0.00047    8    diag
   10      0.851D-08      0.595D-09       -40.21595097     52.619511    0.00159   -0.00108   -0.00047    0    orth

 Final occupancy:   5

 !RHF STATE  1.1 Energy               -40.215950967143
 Nuclear energy                        13.68681606
 One-electron energy                  -80.21252269
 Two-electron energy                   26.30975567
 Virial quotient                       -0.99838110
 !RHF STATE  1.1 Dipole moment          0.00158818    -0.00107821    -0.00046994
 Dipole moment /Debye                   0.00403648    -0.00274035    -0.00119438

 Orbital energies:

         1.1          2.1          3.1          4.1          5.1          6.1          7.1
    -11.196224    -0.950661    -0.551889    -0.549954    -0.547776     0.023763     0.035552


 HOMO      5.1    -0.547776 =     -14.9058eV
 LUMO      6.1     0.023763 =       0.6466eV
 LUMO-HOMO         0.571540 =      15.5524eV


 **********************************************************************************************************************************
 DATASETS  * FILE   NREC   LENGTH (MB)   RECORD NAMES
              1      18       37.06       500      610      700      900      950      970     1000      129      960     1100   
                                          VAR    BASINP    GEOM    SYMINP    ZMAT    AOBASIS   BASIS     P2S    ABASIS      S 
                                         1400     1410     1200     1210     1080     1600     1650     1700   
                                           T        V       H0       H01     AOSYM     SMH    MOLCAS    OPER   

              2       7       27.51       700     1000      520     2100      200     2101     2102   
                                         GEOM     BASIS   MCVARS     RHF    OPTIONS    RHF      RHF  

 PROGRAMS   *        TOTAL    HF-SCF       INT   CCSD(T)    HF-SCF       INT   CCSD(T)    HF-SCF       INT
 CPU TIMES  *      7999.32    163.55      0.38   1316.16    194.44      0.37   5891.12    213.34    219.70
 REAL TIME  *      8285.18 SEC
 DISK USED  *         3.24 GB (local),       75.77 GB (total)
 SF USED    *         3.08 GB
 GA USED    *         0.00 MB       (max)       0.00 MB       (current)
 **********************************************************************************************************************************

 Basis set:  JKFIT                   
 Basis size:   740
 Attributes:
 Sphericals:   T
 Basis set:  MP2FIT                  
 Basis size:   816
 Attributes:
 Sphericals:   T
 Basis set:  RI                      
 Basis size:   556
 Attributes:
 Sphericals:   T
 Basis set:  TDDFT                   
 Basis size:   816
 Attributes:
 Sphericals:   T

 PROGRAM * CCSD (Closed-shell coupled cluster)     Authors: C. Hampel, H.-J. Werner, 1991, M. Deegan, P.J. Knowles, 1992


 Convergence thresholds:  THRVAR = 1.00D-08  THRDEN = 1.00D-10

 CCSD(T)     terms to be evaluated (factor= 1.000)


 Number of core orbitals:           1 (   1 )
 Number of closed-shell orbitals:   4 (   4 )
 Number of external orbitals:     431 ( 431 )

 Molecular orbitals read from record     2102.2  Type=RHF/CANONICAL (state 1.1)

 Number of N-1 electron functions:               4
 Number of N-2 electron functions:              10
 Number of singly external CSFs:              1724
 Number of doubly external CSFs:           1486950
 Total number of CSFs:                     1488675

 Length of J-op  integral file:               0.00 MB
 Length of K-op  integral file:              13.08 MB
 Length of 3-ext integral record:             0.00 MB

 Memory could be reduced to 526.20 Mwords without degradation in triples

 Integral transformation finished. Total CPU: 155.03 sec, npass=  1  Memory used: 214.76 MW

 Reference energy:                    -40.21595097

 MP2 singlet pair energy:              -0.15442379
 MP2 triplet pair energy:              -0.05646254
 MP2 correlation energy:               -0.21088633
 MP2 total energy:                    -40.42683729

 SCS-MP2 correlation energy:           -0.22044079   (PS=  1.200000  PT=  0.333333)
 SCS-MP2 total energy:                -40.43639176

 ITER.      SQ.NORM     CORR.ENERGY   TOTAL ENERGY   ENERGY CHANGE        DEN1      VAR(S)    VAR(P)  DIIS     TIME  TIME/IT
   1      1.07097425    -0.22687408   -40.44282505    -0.01598775    -0.01040073  0.54D-03  0.97D-03  1  1   200.00    45.83
   2      1.07611949    -0.22797412   -40.44392509    -0.00110004    -0.00547175  0.14D-04  0.91D-04  2  2   245.11    46.24
   3      1.07764047    -0.22801336   -40.44396432    -0.00003924    -0.00107292  0.18D-05  0.58D-05  3  3   290.55    46.47
   4      1.07800015    -0.22801905   -40.44397002    -0.00000569    -0.00017104  0.12D-06  0.28D-06  4  4   336.23    46.60
   5      1.07804816    -0.22802094   -40.44397191    -0.00000189    -0.00001301  0.10D-07  0.20D-07  5  5   381.55    46.63
   6      1.07805639    -0.22801971   -40.44397068     0.00000123    -0.00000329  0.62D-09  0.14D-08  6  6   427.22    46.71
   7      1.07805741    -0.22801943   -40.44397040     0.00000028    -0.00000054  0.45D-10  0.11D-09  6  1   472.47    46.69
   8      1.07805735    -0.22801948   -40.44397045    -0.00000005     0.00000023  0.44D-11  0.59D-11  6  3   517.82    46.70
   9      1.07805747    -0.22801947   -40.44397043     0.00000002    -0.00000008  0.36D-12  0.49D-12  6  2   563.29    46.72
  10      1.07805748    -0.22801946   -40.44397043     0.00000000     0.00000000  0.44D-13  0.53D-13  6  4   608.52    46.72
  11      1.07805748    -0.22801946   -40.44397043     0.00000000     0.00000000  0.41D-14  0.54D-14  6  5   653.92    46.75
  12      1.07805748    -0.22801946   -40.44397043     0.00000000     0.00000000  0.90D-16  0.58D-15  6  6   699.06    46.74
  13      1.07805748    -0.22801946   -40.44397043    -0.00000000     0.00000000  0.70D-17  0.58D-16  6  1   744.43    46.74
  14      1.07805748    -0.22801946   -40.44397043    -0.00000000     0.00000000  0.11D-17  0.78D-17  6  3   789.87    46.75

 Norm of t1 vector:      0.03128166      S-energy:    -0.00000000      T1 diagnostic:  0.00782041
                                                                       D1 diagnostic:  0.01257124

 Total CPU time for triples:    431.38 sec


 RESULTS
 =======

  Reference energy                    -40.215950967144
  CCSD singlet pair energy             -0.173325061190
  CCSD triplet pair energy             -0.054694401133
  CCSD correlation energy              -0.228019462327

  Triples (T) contribution             -0.006881633553
  Total correlation energy             -0.234901095881

  CCSD total energy                   -40.443970429472
  CCSD[T] energy                      -40.451065209186
  CCSD-T energy                       -40.450784454883
 !CCSD(T) total energy                -40.450852063025

 Timing summary (sec):

 STEP                 CPU(USER)    SYS     CPU(TOT)    WALL
 Transformation        155.39      4.30    159.69    160.08
 CCSD iterations       634.56     19.15    653.71    654.67
 Triples               431.38      2.80    434.18    434.75

 Program statistics:

 Available memory in ccsd:              1999999916
 Min. memory needed in ccsd:               6768234
 Max. memory used in ccsd:                 7865440
 Max. memory used in cckext:               5182436 (14 integral passes)



 **********************************************************************************************************************************
 DATASETS  * FILE   NREC   LENGTH (MB)   RECORD NAMES
              1      19     1346.95       500      610      700      900      950      970     1000      129      960     1100   
                                          VAR    BASINP    GEOM    SYMINP    ZMAT    AOBASIS   BASIS     P2S    ABASIS      S 
                                         1400     1410     1200     1210     1080     1600     1650     1700     1380   
                                           T        V       H0       H01     AOSYM     SMH    MOLCAS    OPER     JKOP   

              2       7       27.51       700     1000      520     2100      200     2101     2102   
                                         GEOM     BASIS   MCVARS     RHF    OPTIONS    RHF      RHF  

 PROGRAMS   *        TOTAL   CCSD(T)    HF-SCF       INT   CCSD(T)    HF-SCF       INT   CCSD(T)    HF-SCF       INT
 CPU TIMES  *      9220.89   1221.57    163.55      0.38   1316.16    194.44      0.37   5891.12    213.34    219.70
 REAL TIME  *      9535.56 SEC
 DISK USED  *         3.24 GB (local),       75.77 GB (total)
 SF USED    *         3.08 GB
 GA USED    *         0.00 MB       (max)       0.00 MB       (current)
 **********************************************************************************************************************************
 Molecular orbitals read from record     2102.2  Type=RHF/CANONICAL (state 1.1)
 Occupation numbers read from record     2102.2  Type=RHF/RHF (state 1.1)
 Orbital energies read from record       2102.2  Type=RHF/CANONICAL (state 1.1)
 Redundancy group numbers read from rec  2102.2  Type=RHF/RHF (state 1.1)

 CCSD(T)/aug-cc-pVQZ energy=    -40.450852063025

         CCSD(T)          HF-SCF         CCSD(T)          HF-SCF         CCSD(T)          HF-SCF
    -40.45085206    -40.21595097    -76.36206706    -76.06252008   -116.81354339   -116.27850645
 **********************************************************************************************************************************
 Molpro calculation terminated
