
 Primary working directories    : /scratch/klimes/383117/molpro.0SjxZ5aEvs
 Secondary working directories  : /scratch/klimes/383117/molpro.0SjxZ5aEvs
 Wavefunction directory         : /scratch/klimes/383117/
 Main file repository           : /scratch/klimes/383117/molpro.0SjxZ5aEvs/

 id        : karlovklimes

 Nodes                      nprocs
 nc-05.cc.karlov.mff.cuni.cz    4

 Using customized tuning parameters: mindgm=1; mindgv=20; mindgc=4; mindgr=1; noblas=0; minvec=7
 default implementation of scratch files=sf  


 Variables initialized (930), CPU time= 0.01 sec
                                                                                 !gdirect
 memory,2000,m
 gthresh,orbital=1d-10,energy=1d-10,grid=1d-8
 
 symmetry,nosym
 angstrom
 geometry={
 O14        -4.369600000000      4.555200000000     -0.937800000000
 H27        -4.635300000000      5.332600000000     -1.445500000000
 H28        -5.213600000000      4.102600000000     -0.695700000000
 C1        -3.277200000000      1.482500000000      1.271900000000
 H41        -2.464000000000      0.899600000000      1.651000000000
 H42        -3.160800000000      2.501000000000      1.578500000000
 H43        -4.201800000000      1.099200000000      1.650100000000
 H44        -3.268500000000      1.421000000000      0.203700000000
 }
 
 nkerna=1
 nkernb=1
 
 gf=0
 sing=1
 thrdum=1d-4
 gridthr=1d-8
 
 basis={
 set,orbital
 default,avqz
 set,jkfit
 default,avqz/jkfit
 set,mp2fit
 default,avqz/mp2fit
 set,ri
 default,avqz/optri
 set,tddft
 default,avqz/mp2fit
 }
 
 proc set_monomer1
 dummy,4,5,6,7,8
 endproc
 
 proc set_monomer2
 dummy,1,2,3
 endproc
 
                                                                                 !1234 energy
 {hf,accu=1.d-16}
 ccsd(t)
 
 set_monomer1
 {hf,accu=1.d-16}
 ccsd(t)
 
 set_monomer2
 {hf,accu=1.d-16}
 ccsd(t)
 
 Commands  initialized (760), CPU time= 0.01 sec, 617 directives.
 Default parameters read. Elapsed time= 0.21 sec

 Checking input...
 Passed
1


                                         ***  PROGRAM SYSTEM MOLPRO  ***
                                       Copyright, TTI GmbH Stuttgart, 2015
                                    Version 2019.1 linked Jan 14 2019 13:09:19


 **********************************************************************************************************************************
 LABEL *                                                                                 
  64 bit mpp version                                                                     DATE: 11-Mar-20          TIME: 13:21:27  
 **********************************************************************************************************************************

 SHA1:             d688ac825633d238f2093ded1675ba87ccd55965
 **********************************************************************************************************************************

 THRESHOLDS:

 ZERO    =  1.00D-12  ONEINT  =  1.00D-12  TWOINT  =  1.00D-11  PREFAC  =  1.00D-14  XXXXXX  =  1.00D-09  EORDER  =  1.00D-04
 ENERGY  =  1.00D-10  ETEST   =  0.00D+00  EDENS   =  0.00D+00  THRDEDEF=  1.00D-06  GRADIENT=  1.00D-02  STEP    =  1.00D-03
 ORBITAL =  1.00D-10  CIVEC   =  1.00D-05  COEFF   =  1.00D-04  PRINTCI =  5.00D-02  PUNCHCI =  9.90D+01  OPTGRAD =  3.00D-04
 OPTENERG=  1.00D-06  OPTSTEP =  3.00D-04  THRGRAD =  1.00D-10  COMPRESS=  1.00D-11  VARMIN  =  1.00D-07  VARMAX  =  1.00D-03
 THRDOUB =  0.00D+00  THRDIV  =  1.00D-05  THRRED  =  1.00D-07  THRPSP  =  1.00D+00  THRDC   =  1.00D-10  THRCS   =  1.00D-10
 THRNRM  =  1.00D-08  THREQ   =  0.00D+00  THRDE   =  1.00D+00  THRREF  =  1.00D-05  SPARFAC =  1.00D+00  THRDLP  =  1.00D-07
 THRDIA  =  1.00D-10  THRDLS  =  1.00D-07  THRGPS  =  0.00D+00  THRKEX  =  0.00D+00  THRDIS  =  2.00D-01  THRVAR  =  1.00D-10
 THRLOC  =  1.00D-06  THRGAP  =  1.00D-06  THRLOCT = -1.00D+00  THRGAPT = -1.00D+00  THRORB  =  1.00D-06  THRMLTP =  0.00D+00
 THRCPQCI=  1.00D-10  KEXTA   =  0.00D+00  THRCOARS=  0.00D+00  SYMTOL  =  1.00D-06  GRADTOL =  1.00D-06  THROVL  =  1.00D-08
 THRORTH =  1.00D-08  GRID    =  1.00D-08  GRIDMAX =  1.00D-03  DTMAX   =  0.00D+00  THROCCDE=  1.00D-01  THROCCDE=  1.00D-01
 THRPRINT=  2.50D-01


 Variable memory set to 2000000000 words,  buffer space 

 ZSYMEL=NOSYM
 ZUNIT=ANG


Geometry recognized as XYZ

 SETTING NKERNA         =         1.00000000                                  
 SETTING NKERNB         =         1.00000000                                  
 SETTING GF             =     0.00000000D+00                                  
 SETTING SING           =         1.00000000                                  
 SETTING THRDUM         =     1.00000000D-04                                  
 SETTING GRIDTHR        =     1.00000000D-08                                  
 SETTING BASIS          =    AVQZ


 Recomputing integrals since basis changed


 Using spherical harmonics

 Library entry O      S aug-cc-pVQZ          selected for orbital group  1
 Library entry O      P aug-cc-pVQZ          selected for orbital group  1
 Library entry O      D aug-cc-pVQZ          selected for orbital group  1
 Library entry O      F aug-cc-pVQZ          selected for orbital group  1
 Library entry O      G aug-cc-pVQZ          selected for orbital group  1
 Library entry H      S aug-cc-pVQZ          selected for orbital group  2
 Library entry H      P aug-cc-pVQZ          selected for orbital group  2
 Library entry H      D aug-cc-pVQZ          selected for orbital group  2
 Library entry H      F aug-cc-pVQZ          selected for orbital group  2
 Library entry C      S aug-cc-pVQZ          selected for orbital group  3
 Library entry C      P aug-cc-pVQZ          selected for orbital group  3
 Library entry C      D aug-cc-pVQZ          selected for orbital group  3
 Library entry C      F aug-cc-pVQZ          selected for orbital group  3
 Library entry C      G aug-cc-pVQZ          selected for orbital group  3


 PROGRAM * SEWARD (Integral evaluation for generally contracted gaussian basis sets)     Author: Roland Lindh, 1990

 Geometry written to block  1 of record 700


 Point group  C1  



 ATOMIC COORDINATES

 NR  ATOM    CHARGE       X              Y              Z

   1  O14     8.00   -8.257347274    8.608080443   -1.772185160
   2  H27     1.00   -8.759447505   10.077153532   -2.731599113
   3  H28     1.00   -9.852276123    7.752790399   -1.314682465
   4  C1      6.00   -6.193010455    2.801518980    2.403542658
   5  H41     1.00   -4.656285171    1.699997622    3.119937832
   6  H42     1.00   -5.973046335    4.726205038    2.982932688
   7  H43     1.00   -7.940251230    2.077186956    3.118237078
   8  H44     1.00   -6.176569838    2.685300823    0.384937212

 Bond lengths in Bohr (Angstrom)

 1-2  1.825035758  1-3  1.866715781  4-5  2.021904040  4-6  2.022002335  4-7  2.021953343
     ( 0.965767332)     ( 0.987823451)     ( 1.069945541)     ( 1.069997556)     ( 1.069971630)

 4-8  2.022015060
     ( 1.070004290)

 Bond angles

  2-1-3  105.22390814   5-4-6  109.53398059   5-4-7  109.65604535   5-4-8  108.43490854

  6-4-7  109.49436728   6-4-8  109.86987750   7-4-8  109.83468330

 NUCLEAR CHARGE:                   20
 NUMBER OF PRIMITIVE AOS:         578
 NUMBER OF SYMMETRY AOS:          474
 NUMBER OF CONTRACTIONS:          436   (  436A   )
 NUMBER OF CORE ORBITALS:           2   (    2A   )
 NUMBER OF VALENCE ORBITALS:       14   (   14A   )


 NUCLEAR REPULSION ENERGY   35.88393783


 Basis set:  JKFIT                   
 Basis size:   740
 Attributes:
 Sphericals:   T
 Basis set:  MP2FIT                  
 Basis size:   816
 Attributes:
 Sphericals:   T
 Basis set:  RI                      
 Basis size:   556
 Attributes:
 Sphericals:   T
 Basis set:  TDDFT                   
 Basis size:   816
 Attributes:
 Sphericals:   T

 **********************************************************************************************************************************


 Eigenvalues of metric

         1 0.158E-04 0.278E-04 0.357E-04 0.375E-04 0.634E-04 0.855E-04 0.965E-04 0.113E-03


 Contracted 2-electron integrals neglected if value below      1.0D-14
 AO integral compression algorithm  1   Integral accuracy      1.0D-14

     21932.802 MB (compressed) written to integral file ( 54.7%)

     Node minimum: 5346.427 MB, node maximum: 5627.445 MB


 NUMBER OF SORTED TWO-ELECTRON INTEGRALS: 1134451344.     BUFFER LENGTH:  32768
 NUMBER OF SEGMENTS:  36  SEGMENT LENGTH:   31999984      RECORD LENGTH: 524288

 Memory used in sort:      32.56 MW

 SORT1 READ  5012305700. AND WROTE   924942037. INTEGRALS IN   2663 RECORDS. CPU TIME:   103.23 SEC, REAL TIME:   118.94 SEC
 SORT2 READ  3698794462. AND WROTE  4537853011. INTEGRALS IN  85868 RECORDS. CPU TIME:    18.64 SEC, REAL TIME:    51.95 SEC

 Node minimum:  1134427528.  Node maximum:  1134498978. integrals

 OPERATOR DM      FOR CENTER  0  COORDINATES:    0.000000    0.000000    0.000000


 **********************************************************************************************************************************
 DATASETS  * FILE   NREC   LENGTH (MB)   RECORD NAMES
              1      18       37.06       500      610      700      900      950      970     1000      129      960     1100   
                                          VAR    BASINP    GEOM    SYMINP    ZMAT    AOBASIS   BASIS     P2S    ABASIS      S 
                                         1400     1410     1200     1210     1080     1600     1650     1700   
                                           T        V       H0       H01     AOSYM     SMH    MOLCAS    OPER   

 PROGRAMS   *        TOTAL       INT
 CPU TIMES  *       187.09    186.86
 REAL TIME  *       247.47 SEC
 DISK USED  *        37.58 MB (local),       66.18 GB (total)
 GA USED    *         0.00 MB       (max)       0.00 MB       (current)
 **********************************************************************************************************************************


 PROGRAM * RHF-SCF (CLOSED SHELL)       Authors: W. Meyer, H.-J. Werner


 NUMBER OF ELECTRONS:      10+   10-    SPACE SYMMETRY=1    SPIN SYMMETRY: Singlet 
 CONVERGENCE THRESHOLDS:    1.00E-08 (Density)    1.00E-11 (Energy)
 MAX. NUMBER OF ITERATIONS:       60
 INTERPOLATION TYPE:            DIIS
 INTERPOLATION STEPS:              2 (START)      1 (STEP)
 LEVEL SHIFTS:                  0.00 (CLOSED)  0.00 (OPEN) 



 Orbital guess generated from atomic densities. Full valence occupancy:   16

 Molecular orbital dump at record        2100.2

 Initial occupancy:  10

 ITERATION    DDIFF          GRAD             ENERGY        2-EL.EN.            DIPOLE MOMENTS         DIIS   ORB.
    1      0.000D+00      0.000D+00      -116.22124530    157.529968   -1.07355    0.30741   -0.25601    0    start
    2      0.000D+00      0.379D-02      -116.26530509    152.477818   -0.60138    0.22045   -0.17464    1    diag
    3      0.273D-02      0.223D-02      -116.27892166    154.562823   -0.72145    0.24516   -0.19637    2    diag
    4      0.942D-03      0.329D-03      -116.27957385    154.449461   -0.71090    0.24306   -0.19433    3    diag
    5      0.201D-03      0.964D-04      -116.27964194    154.444152   -0.71031    0.24377   -0.19464    4    diag
    6      0.820D-04      0.234D-04      -116.27964574    154.449726   -0.70946    0.24375   -0.19458    5    diag
    7      0.221D-04      0.467D-05      -116.27964597    154.448109   -0.70945    0.24379   -0.19459    6    diag
    8      0.651D-05      0.118D-05      -116.27964599    154.448269   -0.70937    0.24379   -0.19459    7    diag
    9      0.136D-05      0.277D-06      -116.27964599    154.448243   -0.70935    0.24378   -0.19459    8    diag
   10      0.391D-06      0.325D-07      -116.27964599    154.448244   -0.70935    0.24378   -0.19459    9    orth
   11      0.428D-07      0.747D-08      -116.27964599    154.448245   -0.70935    0.24378   -0.19459    9    diag
   12      0.892D-08      0.193D-08      -116.27964599    154.448245   -0.70935    0.24378   -0.19459    0    orth

 Final occupancy:  10

 !RHF STATE  1.1 Energy              -116.279645986161
 Nuclear energy                        35.88393783
 One-electron energy                 -229.38770632
 Two-electron energy                   77.22412250
 Virial quotient                       -1.00067732
 !RHF STATE  1.1 Dipole moment         -0.70934765     0.24378177    -0.19458575
 Dipole moment /Debye                  -1.80286381     0.61959088    -0.49455524

 Orbital energies:

         1.1          2.1          3.1          4.1          5.1          6.1          7.1          8.1          9.1         10.1
    -20.567763   -11.189232    -1.342643    -0.943838    -0.708609    -0.580102    -0.545399    -0.542846    -0.540580    -0.508719

        11.1         12.1
      0.024263     0.036031


 HOMO     10.1    -0.508719 =     -13.8430eV
 LUMO     11.1     0.024263 =       0.6602eV
 LUMO-HOMO         0.532983 =      14.5032eV


 **********************************************************************************************************************************
 DATASETS  * FILE   NREC   LENGTH (MB)   RECORD NAMES
              1      18       37.06       500      610      700      900      950      970     1000      129      960     1100   
                                          VAR    BASINP    GEOM    SYMINP    ZMAT    AOBASIS   BASIS     P2S    ABASIS      S 
                                         1400     1410     1200     1210     1080     1600     1650     1700   
                                           T        V       H0       H01     AOSYM     SMH    MOLCAS    OPER   

              2       4        6.75       700     1000      520     2100   
                                         GEOM     BASIS   MCVARS     RHF  

 PROGRAMS   *        TOTAL    HF-SCF       INT
 CPU TIMES  *       404.99    217.89    186.86
 REAL TIME  *       487.70 SEC
 DISK USED  *        57.63 MB (local),       66.26 GB (total)
 SF USED    *         0.76 MB
 GA USED    *         0.00 MB       (max)       0.00 MB       (current)
 **********************************************************************************************************************************

 Basis set:  JKFIT                   
 Basis size:   740
 Attributes:
 Sphericals:   T
 Basis set:  MP2FIT                  
 Basis size:   816
 Attributes:
 Sphericals:   T
 Basis set:  RI                      
 Basis size:   556
 Attributes:
 Sphericals:   T
 Basis set:  TDDFT                   
 Basis size:   816
 Attributes:
 Sphericals:   T

 PROGRAM * CCSD (Closed-shell coupled cluster)     Authors: C. Hampel, H.-J. Werner, 1991, M. Deegan, P.J. Knowles, 1992


 Convergence thresholds:  THRVAR = 1.00D-08  THRDEN = 1.00D-10

 CCSD(T)     terms to be evaluated (factor= 1.000)


 Number of core orbitals:           2 (   2 )
 Number of closed-shell orbitals:   8 (   8 )
 Number of external orbitals:     426 ( 426 )

 Molecular orbitals read from record     2100.2  Type=RHF/CANONICAL (state 1.1)

 Number of N-1 electron functions:               8
 Number of N-2 electron functions:              36
 Number of singly external CSFs:              3408
 Number of doubly external CSFs:           5808936
 Total number of CSFs:                     5812345

 Length of J-op  integral file:               0.00 MB
 Length of K-op  integral file:              13.08 MB
 Length of 3-ext integral record:             0.00 MB

 Memory could be reduced to 828.85 Mwords without degradation in triples

 Integral transformation finished. Total CPU: 322.26 sec, npass=  1  Memory used: 389.48 MW

 Reference energy:                   -116.27964599

 MP2 singlet pair energy:              -0.34062660
 MP2 triplet pair energy:              -0.15817729
 MP2 correlation energy:               -0.49880389
 MP2 total energy:                   -116.77844987

 SCS-MP2 correlation energy:           -0.50717334   (PS=  1.200000  PT=  0.333333)
 SCS-MP2 total energy:               -116.78681933

 ITER.      SQ.NORM     CORR.ENERGY   TOTAL ENERGY   ENERGY CHANGE        DEN1      VAR(S)    VAR(P)  DIIS     TIME  TIME/IT
   1      1.13545545    -0.51652573  -116.79617171    -0.01772184    -0.00629383  0.14D-02  0.20D-02  1  1   483.55   162.42
   2      1.14400488    -0.51787545  -116.79752144    -0.00134972    -0.01018772  0.27D-04  0.25D-03  2  2   645.91   163.55
   3      1.14719290    -0.51799669  -116.79764267    -0.00012124    -0.00224711  0.11D-04  0.12D-04  3  3   807.95   163.91
   4      1.14804331    -0.51799977  -116.79764576    -0.00000309    -0.00040419  0.58D-06  0.12D-05  4  4   969.50   163.93
   5      1.14819714    -0.51799947  -116.79764546     0.00000030    -0.00004535  0.20D-06  0.83D-07  5  5  1131.52   164.08
   6      1.14824480    -0.51799580  -116.79764179     0.00000367    -0.00001142  0.18D-07  0.59D-08  6  6  1293.69   164.17
   7      1.14825374    -0.51799484  -116.79764083     0.00000096    -0.00000135  0.15D-08  0.78D-09  6  2  1455.97   164.25
   8      1.14825564    -0.51799473  -116.79764071     0.00000012     0.00000007  0.25D-09  0.80D-10  6  1  1617.87   164.26
   9      1.14825646    -0.51799467  -116.79764065     0.00000006    -0.00000004  0.17D-10  0.11D-10  6  3  1779.60   164.25
  10      1.14825656    -0.51799467  -116.79764065     0.00000000     0.00000007  0.20D-11  0.14D-11  6  4  1942.07   164.30
  11      1.14825653    -0.51799467  -116.79764066    -0.00000000     0.00000005  0.34D-12  0.20D-12  6  5  2103.74   164.28
  12      1.14825650    -0.51799467  -116.79764066    -0.00000000     0.00000002  0.70D-13  0.24D-13  6  6  2265.52   164.29
  13      1.14825648    -0.51799468  -116.79764066    -0.00000000     0.00000001  0.13D-13  0.36D-14  6  2  2426.89   164.27
  14      1.14825648    -0.51799468  -116.79764066    -0.00000000     0.00000000  0.18D-14  0.82D-15  6  1  2589.21   164.31
  15      1.14825647    -0.51799468  -116.79764066    -0.00000000     0.00000000  0.19D-15  0.11D-15  6  3  2750.86   164.31
  16      1.14825647    -0.51799468  -116.79764066    -0.00000000    -0.00000000  0.20D-16  0.14D-16  6  4  2913.99   164.37
  17      1.14825647    -0.51799468  -116.79764066     0.00000000    -0.00000000  0.25D-17  0.21D-17  6  5  3075.97   164.38

 Norm of t1 vector:      0.04989716      S-energy:    -0.00000000      T1 diagnostic:  0.00882066
                                                                       D1 diagnostic:  0.02027784

   CPU time for triples:   2100.35 sec for i =  1 -  7 /  8 (~  68.8 % done)
   CPU time for triples:    839.73 sec for i =  8 -  8 /  8 (  100.0 % done)

 Total CPU time for triples:   2947.69 sec


 RESULTS
 =======

  Reference energy                   -116.279645986158
  CCSD singlet pair energy             -0.373265075723
  CCSD triplet pair energy             -0.144729600051
  CCSD correlation energy              -0.517994675984

  Triples (T) contribution             -0.016540283931
  Total correlation energy             -0.534534959915

  CCSD total energy                  -116.797640662142
  CCSD[T] energy                     -116.814713020567
  CCSD-T energy                      -116.813958934206
 !CCSD(T) total energy               -116.814180946074

 Timing summary (sec):

 STEP                 CPU(USER)    SYS     CPU(TOT)    WALL
 Transformation        323.40      9.48    332.88    334.65
 CCSD iterations      2752.68     35.95   2788.63   2794.75
 Triples              2947.69     19.03   2966.72   2972.74

 Program statistics:

 Available memory in ccsd:              1999999734
 Min. memory needed in ccsd:              17010489
 Max. memory used in ccsd:                22038113
 Max. memory used in cckext:              15155228 (17 integral passes)



 **********************************************************************************************************************************
 DATASETS  * FILE   NREC   LENGTH (MB)   RECORD NAMES
              1      19     2602.11       500      610      700      900      950      970     1000      129      960     1100   
                                          VAR    BASINP    GEOM    SYMINP    ZMAT    AOBASIS   BASIS     P2S    ABASIS      S 
                                         1400     1410     1200     1210     1080     1600     1650     1700     1380   
                                           T        V       H0       H01     AOSYM     SMH    MOLCAS    OPER     JKOP   

              2       4        6.75       700     1000      520     2100   
                                         GEOM     BASIS   MCVARS     RHF  

 PROGRAMS   *        TOTAL   CCSD(T)    HF-SCF       INT
 CPU TIMES  *      6429.00   6024.00    217.89    186.86
 REAL TIME  *      6590.99 SEC
 DISK USED  *         3.24 GB (local),       77.09 GB (total)
 SF USED    *         3.08 GB
 GA USED    *         0.00 MB       (max)       0.00 MB       (current)
 **********************************************************************************************************************************

 Running procedure: SET_MONOMER1

 Dummy atoms: C1  H41  H42  H43  H44


 Recomputing one-electron integrals since nuclear charges changed


 PROGRAM * SEWARD (Integral evaluation for generally contracted gaussian basis sets)     Author: Roland Lindh, 1990

 Geometry written to block  1 of record 700


 Point group  C1  



 ATOMIC COORDINATES

 NR  ATOM    CHARGE       X              Y              Z

   1  O14     8.00   -8.257347274    8.608080443   -1.772185160
   2  H27     1.00   -8.759447505   10.077153532   -2.731599113
   3  H28     1.00   -9.852276123    7.752790399   -1.314682465
   4  C1      0.00   -6.193010455    2.801518980    2.403542658
   5  H41     0.00   -4.656285171    1.699997622    3.119937832
   6  H42     0.00   -5.973046335    4.726205038    2.982932688
   7  H43     0.00   -7.940251230    2.077186956    3.118237078
   8  H44     0.00   -6.176569838    2.685300823    0.384937212

 Bond lengths in Bohr (Angstrom)

 1-2  1.825035758  1-3  1.866715781  4-5  2.021904040  4-6  2.022002335  4-7  2.021953343
     ( 0.965767332)     ( 0.987823451)     ( 1.069945541)     ( 1.069997556)     ( 1.069971630)

 4-8  2.022015060
     ( 1.070004290)

 Bond angles

  2-1-3  105.22390814   5-4-6  109.53398059   5-4-7  109.65604535   5-4-8  108.43490854

  6-4-7  109.49436728   6-4-8  109.86987750   7-4-8  109.83468330

 NUCLEAR CHARGE:                   10
 NUMBER OF PRIMITIVE AOS:         578
 NUMBER OF SYMMETRY AOS:          474
 NUMBER OF CONTRACTIONS:          436   (  436A   )
 NUMBER OF CORE ORBITALS:           1   (    1A   )
 NUMBER OF VALENCE ORBITALS:        6   (    6A   )

 MOLECULE CHANGED: INITIALIZING OCCUPATION AND DUMP RECORDS


 NUCLEAR REPULSION ENERGY    9.00998347

 Basis set:  JKFIT                   
 Basis size:   740
 Attributes:
 Sphericals:   T
 Basis set:  MP2FIT                  
 Basis size:   816
 Attributes:
 Sphericals:   T
 Basis set:  RI                      
 Basis size:   556
 Attributes:
 Sphericals:   T
 Basis set:  TDDFT                   
 Basis size:   816
 Attributes:
 Sphericals:   T

 Eigenvalues of metric

         1 0.158E-04 0.278E-04 0.357E-04 0.375E-04 0.634E-04 0.855E-04 0.965E-04 0.113E-03


 Contracted 2-electron integrals neglected if value below      1.0D-14

 OPERATOR DM      FOR CENTER  0  COORDINATES:    0.000000    0.000000    0.000000


 **********************************************************************************************************************************
 DATASETS  * FILE   NREC   LENGTH (MB)   RECORD NAMES
              1      18       37.06       500      610      700      900      950      970     1000      129      960     1100   
                                          VAR    BASINP    GEOM    SYMINP    ZMAT    AOBASIS   BASIS     P2S    ABASIS      S 
                                         1400     1410     1200     1210     1080     1600     1650     1700   
                                           T        V       H0       H01     AOSYM     SMH    MOLCAS    OPER   

              2       5       10.59       700     1000      520     2100      200   
                                         GEOM     BASIS   MCVARS     RHF    OPTIONS    

 PROGRAMS   *        TOTAL       INT   CCSD(T)    HF-SCF       INT
 CPU TIMES  *      6429.38      0.37   6024.00    217.89    186.86
 REAL TIME  *      6592.36 SEC
 DISK USED  *         3.24 GB (local),       77.10 GB (total)
 SF USED    *         3.08 GB
 GA USED    *         0.00 MB       (max)       0.00 MB       (current)
 **********************************************************************************************************************************


 PROGRAM * RHF-SCF (CLOSED SHELL)       Authors: W. Meyer, H.-J. Werner


 NUMBER OF ELECTRONS:       5+    5-    SPACE SYMMETRY=1    SPIN SYMMETRY: Singlet 
 CONVERGENCE THRESHOLDS:    1.00E-08 (Density)    1.00E-11 (Energy)
 MAX. NUMBER OF ITERATIONS:       60
 INTERPOLATION TYPE:            DIIS
 INTERPOLATION STEPS:              2 (START)      1 (STEP)
 LEVEL SHIFTS:                  0.00 (CLOSED)  0.00 (OPEN) 



 Orbital guess generated from atomic densities. Full valence occupancy:    7

 Molecular orbital dump at record        2101.2

 Initial occupancy:   5

 ITERATION    DDIFF          GRAD             ENERGY        2-EL.EN.            DIPOLE MOMENTS         DIIS   ORB.
    1      0.000D+00      0.000D+00       -76.02516334     77.426624   -1.07771    0.30878   -0.25373    0    start
    2      0.000D+00      0.467D-02       -76.05196648     73.776332   -0.62389    0.18494   -0.15083    1    diag
    3      0.221D-02      0.297D-02       -76.06349276     75.395294   -0.73644    0.21695   -0.17717    2    diag
    4      0.837D-03      0.278D-03       -76.06368658     75.304135   -0.73149    0.21673   -0.17676    3    diag
    5      0.105D-03      0.777D-04       -76.06370743     75.318412   -0.72963    0.21669   -0.17664    4    diag
    6      0.325D-04      0.154D-04       -76.06370877     75.317394   -0.72921    0.21674   -0.17665    5    diag
    7      0.820D-05      0.313D-05       -76.06370884     75.317539   -0.72907    0.21674   -0.17664    6    diag
    8      0.222D-05      0.590D-06       -76.06370884     75.317525   -0.72903    0.21673   -0.17663    7    diag
    9      0.422D-06      0.790D-07       -76.06370884     75.317516   -0.72902    0.21673   -0.17663    8    diag
   10      0.509D-07      0.180D-07       -76.06370884     75.317519   -0.72902    0.21673   -0.17663    9    orth
   11      0.127D-07      0.369D-08       -76.06370884     75.317519   -0.72902    0.21673   -0.17663    9    diag
   12      0.275D-08      0.724D-09       -76.06370884     75.317519   -0.72902    0.21673   -0.17663    0    orth

 Final occupancy:   5

 !RHF STATE  1.1 Energy               -76.063708839761
 Nuclear energy                         9.00998347
 One-electron energy                 -122.73245157
 Two-electron energy                   37.65875926
 Virial quotient                       -1.00191195
 !RHF STATE  1.1 Dipole moment         -0.72902111     0.21673307    -0.17663321
 Dipole moment /Debye                  -1.85286548     0.55084443    -0.44892743

 Orbital energies:

         1.1          2.1          3.1          4.1          5.1          6.1          7.1
    -20.567774    -1.342602    -0.708570    -0.579819    -0.508703     0.021237     0.032931


 HOMO      5.1    -0.508703 =     -13.8425eV
 LUMO      6.1     0.021237 =       0.5779eV
 LUMO-HOMO         0.529940 =      14.4204eV


 **********************************************************************************************************************************
 DATASETS  * FILE   NREC   LENGTH (MB)   RECORD NAMES
              1      18       37.06       500      610      700      900      950      970     1000      129      960     1100   
                                          VAR    BASINP    GEOM    SYMINP    ZMAT    AOBASIS   BASIS     P2S    ABASIS      S 
                                         1400     1410     1200     1210     1080     1600     1650     1700   
                                           T        V       H0       H01     AOSYM     SMH    MOLCAS    OPER   

              2       6       17.39       700     1000      520     2100      200     2101   
                                         GEOM     BASIS   MCVARS     RHF    OPTIONS    RHF  

 PROGRAMS   *        TOTAL    HF-SCF       INT   CCSD(T)    HF-SCF       INT
 CPU TIMES  *      6647.47    218.09      0.37   6024.00    217.89    186.86
 REAL TIME  *      6833.43 SEC
 DISK USED  *         3.24 GB (local),       77.10 GB (total)
 SF USED    *         3.08 GB
 GA USED    *         0.00 MB       (max)       0.00 MB       (current)
 **********************************************************************************************************************************

 Basis set:  JKFIT                   
 Basis size:   740
 Attributes:
 Sphericals:   T
 Basis set:  MP2FIT                  
 Basis size:   816
 Attributes:
 Sphericals:   T
 Basis set:  RI                      
 Basis size:   556
 Attributes:
 Sphericals:   T
 Basis set:  TDDFT                   
 Basis size:   816
 Attributes:
 Sphericals:   T

 PROGRAM * CCSD (Closed-shell coupled cluster)     Authors: C. Hampel, H.-J. Werner, 1991, M. Deegan, P.J. Knowles, 1992


 Convergence thresholds:  THRVAR = 1.00D-08  THRDEN = 1.00D-10

 CCSD(T)     terms to be evaluated (factor= 1.000)


 Number of core orbitals:           1 (   1 )
 Number of closed-shell orbitals:   4 (   4 )
 Number of external orbitals:     431 ( 431 )

 Molecular orbitals read from record     2101.2  Type=RHF/CANONICAL (state 1.1)

 Number of N-1 electron functions:               4
 Number of N-2 electron functions:              10
 Number of singly external CSFs:              1724
 Number of doubly external CSFs:           1486950
 Total number of CSFs:                     1488675

 Length of J-op  integral file:               0.00 MB
 Length of K-op  integral file:              13.08 MB
 Length of 3-ext integral record:             0.00 MB

 Memory could be reduced to 526.20 Mwords without degradation in triples

 Integral transformation finished. Total CPU: 168.50 sec, npass=  1  Memory used: 214.76 MW

 Reference energy:                    -76.06370884

 MP2 singlet pair energy:              -0.18607065
 MP2 triplet pair energy:              -0.10131903
 MP2 correlation energy:               -0.28738968
 MP2 total energy:                    -76.35109852

 SCS-MP2 correlation energy:           -0.28632774   (PS=  1.200000  PT=  0.333333)
 SCS-MP2 total energy:                -76.35003658

 ITER.      SQ.NORM     CORR.ENERGY   TOTAL ENERGY   ENERGY CHANGE        DEN1      VAR(S)    VAR(P)  DIIS     TIME  TIME/IT
   1      1.06428969    -0.28917060   -76.35287944    -0.00178092     0.00405468  0.84D-03  0.10D-02  1  1   215.85    48.40
   2      1.06791418    -0.28942624   -76.35313508    -0.00025564    -0.00489536  0.14D-04  0.12D-03  2  2   263.64    48.93
   3      1.06935410    -0.28950419   -76.35321303    -0.00007795    -0.00100938  0.87D-05  0.61D-05  3  3   311.28    49.14
   4      1.06982189    -0.28950341   -76.35321225     0.00000077    -0.00021821  0.47D-06  0.72D-06  4  4   358.98    49.21
   5      1.06992249    -0.28950114   -76.35320998     0.00000228    -0.00003102  0.16D-06  0.47D-07  5  5   406.58    49.29
   6      1.06995906    -0.28949804   -76.35320688     0.00000310    -0.00000838  0.14D-07  0.33D-08  6  6   454.21    49.33
   7      1.06996590    -0.28949770   -76.35320654     0.00000034    -0.00000050  0.95D-09  0.53D-09  6  1   502.23    49.37
   8      1.06996718    -0.28949765   -76.35320648     0.00000005     0.00000023  0.15D-09  0.59D-10  6  2   550.13    49.39
   9      1.06996777    -0.28949760   -76.35320643     0.00000005    -0.00000001  0.10D-10  0.59D-11  6  3   597.65    49.39
  10      1.06996784    -0.28949759   -76.35320643     0.00000000     0.00000003  0.17D-11  0.75D-12  6  4   645.34    49.39
  11      1.06996784    -0.28949759   -76.35320643    -0.00000000     0.00000002  0.36D-12  0.12D-12  6  5   692.69    49.40
  12      1.06996783    -0.28949759   -76.35320643    -0.00000000     0.00000001  0.68D-13  0.18D-13  6  6   740.45    49.41
  13      1.06996782    -0.28949759   -76.35320643    -0.00000000     0.00000000  0.97D-14  0.31D-14  6  1   787.79    49.39
  14      1.06996781    -0.28949760   -76.35320643    -0.00000000     0.00000000  0.11D-14  0.63D-15  6  2   835.52    49.40
  15      1.06996781    -0.28949760   -76.35320643    -0.00000000     0.00000000  0.11D-15  0.79D-16  6  3   882.98    49.39
  16      1.06996781    -0.28949760   -76.35320643    -0.00000000     0.00000000  0.15D-16  0.10D-16  6  4   930.99    49.41

 Norm of t1 vector:      0.03842972      S-energy:    -0.00000000      T1 diagnostic:  0.00960743
                                                                       D1 diagnostic:  0.02006352


 Total CPU time for triples:    440.59 sec


 RESULTS
 =======

  Reference energy                    -76.063708839762
  CCSD singlet pair energy             -0.199861827266
  CCSD triplet pair energy             -0.089635767803
  CCSD correlation energy              -0.289497595102

  Triples (T) contribution             -0.009572398649
  Total correlation energy             -0.299069993751

  CCSD total energy                   -76.353206434863
  CCSD[T] energy                      -76.363094991390
  CCSD-T energy                       -76.362625992941
 !CCSD(T) total energy                -76.362778833513

 Timing summary (sec):

 STEP                 CPU(USER)    SYS     CPU(TOT)    WALL
 Transformation        168.87      4.92    173.79    174.13
 CCSD iterations       762.20     26.86    789.06    790.68
 Triples               440.59      3.33    443.92    444.88

 Program statistics:

 Available memory in ccsd:              1999999921
 Min. memory needed in ccsd:               6768234
 Max. memory used in ccsd:                 7865440
 Max. memory used in cckext:               5182436 (16 integral passes)



 **********************************************************************************************************************************
 DATASETS  * FILE   NREC   LENGTH (MB)   RECORD NAMES
              1      19     1346.95       500      610      700      900      950      970     1000      129      960     1100   
                                          VAR    BASINP    GEOM    SYMINP    ZMAT    AOBASIS   BASIS     P2S    ABASIS      S 
                                         1400     1410     1200     1210     1080     1600     1650     1700     1380   
                                           T        V       H0       H01     AOSYM     SMH    MOLCAS    OPER     JKOP   

              2       6       17.39       700     1000      520     2100      200     2101   
                                         GEOM     BASIS   MCVARS     RHF    OPTIONS    RHF  

 PROGRAMS   *        TOTAL   CCSD(T)    HF-SCF       INT   CCSD(T)    HF-SCF       INT
 CPU TIMES  *      8019.37   1371.90    218.09      0.37   6024.00    217.89    186.86
 REAL TIME  *      8244.01 SEC
 DISK USED  *         3.24 GB (local),       77.10 GB (total)
 SF USED    *         3.08 GB
 GA USED    *         0.00 MB       (max)       0.00 MB       (current)
 **********************************************************************************************************************************

 Running procedure: SET_MONOMER2

 Dummy atoms: O14  H27  H28


 Recomputing one-electron integrals since nuclear charges changed


 PROGRAM * SEWARD (Integral evaluation for generally contracted gaussian basis sets)     Author: Roland Lindh, 1990

 Geometry written to block  1 of record 700


 Point group  C1  



 ATOMIC COORDINATES

 NR  ATOM    CHARGE       X              Y              Z

   1  O14     0.00   -8.257347274    8.608080443   -1.772185160
   2  H27     0.00   -8.759447505   10.077153532   -2.731599113
   3  H28     0.00   -9.852276123    7.752790399   -1.314682465
   4  C1      6.00   -6.193010455    2.801518980    2.403542658
   5  H41     1.00   -4.656285171    1.699997622    3.119937832
   6  H42     1.00   -5.973046335    4.726205038    2.982932688
   7  H43     1.00   -7.940251230    2.077186956    3.118237078
   8  H44     1.00   -6.176569838    2.685300823    0.384937212

 Bond lengths in Bohr (Angstrom)

 1-2  1.825035758  1-3  1.866715781  4-5  2.021904040  4-6  2.022002335  4-7  2.021953343
     ( 0.965767332)     ( 0.987823451)     ( 1.069945541)     ( 1.069997556)     ( 1.069971630)

 4-8  2.022015060
     ( 1.070004290)

 Bond angles

  2-1-3  105.22390814   5-4-6  109.53398059   5-4-7  109.65604535   5-4-8  108.43490854

  6-4-7  109.49436728   6-4-8  109.86987750   7-4-8  109.83468330

 NUCLEAR CHARGE:                   10
 NUMBER OF PRIMITIVE AOS:         578
 NUMBER OF SYMMETRY AOS:          474
 NUMBER OF CONTRACTIONS:          436   (  436A   )
 NUMBER OF CORE ORBITALS:           1   (    1A   )
 NUMBER OF VALENCE ORBITALS:        8   (    8A   )

 MOLECULE CHANGED: INITIALIZING OCCUPATION AND DUMP RECORDS


 NUCLEAR REPULSION ENERGY   13.68681606

 Basis set:  JKFIT                   
 Basis size:   740
 Attributes:
 Sphericals:   T
 Basis set:  MP2FIT                  
 Basis size:   816
 Attributes:
 Sphericals:   T
 Basis set:  RI                      
 Basis size:   556
 Attributes:
 Sphericals:   T
 Basis set:  TDDFT                   
 Basis size:   816
 Attributes:
 Sphericals:   T

 Eigenvalues of metric

         1 0.158E-04 0.278E-04 0.357E-04 0.375E-04 0.634E-04 0.855E-04 0.965E-04 0.113E-03


 Contracted 2-electron integrals neglected if value below      1.0D-14

 OPERATOR DM      FOR CENTER  0  COORDINATES:    0.000000    0.000000    0.000000


 **********************************************************************************************************************************
 DATASETS  * FILE   NREC   LENGTH (MB)   RECORD NAMES
              1      18       37.06       500      610      700      900      950      970     1000      129      960     1100   
                                          VAR    BASINP    GEOM    SYMINP    ZMAT    AOBASIS   BASIS     P2S    ABASIS      S 
                                         1400     1410     1200     1210     1080     1600     1650     1700   
                                           T        V       H0       H01     AOSYM     SMH    MOLCAS    OPER   

              2       6       17.39       700     1000      520     2100      200     2101   
                                         GEOM     BASIS   MCVARS     RHF    OPTIONS    RHF  

 PROGRAMS   *        TOTAL       INT   CCSD(T)    HF-SCF       INT   CCSD(T)    HF-SCF       INT
 CPU TIMES  *      8019.75      0.37   1371.90    218.09      0.37   6024.00    217.89    186.86
 REAL TIME  *      8245.04 SEC
 DISK USED  *         3.24 GB (local),       77.10 GB (total)
 SF USED    *         3.08 GB
 GA USED    *         0.00 MB       (max)       0.00 MB       (current)
 **********************************************************************************************************************************


 PROGRAM * RHF-SCF (CLOSED SHELL)       Authors: W. Meyer, H.-J. Werner


 NUMBER OF ELECTRONS:       5+    5-    SPACE SYMMETRY=1    SPIN SYMMETRY: Singlet 
 CONVERGENCE THRESHOLDS:    1.00E-08 (Density)    1.00E-11 (Energy)
 MAX. NUMBER OF ITERATIONS:       60
 INTERPOLATION TYPE:            DIIS
 INTERPOLATION STEPS:              2 (START)      1 (STEP)
 LEVEL SHIFTS:                  0.00 (CLOSED)  0.00 (OPEN) 



 Orbital guess generated from atomic densities. Full valence occupancy:    9

 Molecular orbital dump at record        2102.2

 Initial occupancy:   5

 ITERATION    DDIFF          GRAD             ENERGY        2-EL.EN.            DIPOLE MOMENTS         DIIS   ORB.
    1      0.000D+00      0.000D+00       -40.19609520     53.506284    0.00411   -0.00276   -0.00131    0    start
    2      0.000D+00      0.257D-02       -40.21334923     52.217617    0.00128   -0.00087   -0.00039    1    diag
    3      0.158D-02      0.998D-03       -40.21562514     52.672076    0.00182   -0.00123   -0.00055    2    diag
    4      0.443D-03      0.249D-03       -40.21594459     52.617263    0.00161   -0.00110   -0.00049    3    diag
    5      0.166D-03      0.322D-04       -40.21595008     52.619411    0.00158   -0.00108   -0.00048    4    diag
    6      0.417D-04      0.264D-05       -40.21595013     52.619548    0.00158   -0.00108   -0.00048    5    diag
    7      0.561D-05      0.212D-06       -40.21595013     52.619508    0.00158   -0.00108   -0.00047    6    diag
    8      0.210D-06      0.170D-07       -40.21595013     52.619509    0.00158   -0.00108   -0.00047    7    diag
    9      0.819D-07      0.218D-08       -40.21595013     52.619509    0.00158   -0.00108   -0.00047    8    diag
   10      0.840D-08      0.595D-09       -40.21595013     52.619509    0.00158   -0.00108   -0.00047    0    orth

 Final occupancy:   5

 !RHF STATE  1.1 Energy               -40.215950126095
 Nuclear energy                        13.68681606
 One-electron energy                  -80.21252088
 Two-electron energy                   26.30975469
 Virial quotient                       -0.99838105
 !RHF STATE  1.1 Dipole moment          0.00158242    -0.00108097    -0.00047479
 Dipole moment /Debye                   0.00402186    -0.00274737    -0.00120671

 Orbital energies:

         1.1          2.1          3.1          4.1          5.1          6.1          7.1
    -11.196224    -0.950661    -0.551889    -0.549954    -0.547777     0.023801     0.035808


 HOMO      5.1    -0.547777 =     -14.9058eV
 LUMO      6.1     0.023801 =       0.6477eV
 LUMO-HOMO         0.571577 =      15.5534eV


 **********************************************************************************************************************************
 DATASETS  * FILE   NREC   LENGTH (MB)   RECORD NAMES
              1      18       37.06       500      610      700      900      950      970     1000      129      960     1100   
                                          VAR    BASINP    GEOM    SYMINP    ZMAT    AOBASIS   BASIS     P2S    ABASIS      S 
                                         1400     1410     1200     1210     1080     1600     1650     1700   
                                           T        V       H0       H01     AOSYM     SMH    MOLCAS    OPER   

              2       7       27.51       700     1000      520     2100      200     2101     2102   
                                         GEOM     BASIS   MCVARS     RHF    OPTIONS    RHF      RHF  

 PROGRAMS   *        TOTAL    HF-SCF       INT   CCSD(T)    HF-SCF       INT   CCSD(T)    HF-SCF       INT
 CPU TIMES  *      8204.80    185.05      0.37   1371.90    218.09      0.37   6024.00    217.89    186.86
 REAL TIME  *      8448.96 SEC
 DISK USED  *         3.24 GB (local),       77.10 GB (total)
 SF USED    *         3.08 GB
 GA USED    *         0.00 MB       (max)       0.00 MB       (current)
 **********************************************************************************************************************************

 Basis set:  JKFIT                   
 Basis size:   740
 Attributes:
 Sphericals:   T
 Basis set:  MP2FIT                  
 Basis size:   816
 Attributes:
 Sphericals:   T
 Basis set:  RI                      
 Basis size:   556
 Attributes:
 Sphericals:   T
 Basis set:  TDDFT                   
 Basis size:   816
 Attributes:
 Sphericals:   T

 PROGRAM * CCSD (Closed-shell coupled cluster)     Authors: C. Hampel, H.-J. Werner, 1991, M. Deegan, P.J. Knowles, 1992


 Convergence thresholds:  THRVAR = 1.00D-08  THRDEN = 1.00D-10

 CCSD(T)     terms to be evaluated (factor= 1.000)


 Number of core orbitals:           1 (   1 )
 Number of closed-shell orbitals:   4 (   4 )
 Number of external orbitals:     431 ( 431 )

 Molecular orbitals read from record     2102.2  Type=RHF/CANONICAL (state 1.1)

 Number of N-1 electron functions:               4
 Number of N-2 electron functions:              10
 Number of singly external CSFs:              1724
 Number of doubly external CSFs:           1486950
 Total number of CSFs:                     1488675

 Length of J-op  integral file:               0.00 MB
 Length of K-op  integral file:              13.08 MB
 Length of 3-ext integral record:             0.00 MB

 Memory could be reduced to 526.20 Mwords without degradation in triples

 Integral transformation finished. Total CPU: 167.91 sec, npass=  1  Memory used: 214.76 MW

 Reference energy:                    -40.21595013

 MP2 singlet pair energy:              -0.15442283
 MP2 triplet pair energy:              -0.05646252
 MP2 correlation energy:               -0.21088535
 MP2 total energy:                    -40.42683547

 SCS-MP2 correlation energy:           -0.22043963   (PS=  1.200000  PT=  0.333333)
 SCS-MP2 total energy:                -40.43638975

 ITER.      SQ.NORM     CORR.ENERGY   TOTAL ENERGY   ENERGY CHANGE        DEN1      VAR(S)    VAR(P)  DIIS     TIME  TIME/IT
   1      1.07097440    -0.22687343   -40.44282356    -0.01598808    -0.01040109  0.54D-03  0.97D-03  1  1   215.42    48.89
   2      1.07611967    -0.22797347   -40.44392360    -0.00110004    -0.00547178  0.14D-04  0.91D-04  2  2   262.96    49.17
   3      1.07764062    -0.22801271   -40.44396283    -0.00003924    -0.00107288  0.18D-05  0.58D-05  3  3   310.24    49.14
   4      1.07800030    -0.22801840   -40.44396853    -0.00000569    -0.00017104  0.12D-06  0.28D-06  4  4   357.83    49.21
   5      1.07804831    -0.22802029   -40.44397042    -0.00000189    -0.00001301  0.10D-07  0.20D-07  5  5   405.15    49.25
   6      1.07805654    -0.22801906   -40.44396919     0.00000123    -0.00000329  0.62D-09  0.14D-08  6  6   452.62    49.30
   7      1.07805755    -0.22801878   -40.44396891     0.00000028    -0.00000054  0.45D-10  0.11D-09  6  1   500.44    49.33
   8      1.07805750    -0.22801883   -40.44396896    -0.00000005     0.00000023  0.43D-11  0.57D-11  6  3   547.91    49.32
   9      1.07805761    -0.22801882   -40.44396894     0.00000002    -0.00000008  0.35D-12  0.48D-12  6  2   595.22    49.29
  10      1.07805762    -0.22801881   -40.44396894     0.00000000     0.00000000  0.43D-13  0.52D-13  6  4   643.15    49.35
  11      1.07805763    -0.22801881   -40.44396894     0.00000000     0.00000000  0.41D-14  0.53D-14  6  5   690.45    49.36
  12      1.07805762    -0.22801881   -40.44396894     0.00000000     0.00000000  0.88D-16  0.57D-15  6  6   737.65    49.35
  13      1.07805762    -0.22801881   -40.44396894    -0.00000000     0.00000000  0.69D-17  0.57D-16  6  1   785.21    49.35
  14      1.07805762    -0.22801881   -40.44396894    -0.00000000     0.00000000  0.10D-17  0.77D-17  6  3   832.53    49.33

 Norm of t1 vector:      0.03128171      S-energy:    -0.00000000      T1 diagnostic:  0.00782043
                                                                       D1 diagnostic:  0.01257146

 Total CPU time for triples:    439.99 sec


 RESULTS
 =======

  Reference energy                    -40.215950126094
  CCSD singlet pair energy             -0.173324412135
  CCSD triplet pair energy             -0.054694400948
  CCSD correlation energy              -0.228018813088

  Triples (T) contribution             -0.006881610299
  Total correlation energy             -0.234900423386

  CCSD total energy                   -40.443968939182
  CCSD[T] energy                      -40.451063697099
  CCSD-T energy                       -40.450782941074
 !CCSD(T) total energy                -40.450850549481

 Timing summary (sec):

 STEP                 CPU(USER)    SYS     CPU(TOT)    WALL
 Transformation        168.27      5.31    173.58    173.95
 CCSD iterations       664.34     25.10    689.44    690.82
 Triples               439.99      3.67    443.66    444.68

 Program statistics:

 Available memory in ccsd:              1999999916
 Min. memory needed in ccsd:               6768234
 Max. memory used in ccsd:                 7865440
 Max. memory used in cckext:               5182436 (14 integral passes)



 **********************************************************************************************************************************
 DATASETS  * FILE   NREC   LENGTH (MB)   RECORD NAMES
              1      19     1346.95       500      610      700      900      950      970     1000      129      960     1100   
                                          VAR    BASINP    GEOM    SYMINP    ZMAT    AOBASIS   BASIS     P2S    ABASIS      S 
                                         1400     1410     1200     1210     1080     1600     1650     1700     1380   
                                           T        V       H0       H01     AOSYM     SMH    MOLCAS    OPER     JKOP   

              2       7       27.51       700     1000      520     2100      200     2101     2102   
                                         GEOM     BASIS   MCVARS     RHF    OPTIONS    RHF      RHF  

 PROGRAMS   *        TOTAL   CCSD(T)    HF-SCF       INT   CCSD(T)    HF-SCF       INT   CCSD(T)    HF-SCF       INT
 CPU TIMES  *      9477.62   1272.82    185.05      0.37   1371.90    218.09      0.37   6024.00    217.89    186.86
 REAL TIME  *      9759.32 SEC
 DISK USED  *         3.24 GB (local),       77.10 GB (total)
 SF USED    *         3.08 GB
 GA USED    *         0.00 MB       (max)       0.00 MB       (current)
 **********************************************************************************************************************************
 Molecular orbitals read from record     2102.2  Type=RHF/CANONICAL (state 1.1)
 Occupation numbers read from record     2102.2  Type=RHF/RHF (state 1.1)
 Orbital energies read from record       2102.2  Type=RHF/CANONICAL (state 1.1)
 Redundancy group numbers read from rec  2102.2  Type=RHF/RHF (state 1.1)

 CCSD(T)/aug-cc-pVQZ energy=    -40.450850549481

         CCSD(T)          HF-SCF         CCSD(T)          HF-SCF         CCSD(T)          HF-SCF
    -40.45085055    -40.21595013    -76.36277883    -76.06370884   -116.81418095   -116.27964599
 **********************************************************************************************************************************
 Molpro calculation terminated
