
 Primary working directories    : /scratch/klimes/383118/molpro.1ftM77KRjV
 Secondary working directories  : /scratch/klimes/383118/molpro.1ftM77KRjV
 Wavefunction directory         : /scratch/klimes/383118/
 Main file repository           : /scratch/klimes/383118/molpro.1ftM77KRjV/

 id        : karlovklimes

 Nodes                      nprocs
 nc-05.cc.karlov.mff.cuni.cz    4

 Using customized tuning parameters: mindgm=1; mindgv=20; mindgc=4; mindgr=1; noblas=0; minvec=7
 default implementation of scratch files=sf  


 Variables initialized (930), CPU time= 0.02 sec
                                                                                 !gdirect
 memory,2000,m
 gthresh,orbital=1d-10,energy=1d-10,grid=1d-8
 
 symmetry,nosym
 angstrom
 geometry={
 O15        -6.012300000000     -1.326900000000      0.948000000000
 H29        -5.145500000000     -1.802000000000      0.952300000000
 H30        -6.682100000000     -2.019400000000      0.881700000000
 C1        -3.277200000000      1.482500000000      1.271900000000
 H41        -2.464000000000      0.899600000000      1.651000000000
 H42        -3.160800000000      2.501000000000      1.578500000000
 H43        -4.201800000000      1.099200000000      1.650100000000
 H44        -3.268500000000      1.421000000000      0.203700000000
 }
 
 nkerna=1
 nkernb=1
 
 gf=0
 sing=1
 thrdum=1d-4
 gridthr=1d-8
 
 basis={
 set,orbital
 default,avqz
 set,jkfit
 default,avqz/jkfit
 set,mp2fit
 default,avqz/mp2fit
 set,ri
 default,avqz/optri
 set,tddft
 default,avqz/mp2fit
 }
 
 proc set_monomer1
 dummy,4,5,6,7,8
 endproc
 
 proc set_monomer2
 dummy,1,2,3
 endproc
 
                                                                                 !1234 energy
 {hf,accu=1.d-16}
 ccsd(t)
 
 set_monomer1
 {hf,accu=1.d-16}
 ccsd(t)
 
 set_monomer2
 {hf,accu=1.d-16}
 ccsd(t)
 
 Commands  initialized (760), CPU time= 0.01 sec, 617 directives.
 Default parameters read. Elapsed time= 0.21 sec

 Checking input...
 Passed
1


                                         ***  PROGRAM SYSTEM MOLPRO  ***
                                       Copyright, TTI GmbH Stuttgart, 2015
                                    Version 2019.1 linked Jan 14 2019 13:09:19


 **********************************************************************************************************************************
 LABEL *                                                                                 
  64 bit mpp version                                                                     DATE: 11-Mar-20          TIME: 13:21:27  
 **********************************************************************************************************************************

 SHA1:             d688ac825633d238f2093ded1675ba87ccd55965
 **********************************************************************************************************************************

 THRESHOLDS:

 ZERO    =  1.00D-12  ONEINT  =  1.00D-12  TWOINT  =  1.00D-11  PREFAC  =  1.00D-14  XXXXXX  =  1.00D-09  EORDER  =  1.00D-04
 ENERGY  =  1.00D-10  ETEST   =  0.00D+00  EDENS   =  0.00D+00  THRDEDEF=  1.00D-06  GRADIENT=  1.00D-02  STEP    =  1.00D-03
 ORBITAL =  1.00D-10  CIVEC   =  1.00D-05  COEFF   =  1.00D-04  PRINTCI =  5.00D-02  PUNCHCI =  9.90D+01  OPTGRAD =  3.00D-04
 OPTENERG=  1.00D-06  OPTSTEP =  3.00D-04  THRGRAD =  1.00D-10  COMPRESS=  1.00D-11  VARMIN  =  1.00D-07  VARMAX  =  1.00D-03
 THRDOUB =  0.00D+00  THRDIV  =  1.00D-05  THRRED  =  1.00D-07  THRPSP  =  1.00D+00  THRDC   =  1.00D-10  THRCS   =  1.00D-10
 THRNRM  =  1.00D-08  THREQ   =  0.00D+00  THRDE   =  1.00D+00  THRREF  =  1.00D-05  SPARFAC =  1.00D+00  THRDLP  =  1.00D-07
 THRDIA  =  1.00D-10  THRDLS  =  1.00D-07  THRGPS  =  0.00D+00  THRKEX  =  0.00D+00  THRDIS  =  2.00D-01  THRVAR  =  1.00D-10
 THRLOC  =  1.00D-06  THRGAP  =  1.00D-06  THRLOCT = -1.00D+00  THRGAPT = -1.00D+00  THRORB  =  1.00D-06  THRMLTP =  0.00D+00
 THRCPQCI=  1.00D-10  KEXTA   =  0.00D+00  THRCOARS=  0.00D+00  SYMTOL  =  1.00D-06  GRADTOL =  1.00D-06  THROVL  =  1.00D-08
 THRORTH =  1.00D-08  GRID    =  1.00D-08  GRIDMAX =  1.00D-03  DTMAX   =  0.00D+00  THROCCDE=  1.00D-01  THROCCDE=  1.00D-01
 THRPRINT=  2.50D-01


 Variable memory set to 2000000000 words,  buffer space 

 ZSYMEL=NOSYM
 ZUNIT=ANG


Geometry recognized as XYZ

 SETTING NKERNA         =         1.00000000                                  
 SETTING NKERNB         =         1.00000000                                  
 SETTING GF             =     0.00000000D+00                                  
 SETTING SING           =         1.00000000                                  
 SETTING THRDUM         =     1.00000000D-04                                  
 SETTING GRIDTHR        =     1.00000000D-08                                  
 SETTING BASIS          =    AVQZ


 Recomputing integrals since basis changed


 Using spherical harmonics

 Library entry O      S aug-cc-pVQZ          selected for orbital group  1
 Library entry O      P aug-cc-pVQZ          selected for orbital group  1
 Library entry O      D aug-cc-pVQZ          selected for orbital group  1
 Library entry O      F aug-cc-pVQZ          selected for orbital group  1
 Library entry O      G aug-cc-pVQZ          selected for orbital group  1
 Library entry H      S aug-cc-pVQZ          selected for orbital group  2
 Library entry H      P aug-cc-pVQZ          selected for orbital group  2
 Library entry H      D aug-cc-pVQZ          selected for orbital group  2
 Library entry H      F aug-cc-pVQZ          selected for orbital group  2
 Library entry C      S aug-cc-pVQZ          selected for orbital group  3
 Library entry C      P aug-cc-pVQZ          selected for orbital group  3
 Library entry C      D aug-cc-pVQZ          selected for orbital group  3
 Library entry C      F aug-cc-pVQZ          selected for orbital group  3
 Library entry C      G aug-cc-pVQZ          selected for orbital group  3


 PROGRAM * SEWARD (Integral evaluation for generally contracted gaussian basis sets)     Author: Roland Lindh, 1990

 Geometry written to block  1 of record 700


 Point group  C1  



 ATOMIC COORDINATES

 NR  ATOM    CHARGE       X              Y              Z

   1  O15     8.00  -11.361600379   -2.507477595    1.791460366
   2  H29     1.00   -9.723585774   -3.405286476    1.799586188
   3  H30     1.00  -12.627338937   -3.816112936    1.666171524
   4  C1      6.00   -6.193010455    2.801518980    2.403542658
   5  H41     1.00   -4.656285171    1.699997622    3.119937832
   6  H42     1.00   -5.973046335    4.726205038    2.982932688
   7  H43     1.00   -7.940251230    2.077186956    3.118237078
   8  H44     1.00   -6.176569838    2.685300823    0.384937212

 Bond lengths in Bohr (Angstrom)

 1-2  1.867945037  1-3  1.824915847  4-5  2.021904040  4-6  2.022002335  4-7  2.021953343
     ( 0.988473945)     ( 0.965703878)     ( 1.069945541)     ( 1.069997556)     ( 1.069971630)

 4-8  2.022015060
     ( 1.070004290)

 Bond angles

  2-1-3  105.29843553   5-4-6  109.53398059   5-4-7  109.65604535   5-4-8  108.43490854

  6-4-7  109.49436728   6-4-8  109.86987750   7-4-8  109.83468330

 NUCLEAR CHARGE:                   20
 NUMBER OF PRIMITIVE AOS:         578
 NUMBER OF SYMMETRY AOS:          474
 NUMBER OF CONTRACTIONS:          436   (  436A   )
 NUMBER OF CORE ORBITALS:           2   (    2A   )
 NUMBER OF VALENCE ORBITALS:       14   (   14A   )


 NUCLEAR REPULSION ENERGY   35.93228190


 Basis set:  JKFIT                   
 Basis size:   740
 Attributes:
 Sphericals:   T
 Basis set:  MP2FIT                  
 Basis size:   816
 Attributes:
 Sphericals:   T
 Basis set:  RI                      
 Basis size:   556
 Attributes:
 Sphericals:   T
 Basis set:  TDDFT                   
 Basis size:   816
 Attributes:
 Sphericals:   T

 **********************************************************************************************************************************


 Eigenvalues of metric

         1 0.154E-04 0.263E-04 0.296E-04 0.386E-04 0.626E-04 0.835E-04 0.911E-04 0.978E-04


 Contracted 2-electron integrals neglected if value below      1.0D-14
 AO integral compression algorithm  1   Integral accuracy      1.0D-14

     21523.857 MB (compressed) written to integral file ( 53.7%)

     Node minimum: 4845.732 MB, node maximum: 5951.717 MB


 NUMBER OF SORTED TWO-ELECTRON INTEGRALS: 1134451344.     BUFFER LENGTH:  32768
 NUMBER OF SEGMENTS:  36  SEGMENT LENGTH:   31999984      RECORD LENGTH: 524288

 Memory used in sort:      32.56 MW

 SORT1 READ  5012305700. AND WROTE   921878759. INTEGRALS IN   2656 RECORDS. CPU TIME:    98.75 SEC, REAL TIME:   117.00 SEC
 SORT2 READ  3687389648. AND WROTE  4537853011. INTEGRALS IN  84376 RECORDS. CPU TIME:    21.58 SEC, REAL TIME:    46.26 SEC

 Node minimum:  1134427528.  Node maximum:  1134498978. integrals

 OPERATOR DM      FOR CENTER  0  COORDINATES:    0.000000    0.000000    0.000000


 **********************************************************************************************************************************
 DATASETS  * FILE   NREC   LENGTH (MB)   RECORD NAMES
              1      18       37.06       500      610      700      900      950      970     1000      129      960     1100   
                                          VAR    BASINP    GEOM    SYMINP    ZMAT    AOBASIS   BASIS     P2S    ABASIS      S 
                                         1400     1410     1200     1210     1080     1600     1650     1700   
                                           T        V       H0       H01     AOSYM     SMH    MOLCAS    OPER   

 PROGRAMS   *        TOTAL       INT
 CPU TIMES  *       183.32    183.08
 REAL TIME  *       236.70 SEC
 DISK USED  *        37.58 MB (local),       65.77 GB (total)
 GA USED    *         0.00 MB       (max)       0.00 MB       (current)
 **********************************************************************************************************************************


 PROGRAM * RHF-SCF (CLOSED SHELL)       Authors: W. Meyer, H.-J. Werner


 NUMBER OF ELECTRONS:      10+   10-    SPACE SYMMETRY=1    SPIN SYMMETRY: Singlet 
 CONVERGENCE THRESHOLDS:    1.00E-08 (Density)    1.00E-11 (Energy)
 MAX. NUMBER OF ITERATIONS:       60
 INTERPOLATION TYPE:            DIIS
 INTERPOLATION STEPS:              2 (START)      1 (STEP)
 LEVEL SHIFTS:                  0.00 (CLOSED)  0.00 (OPEN) 



 Orbital guess generated from atomic densities. Full valence occupancy:   16

 Molecular orbital dump at record        2100.2

 Initial occupancy:  10

 ITERATION    DDIFF          GRAD             ENERGY        2-EL.EN.            DIPOLE MOMENTS         DIIS   ORB.
    1      0.000D+00      0.000D+00      -116.22153009    157.608806    0.19979   -1.13506   -0.06155    0    start
    2      0.000D+00      0.378D-02      -116.26544271    152.575979    0.05562   -0.66709   -0.03878    1    diag
    3      0.273D-02      0.222D-02      -116.27897248    154.653311    0.08892   -0.78690   -0.04391    2    diag
    4      0.944D-03      0.329D-03      -116.27962453    154.539895    0.08585   -0.77625   -0.04304    3    diag
    5      0.203D-03      0.964D-04      -116.27969265    154.534709    0.08467   -0.77586   -0.04289    4    diag
    6      0.826D-04      0.234D-04      -116.27969647    154.540274    0.08427   -0.77505   -0.04279    5    diag
    7      0.224D-04      0.467D-05      -116.27969669    154.538676    0.08423   -0.77504   -0.04278    6    diag
    8      0.661D-05      0.118D-05      -116.27969671    154.538838    0.08419   -0.77497   -0.04277    7    diag
    9      0.145D-05      0.276D-06      -116.27969671    154.538811    0.08418   -0.77495   -0.04276    8    diag
   10      0.412D-06      0.328D-07      -116.27969671    154.538812    0.08418   -0.77495   -0.04277    9    orth
   11      0.443D-07      0.751D-08      -116.27969671    154.538814    0.08418   -0.77495   -0.04277    9    diag
   12      0.950D-08      0.192D-08      -116.27969671    154.538814    0.08418   -0.77495   -0.04277    0    orth

 Final occupancy:  10

 !RHF STATE  1.1 Energy              -116.279696711864
 Nuclear energy                        35.93228190
 One-electron energy                 -229.48138543
 Two-electron energy                   77.26940682
 Virial quotient                       -1.00068179
 !RHF STATE  1.1 Dipole moment          0.08417867    -0.77494540    -0.04276513
 Dipole moment /Debye                   0.21394683    -1.96958572    -0.10869099

 Orbital energies:

         1.1          2.1          3.1          4.1          5.1          6.1          7.1          8.1          9.1         10.1
    -20.568302   -11.188919    -1.343033    -0.943708    -0.709206    -0.580806    -0.545133    -0.541692    -0.541234    -0.509253

        11.1         12.1
      0.023712     0.036152


 HOMO     10.1    -0.509253 =     -13.8575eV
 LUMO     11.1     0.023712 =       0.6452eV
 LUMO-HOMO         0.532966 =      14.5027eV


 **********************************************************************************************************************************
 DATASETS  * FILE   NREC   LENGTH (MB)   RECORD NAMES
              1      18       37.06       500      610      700      900      950      970     1000      129      960     1100   
                                          VAR    BASINP    GEOM    SYMINP    ZMAT    AOBASIS   BASIS     P2S    ABASIS      S 
                                         1400     1410     1200     1210     1080     1600     1650     1700   
                                           T        V       H0       H01     AOSYM     SMH    MOLCAS    OPER   

              2       4        6.75       700     1000      520     2100   
                                         GEOM     BASIS   MCVARS     RHF  

 PROGRAMS   *        TOTAL    HF-SCF       INT
 CPU TIMES  *       400.84    217.51    183.08
 REAL TIME  *       471.73 SEC
 DISK USED  *        57.63 MB (local),       65.85 GB (total)
 SF USED    *         0.76 MB
 GA USED    *         0.00 MB       (max)       0.00 MB       (current)
 **********************************************************************************************************************************

 Basis set:  JKFIT                   
 Basis size:   740
 Attributes:
 Sphericals:   T
 Basis set:  MP2FIT                  
 Basis size:   816
 Attributes:
 Sphericals:   T
 Basis set:  RI                      
 Basis size:   556
 Attributes:
 Sphericals:   T
 Basis set:  TDDFT                   
 Basis size:   816
 Attributes:
 Sphericals:   T

 PROGRAM * CCSD (Closed-shell coupled cluster)     Authors: C. Hampel, H.-J. Werner, 1991, M. Deegan, P.J. Knowles, 1992


 Convergence thresholds:  THRVAR = 1.00D-08  THRDEN = 1.00D-10

 CCSD(T)     terms to be evaluated (factor= 1.000)


 Number of core orbitals:           2 (   2 )
 Number of closed-shell orbitals:   8 (   8 )
 Number of external orbitals:     426 ( 426 )

 Molecular orbitals read from record     2100.2  Type=RHF/CANONICAL (state 1.1)

 Number of N-1 electron functions:               8
 Number of N-2 electron functions:              36
 Number of singly external CSFs:              3408
 Number of doubly external CSFs:           5808936
 Total number of CSFs:                     5812345

 Length of J-op  integral file:               0.00 MB
 Length of K-op  integral file:              13.08 MB
 Length of 3-ext integral record:             0.00 MB

 Memory could be reduced to 828.85 Mwords without degradation in triples

 Integral transformation finished. Total CPU: 328.41 sec, npass=  1  Memory used: 389.48 MW

 Reference energy:                   -116.27969671

 MP2 singlet pair energy:              -0.34064711
 MP2 triplet pair energy:              -0.15824509
 MP2 correlation energy:               -0.49889221
 MP2 total energy:                   -116.77858892

 SCS-MP2 correlation energy:           -0.50724015   (PS=  1.200000  PT=  0.333333)
 SCS-MP2 total energy:               -116.78693686

 ITER.      SQ.NORM     CORR.ENERGY   TOTAL ENERGY   ENERGY CHANGE        DEN1      VAR(S)    VAR(P)  DIIS     TIME  TIME/IT
   1      1.13547625    -0.51660391  -116.79630062    -0.01771170    -0.00628511  0.14D-02  0.20D-02  1  1   485.00   156.76
   2      1.14401184    -0.51795129  -116.79764800    -0.00134738    -0.01017318  0.27D-04  0.25D-03  2  2   641.47   157.57
   3      1.14720750    -0.51807240  -116.79776911    -0.00012111    -0.00225829  0.11D-04  0.12D-04  3  3   798.16   157.87
   4      1.14805731    -0.51807545  -116.79777216    -0.00000305    -0.00040385  0.58D-06  0.12D-05  4  4   954.32   157.92
   5      1.14821116    -0.51807516  -116.79777187     0.00000029    -0.00004551  0.19D-06  0.82D-07  5  5  1111.04   158.02
   6      1.14825846    -0.51807151  -116.79776823     0.00000365    -0.00001127  0.18D-07  0.58D-08  6  6  1267.70   158.10
   7      1.14826707    -0.51807058  -116.79776729     0.00000094    -0.00000121  0.14D-08  0.78D-09  6  2  1424.44   158.15
   8      1.14826891    -0.51807046  -116.79776718     0.00000011     0.00000009  0.25D-09  0.79D-10  6  1  1580.66   158.13
   9      1.14826972    -0.51807041  -116.79776712     0.00000006    -0.00000004  0.17D-10  0.11D-10  6  3  1737.64   158.19
  10      1.14826982    -0.51807041  -116.79776712     0.00000000     0.00000007  0.20D-11  0.14D-11  6  4  1894.28   158.21
  11      1.14826979    -0.51807041  -116.79776712    -0.00000000     0.00000005  0.35D-12  0.21D-12  6  5  2051.17   158.24
  12      1.14826977    -0.51807041  -116.79776712    -0.00000000     0.00000002  0.74D-13  0.25D-13  6  6  2207.76   158.24
  13      1.14826975    -0.51807041  -116.79776713    -0.00000000     0.00000001  0.13D-13  0.37D-14  6  2  2364.51   158.26
  14      1.14826975    -0.51807041  -116.79776713    -0.00000000     0.00000000  0.19D-14  0.84D-15  6  1  2520.98   158.25
  15      1.14826974    -0.51807041  -116.79776713    -0.00000000     0.00000000  0.22D-15  0.11D-15  6  3  2677.83   158.25
  16      1.14826974    -0.51807041  -116.79776713    -0.00000000    -0.00000000  0.30D-16  0.16D-16  6  4  2834.24   158.25
  17      1.14826974    -0.51807041  -116.79776713     0.00000000    -0.00000000  0.61D-17  0.26D-17  6  5  2990.67   158.25

 Norm of t1 vector:      0.04986655      S-energy:    -0.00000000      T1 diagnostic:  0.00881524
                                                                       D1 diagnostic:  0.02025177

   CPU time for triples:   1921.25 sec for i =  1 -  7 /  8 (~  68.8 % done)
   CPU time for triples:    903.87 sec for i =  8 -  8 /  8 (  100.0 % done)

 Total CPU time for triples:   2833.72 sec


 RESULTS
 =======

  Reference energy                   -116.279696711865
  CCSD singlet pair energy             -0.373270574576
  CCSD triplet pair energy             -0.144799840091
  CCSD correlation energy              -0.518070414880

  Triples (T) contribution             -0.016553437035
  Total correlation energy             -0.534623851914

  CCSD total energy                  -116.797767126744
  CCSD[T] energy                     -116.814852408399
  CCSD-T energy                      -116.814098546855
 !CCSD(T) total energy               -116.814320563779

 Timing summary (sec):

 STEP                 CPU(USER)    SYS     CPU(TOT)    WALL
 Transformation        329.60      6.69    336.29    339.08
 CCSD iterations      2661.17     25.15   2686.32   2690.43
 Triples              2833.72     10.36   2844.08   2853.76

 Program statistics:

 Available memory in ccsd:              1999999734
 Min. memory needed in ccsd:              17010489
 Max. memory used in ccsd:                22038113
 Max. memory used in cckext:              15155228 (17 integral passes)



 **********************************************************************************************************************************
 DATASETS  * FILE   NREC   LENGTH (MB)   RECORD NAMES
              1      19     2602.11       500      610      700      900      950      970     1000      129      960     1100   
                                          VAR    BASINP    GEOM    SYMINP    ZMAT    AOBASIS   BASIS     P2S    ABASIS      S 
                                         1400     1410     1200     1210     1080     1600     1650     1700     1380   
                                           T        V       H0       H01     AOSYM     SMH    MOLCAS    OPER     JKOP   

              2       4        6.75       700     1000      520     2100   
                                         GEOM     BASIS   MCVARS     RHF  

 PROGRAMS   *        TOTAL   CCSD(T)    HF-SCF       INT
 CPU TIMES  *      6225.57   5824.73    217.51    183.08
 REAL TIME  *      6356.11 SEC
 DISK USED  *         3.24 GB (local),       76.69 GB (total)
 SF USED    *         3.08 GB
 GA USED    *         0.00 MB       (max)       0.00 MB       (current)
 **********************************************************************************************************************************

 Running procedure: SET_MONOMER1

 Dummy atoms: C1  H41  H42  H43  H44


 Recomputing one-electron integrals since nuclear charges changed


 PROGRAM * SEWARD (Integral evaluation for generally contracted gaussian basis sets)     Author: Roland Lindh, 1990

 Geometry written to block  1 of record 700


 Point group  C1  



 ATOMIC COORDINATES

 NR  ATOM    CHARGE       X              Y              Z

   1  O15     8.00  -11.361600379   -2.507477595    1.791460366
   2  H29     1.00   -9.723585774   -3.405286476    1.799586188
   3  H30     1.00  -12.627338937   -3.816112936    1.666171524
   4  C1      0.00   -6.193010455    2.801518980    2.403542658
   5  H41     0.00   -4.656285171    1.699997622    3.119937832
   6  H42     0.00   -5.973046335    4.726205038    2.982932688
   7  H43     0.00   -7.940251230    2.077186956    3.118237078
   8  H44     0.00   -6.176569838    2.685300823    0.384937212

 Bond lengths in Bohr (Angstrom)

 1-2  1.867945037  1-3  1.824915847  4-5  2.021904040  4-6  2.022002335  4-7  2.021953343
     ( 0.988473945)     ( 0.965703878)     ( 1.069945541)     ( 1.069997556)     ( 1.069971630)

 4-8  2.022015060
     ( 1.070004290)

 Bond angles

  2-1-3  105.29843553   5-4-6  109.53398059   5-4-7  109.65604535   5-4-8  108.43490854

  6-4-7  109.49436728   6-4-8  109.86987750   7-4-8  109.83468330

 NUCLEAR CHARGE:                   10
 NUMBER OF PRIMITIVE AOS:         578
 NUMBER OF SYMMETRY AOS:          474
 NUMBER OF CONTRACTIONS:          436   (  436A   )
 NUMBER OF CORE ORBITALS:           1   (    1A   )
 NUMBER OF VALENCE ORBITALS:        6   (    6A   )

 MOLECULE CHANGED: INITIALIZING OCCUPATION AND DUMP RECORDS


 NUCLEAR REPULSION ENERGY    9.00717880

 Basis set:  JKFIT                   
 Basis size:   740
 Attributes:
 Sphericals:   T
 Basis set:  MP2FIT                  
 Basis size:   816
 Attributes:
 Sphericals:   T
 Basis set:  RI                      
 Basis size:   556
 Attributes:
 Sphericals:   T
 Basis set:  TDDFT                   
 Basis size:   816
 Attributes:
 Sphericals:   T

 Eigenvalues of metric

         1 0.154E-04 0.263E-04 0.296E-04 0.386E-04 0.626E-04 0.835E-04 0.911E-04 0.978E-04


 Contracted 2-electron integrals neglected if value below      1.0D-14

 OPERATOR DM      FOR CENTER  0  COORDINATES:    0.000000    0.000000    0.000000


 **********************************************************************************************************************************
 DATASETS  * FILE   NREC   LENGTH (MB)   RECORD NAMES
              1      18       37.06       500      610      700      900      950      970     1000      129      960     1100   
                                          VAR    BASINP    GEOM    SYMINP    ZMAT    AOBASIS   BASIS     P2S    ABASIS      S 
                                         1400     1410     1200     1210     1080     1600     1650     1700   
                                           T        V       H0       H01     AOSYM     SMH    MOLCAS    OPER   

              2       5       10.59       700     1000      520     2100      200   
                                         GEOM     BASIS   MCVARS     RHF    OPTIONS    

 PROGRAMS   *        TOTAL       INT   CCSD(T)    HF-SCF       INT
 CPU TIMES  *      6225.96      0.38   5824.73    217.51    183.08
 REAL TIME  *      6357.27 SEC
 DISK USED  *         3.24 GB (local),       76.70 GB (total)
 SF USED    *         3.08 GB
 GA USED    *         0.00 MB       (max)       0.00 MB       (current)
 **********************************************************************************************************************************


 PROGRAM * RHF-SCF (CLOSED SHELL)       Authors: W. Meyer, H.-J. Werner


 NUMBER OF ELECTRONS:       5+    5-    SPACE SYMMETRY=1    SPIN SYMMETRY: Singlet 
 CONVERGENCE THRESHOLDS:    1.00E-08 (Density)    1.00E-11 (Energy)
 MAX. NUMBER OF ITERATIONS:       60
 INTERPOLATION TYPE:            DIIS
 INTERPOLATION STEPS:              2 (START)      1 (STEP)
 LEVEL SHIFTS:                  0.00 (CLOSED)  0.00 (OPEN) 



 Orbital guess generated from atomic densities. Full valence occupancy:    7

 Molecular orbital dump at record        2101.2

 Initial occupancy:   5

 ITERATION    DDIFF          GRAD             ENERGY        2-EL.EN.            DIPOLE MOMENTS         DIIS   ORB.
    1      0.000D+00      0.000D+00       -76.02510769     77.423335    0.19841   -1.13017   -0.05974    0    start
    2      0.000D+00      0.467D-02       -76.05190431     73.771789    0.10829   -0.65789   -0.03506    1    diag
    3      0.222D-02      0.297D-02       -76.06343703     75.391356    0.12926   -0.77578   -0.04128    2    diag
    4      0.841D-03      0.278D-03       -76.06363105     75.300199    0.12708   -0.77127   -0.04109    3    diag
    5      0.107D-03      0.777D-04       -76.06365194     75.314472    0.12621   -0.76961   -0.04103    4    diag
    6      0.348D-04      0.154D-04       -76.06365328     75.313452    0.12595   -0.76926   -0.04102    5    diag
    7      0.905D-05      0.313D-05       -76.06365335     75.313597    0.12588   -0.76914   -0.04101    6    diag
    8      0.247D-05      0.591D-06       -76.06365335     75.313582    0.12587   -0.76910   -0.04101    7    diag
    9      0.465D-06      0.793D-07       -76.06365335     75.313574    0.12587   -0.76909   -0.04101    8    diag
   10      0.551D-07      0.182D-07       -76.06365335     75.313577    0.12587   -0.76909   -0.04101    9    orth
   11      0.142D-07      0.374D-08       -76.06365335     75.313576    0.12587   -0.76909   -0.04101    9    diag
   12      0.289D-08      0.736D-09       -76.06365335     75.313576    0.12587   -0.76909   -0.04101    0    orth

 Final occupancy:   5

 !RHF STATE  1.1 Energy               -76.063653353156
 Nuclear energy                         9.00717880
 One-electron energy                 -122.72762023
 Two-electron energy                   37.65678808
 Virial quotient                       -1.00192619
 !RHF STATE  1.1 Dipole moment          0.12586852    -0.76909242    -0.04101100
 Dipole moment /Debye                   0.31990492    -1.95470991    -0.10423274

 Orbital energies:

         1.1          2.1          3.1          4.1          5.1          6.1          7.1
    -20.567786    -1.342413    -0.708552    -0.579616    -0.508656     0.020828     0.032955


 HOMO      5.1    -0.508656 =     -13.8412eV
 LUMO      6.1     0.020828 =       0.5668eV
 LUMO-HOMO         0.529485 =      14.4080eV


 **********************************************************************************************************************************
 DATASETS  * FILE   NREC   LENGTH (MB)   RECORD NAMES
              1      18       37.06       500      610      700      900      950      970     1000      129      960     1100   
                                          VAR    BASINP    GEOM    SYMINP    ZMAT    AOBASIS   BASIS     P2S    ABASIS      S 
                                         1400     1410     1200     1210     1080     1600     1650     1700   
                                           T        V       H0       H01     AOSYM     SMH    MOLCAS    OPER   

              2       6       17.39       700     1000      520     2100      200     2101   
                                         GEOM     BASIS   MCVARS     RHF    OPTIONS    RHF  

 PROGRAMS   *        TOTAL    HF-SCF       INT   CCSD(T)    HF-SCF       INT
 CPU TIMES  *      6431.44    205.47      0.38   5824.73    217.51    183.08
 REAL TIME  *      6579.11 SEC
 DISK USED  *         3.24 GB (local),       76.70 GB (total)
 SF USED    *         3.08 GB
 GA USED    *         0.00 MB       (max)       0.00 MB       (current)
 **********************************************************************************************************************************

 Basis set:  JKFIT                   
 Basis size:   740
 Attributes:
 Sphericals:   T
 Basis set:  MP2FIT                  
 Basis size:   816
 Attributes:
 Sphericals:   T
 Basis set:  RI                      
 Basis size:   556
 Attributes:
 Sphericals:   T
 Basis set:  TDDFT                   
 Basis size:   816
 Attributes:
 Sphericals:   T

 PROGRAM * CCSD (Closed-shell coupled cluster)     Authors: C. Hampel, H.-J. Werner, 1991, M. Deegan, P.J. Knowles, 1992


 Convergence thresholds:  THRVAR = 1.00D-08  THRDEN = 1.00D-10

 CCSD(T)     terms to be evaluated (factor= 1.000)


 Number of core orbitals:           1 (   1 )
 Number of closed-shell orbitals:   4 (   4 )
 Number of external orbitals:     431 ( 431 )

 Molecular orbitals read from record     2101.2  Type=RHF/CANONICAL (state 1.1)

 Number of N-1 electron functions:               4
 Number of N-2 electron functions:              10
 Number of singly external CSFs:              1724
 Number of doubly external CSFs:           1486950
 Total number of CSFs:                     1488675

 Length of J-op  integral file:               0.00 MB
 Length of K-op  integral file:              13.08 MB
 Length of 3-ext integral record:             0.00 MB

 Memory could be reduced to 526.20 Mwords without degradation in triples

 Integral transformation finished. Total CPU: 171.39 sec, npass=  1  Memory used: 214.76 MW

 Reference energy:                    -76.06365335

 MP2 singlet pair energy:              -0.18608902
 MP2 triplet pair energy:              -0.10132536
 MP2 correlation energy:               -0.28741438
 MP2 total energy:                    -76.35106774

 SCS-MP2 correlation energy:           -0.28635372   (PS=  1.200000  PT=  0.333333)
 SCS-MP2 total energy:                -76.35000707

 ITER.      SQ.NORM     CORR.ENERGY   TOTAL ENERGY   ENERGY CHANGE        DEN1      VAR(S)    VAR(P)  DIIS     TIME  TIME/IT
   1      1.06430625    -0.28919123   -76.35284458    -0.00177684     0.00406201  0.84D-03  0.10D-02  1  1   216.97    46.66
   2      1.06793354    -0.28944699   -76.35310034    -0.00025576    -0.00489766  0.14D-04  0.12D-03  2  2   262.22    46.77
   3      1.06937518    -0.28952508   -76.35317843    -0.00007810    -0.00101029  0.87D-05  0.62D-05  3  3   308.11    47.08
   4      1.06984353    -0.28952431   -76.35317766     0.00000077    -0.00021845  0.47D-06  0.73D-06  4  4   354.94    47.36
   5      1.06994433    -0.28952204   -76.35317539     0.00000228    -0.00003110  0.16D-06  0.47D-07  5  5   401.37    47.57
   6      1.06998096    -0.28951893   -76.35317229     0.00000310    -0.00000839  0.14D-07  0.33D-08  6  6   448.14    47.71
   7      1.06998782    -0.28951859   -76.35317194     0.00000034    -0.00000051  0.94D-09  0.53D-09  6  1   494.37    47.75
   8      1.06998909    -0.28951854   -76.35317189     0.00000005     0.00000023  0.15D-09  0.58D-10  6  2   540.13    47.89
   9      1.06998969    -0.28951849   -76.35317184     0.00000005    -0.00000001  0.99D-11  0.58D-11  6  3   586.76    47.91
  10      1.06998976    -0.28951848   -76.35317184     0.00000000     0.00000003  0.17D-11  0.75D-12  6  4   632.57    48.00
  11      1.06998975    -0.28951849   -76.35317184    -0.00000000     0.00000002  0.36D-12  0.13D-12  6  5   679.21    48.00
  12      1.06998974    -0.28951849   -76.35317184    -0.00000000     0.00000001  0.69D-13  0.18D-13  6  6   725.17    48.06
  13      1.06998973    -0.28951849   -76.35317184    -0.00000000     0.00000000  0.97D-14  0.30D-14  6  1   771.92    48.06
  14      1.06998973    -0.28951849   -76.35317184    -0.00000000     0.00000000  0.10D-14  0.63D-15  6  2   817.79    48.11
  15      1.06998973    -0.28951849   -76.35317184    -0.00000000     0.00000000  0.11D-15  0.77D-16  6  3   864.48    48.12
  16      1.06998973    -0.28951849   -76.35317184    -0.00000000     0.00000000  0.14D-16  0.10D-16  6  4   910.47    48.15

 Norm of t1 vector:      0.03844465      S-energy:    -0.00000000      T1 diagnostic:  0.00961116
                                                                       D1 diagnostic:  0.02007021


 Total CPU time for triples:    421.10 sec


 RESULTS
 =======

  Reference energy                    -76.063653353158
  CCSD singlet pair energy             -0.199881524610
  CCSD triplet pair energy             -0.089636964172
  CCSD correlation energy              -0.289518488814

  Triples (T) contribution             -0.009575487041
  Total correlation energy             -0.299093975855

  CCSD total energy                   -76.353171841971
  CCSD[T] energy                      -76.363063699537
  CCSD-T energy                       -76.362594388141
 !CCSD(T) total energy                -76.362747329012

 Timing summary (sec):

 STEP                 CPU(USER)    SYS     CPU(TOT)    WALL
 Transformation        171.75      4.77    176.52    177.28
 CCSD iterations       738.81     24.60    763.41    770.65
 Triples               421.10      3.82    424.92    430.18

 Program statistics:

 Available memory in ccsd:              1999999921
 Min. memory needed in ccsd:               6768234
 Max. memory used in ccsd:                 7865440
 Max. memory used in cckext:               5182436 (16 integral passes)



 **********************************************************************************************************************************
 DATASETS  * FILE   NREC   LENGTH (MB)   RECORD NAMES
              1      19     1346.95       500      610      700      900      950      970     1000      129      960     1100   
                                          VAR    BASINP    GEOM    SYMINP    ZMAT    AOBASIS   BASIS     P2S    ABASIS      S 
                                         1400     1410     1200     1210     1080     1600     1650     1700     1380   
                                           T        V       H0       H01     AOSYM     SMH    MOLCAS    OPER     JKOP   

              2       6       17.39       700     1000      520     2100      200     2101   
                                         GEOM     BASIS   MCVARS     RHF    OPTIONS    RHF  

 PROGRAMS   *        TOTAL   CCSD(T)    HF-SCF       INT   CCSD(T)    HF-SCF       INT
 CPU TIMES  *      7763.34   1331.90    205.47      0.38   5824.73    217.51    183.08
 REAL TIME  *      7958.10 SEC
 DISK USED  *         3.24 GB (local),       76.70 GB (total)
 SF USED    *         3.08 GB
 GA USED    *         0.00 MB       (max)       0.00 MB       (current)
 **********************************************************************************************************************************

 Running procedure: SET_MONOMER2

 Dummy atoms: O15  H29  H30


 Recomputing one-electron integrals since nuclear charges changed


 PROGRAM * SEWARD (Integral evaluation for generally contracted gaussian basis sets)     Author: Roland Lindh, 1990

 Geometry written to block  1 of record 700


 Point group  C1  



 ATOMIC COORDINATES

 NR  ATOM    CHARGE       X              Y              Z

   1  O15     0.00  -11.361600379   -2.507477595    1.791460366
   2  H29     0.00   -9.723585774   -3.405286476    1.799586188
   3  H30     0.00  -12.627338937   -3.816112936    1.666171524
   4  C1      6.00   -6.193010455    2.801518980    2.403542658
   5  H41     1.00   -4.656285171    1.699997622    3.119937832
   6  H42     1.00   -5.973046335    4.726205038    2.982932688
   7  H43     1.00   -7.940251230    2.077186956    3.118237078
   8  H44     1.00   -6.176569838    2.685300823    0.384937212

 Bond lengths in Bohr (Angstrom)

 1-2  1.867945037  1-3  1.824915847  4-5  2.021904040  4-6  2.022002335  4-7  2.021953343
     ( 0.988473945)     ( 0.965703878)     ( 1.069945541)     ( 1.069997556)     ( 1.069971630)

 4-8  2.022015060
     ( 1.070004290)

 Bond angles

  2-1-3  105.29843553   5-4-6  109.53398059   5-4-7  109.65604535   5-4-8  108.43490854

  6-4-7  109.49436728   6-4-8  109.86987750   7-4-8  109.83468330

 NUCLEAR CHARGE:                   10
 NUMBER OF PRIMITIVE AOS:         578
 NUMBER OF SYMMETRY AOS:          474
 NUMBER OF CONTRACTIONS:          436   (  436A   )
 NUMBER OF CORE ORBITALS:           1   (    1A   )
 NUMBER OF VALENCE ORBITALS:        8   (    8A   )

 MOLECULE CHANGED: INITIALIZING OCCUPATION AND DUMP RECORDS


 NUCLEAR REPULSION ENERGY   13.68681606

 Basis set:  JKFIT                   
 Basis size:   740
 Attributes:
 Sphericals:   T
 Basis set:  MP2FIT                  
 Basis size:   816
 Attributes:
 Sphericals:   T
 Basis set:  RI                      
 Basis size:   556
 Attributes:
 Sphericals:   T
 Basis set:  TDDFT                   
 Basis size:   816
 Attributes:
 Sphericals:   T

 Eigenvalues of metric

         1 0.154E-04 0.263E-04 0.296E-04 0.386E-04 0.626E-04 0.835E-04 0.911E-04 0.978E-04


 Contracted 2-electron integrals neglected if value below      1.0D-14

 OPERATOR DM      FOR CENTER  0  COORDINATES:    0.000000    0.000000    0.000000


 **********************************************************************************************************************************
 DATASETS  * FILE   NREC   LENGTH (MB)   RECORD NAMES
              1      18       37.06       500      610      700      900      950      970     1000      129      960     1100   
                                          VAR    BASINP    GEOM    SYMINP    ZMAT    AOBASIS   BASIS     P2S    ABASIS      S 
                                         1400     1410     1200     1210     1080     1600     1650     1700   
                                           T        V       H0       H01     AOSYM     SMH    MOLCAS    OPER   

              2       6       17.39       700     1000      520     2100      200     2101   
                                         GEOM     BASIS   MCVARS     RHF    OPTIONS    RHF  

 PROGRAMS   *        TOTAL       INT   CCSD(T)    HF-SCF       INT   CCSD(T)    HF-SCF       INT
 CPU TIMES  *      7763.71      0.37   1331.90    205.47      0.38   5824.73    217.51    183.08
 REAL TIME  *      7959.12 SEC
 DISK USED  *         3.24 GB (local),       76.70 GB (total)
 SF USED    *         3.08 GB
 GA USED    *         0.00 MB       (max)       0.00 MB       (current)
 **********************************************************************************************************************************


 PROGRAM * RHF-SCF (CLOSED SHELL)       Authors: W. Meyer, H.-J. Werner


 NUMBER OF ELECTRONS:       5+    5-    SPACE SYMMETRY=1    SPIN SYMMETRY: Singlet 
 CONVERGENCE THRESHOLDS:    1.00E-08 (Density)    1.00E-11 (Energy)
 MAX. NUMBER OF ITERATIONS:       60
 INTERPOLATION TYPE:            DIIS
 INTERPOLATION STEPS:              2 (START)      1 (STEP)
 LEVEL SHIFTS:                  0.00 (CLOSED)  0.00 (OPEN) 



 Orbital guess generated from atomic densities. Full valence occupancy:    9

 Molecular orbital dump at record        2102.2

 Initial occupancy:   5

 ITERATION    DDIFF          GRAD             ENERGY        2-EL.EN.            DIPOLE MOMENTS         DIIS   ORB.
    1      0.000D+00      0.000D+00       -40.19609528     53.506287    0.00410   -0.00276   -0.00130    0    start
    2      0.000D+00      0.257D-02       -40.21334935     52.217618    0.00129   -0.00088   -0.00039    1    diag
    3      0.158D-02      0.998D-03       -40.21562527     52.672078    0.00182   -0.00124   -0.00056    2    diag
    4      0.443D-03      0.249D-03       -40.21594472     52.617265    0.00162   -0.00111   -0.00049    3    diag
    5      0.166D-03      0.322D-04       -40.21595022     52.619412    0.00159   -0.00109   -0.00048    4    diag
    6      0.415D-04      0.264D-05       -40.21595026     52.619549    0.00159   -0.00109   -0.00048    5    diag
    7      0.555D-05      0.212D-06       -40.21595026     52.619510    0.00159   -0.00109   -0.00048    6    diag
    8      0.217D-06      0.170D-07       -40.21595026     52.619511    0.00159   -0.00109   -0.00048    7    diag
    9      0.822D-07      0.217D-08       -40.21595026     52.619511    0.00159   -0.00109   -0.00048    8    diag
   10      0.836D-08      0.594D-09       -40.21595026     52.619511    0.00159   -0.00109   -0.00048    0    orth

 Final occupancy:   5

 !RHF STATE  1.1 Energy               -40.215950258078
 Nuclear energy                        13.68681606
 One-electron energy                  -80.21252168
 Two-electron energy                   26.30975536
 Virial quotient                       -0.99838106
 !RHF STATE  1.1 Dipole moment          0.00159222    -0.00108719    -0.00047954
 Dipole moment /Debye                   0.00404676    -0.00276318    -0.00121878

 Orbital energies:

         1.1          2.1          3.1          4.1          5.1          6.1          7.1
    -11.196224    -0.950661    -0.551890    -0.549955    -0.547775     0.023725     0.035987


 HOMO      5.1    -0.547775 =     -14.9057eV
 LUMO      6.1     0.023725 =       0.6456eV
 LUMO-HOMO         0.571500 =      15.5513eV


 **********************************************************************************************************************************
 DATASETS  * FILE   NREC   LENGTH (MB)   RECORD NAMES
              1      18       37.06       500      610      700      900      950      970     1000      129      960     1100   
                                          VAR    BASINP    GEOM    SYMINP    ZMAT    AOBASIS   BASIS     P2S    ABASIS      S 
                                         1400     1410     1200     1210     1080     1600     1650     1700   
                                           T        V       H0       H01     AOSYM     SMH    MOLCAS    OPER   

              2       7       27.51       700     1000      520     2100      200     2101     2102   
                                         GEOM     BASIS   MCVARS     RHF    OPTIONS    RHF      RHF  

 PROGRAMS   *        TOTAL    HF-SCF       INT   CCSD(T)    HF-SCF       INT   CCSD(T)    HF-SCF       INT
 CPU TIMES  *      7933.49    169.78      0.37   1331.90    205.47      0.38   5824.73    217.51    183.08
 REAL TIME  *      8142.22 SEC
 DISK USED  *         3.24 GB (local),       76.70 GB (total)
 SF USED    *         3.08 GB
 GA USED    *         0.00 MB       (max)       0.00 MB       (current)
 **********************************************************************************************************************************

 Basis set:  JKFIT                   
 Basis size:   740
 Attributes:
 Sphericals:   T
 Basis set:  MP2FIT                  
 Basis size:   816
 Attributes:
 Sphericals:   T
 Basis set:  RI                      
 Basis size:   556
 Attributes:
 Sphericals:   T
 Basis set:  TDDFT                   
 Basis size:   816
 Attributes:
 Sphericals:   T

 PROGRAM * CCSD (Closed-shell coupled cluster)     Authors: C. Hampel, H.-J. Werner, 1991, M. Deegan, P.J. Knowles, 1992


 Convergence thresholds:  THRVAR = 1.00D-08  THRDEN = 1.00D-10

 CCSD(T)     terms to be evaluated (factor= 1.000)


 Number of core orbitals:           1 (   1 )
 Number of closed-shell orbitals:   4 (   4 )
 Number of external orbitals:     431 ( 431 )

 Molecular orbitals read from record     2102.2  Type=RHF/CANONICAL (state 1.1)

 Number of N-1 electron functions:               4
 Number of N-2 electron functions:              10
 Number of singly external CSFs:              1724
 Number of doubly external CSFs:           1486950
 Total number of CSFs:                     1488675

 Length of J-op  integral file:               0.00 MB
 Length of K-op  integral file:              13.08 MB
 Length of 3-ext integral record:             0.00 MB

 Memory could be reduced to 526.20 Mwords without degradation in triples

 Integral transformation finished. Total CPU: 171.43 sec, npass=  1  Memory used: 214.76 MW

 Reference energy:                    -40.21595026

 MP2 singlet pair energy:              -0.15442470
 MP2 triplet pair energy:              -0.05646276
 MP2 correlation energy:               -0.21088746
 MP2 total energy:                    -40.42683772

 SCS-MP2 correlation energy:           -0.22044202   (PS=  1.200000  PT=  0.333333)
 SCS-MP2 total energy:                -40.43639228

 ITER.      SQ.NORM     CORR.ENERGY   TOTAL ENERGY   ENERGY CHANGE        DEN1      VAR(S)    VAR(P)  DIIS     TIME  TIME/IT
   1      1.07097427    -0.22687479   -40.44282505    -0.01598734    -0.01040027  0.54D-03  0.97D-03  1  1   219.62    49.05
   2      1.07611950    -0.22797485   -40.44392511    -0.00110005    -0.00547175  0.14D-04  0.91D-04  2  2   265.97    48.36
   3      1.07764052    -0.22801408   -40.44396434    -0.00003923    -0.00107297  0.18D-05  0.58D-05  3  3   311.13    47.78
   4      1.07800022    -0.22801977   -40.44397003    -0.00000569    -0.00017105  0.12D-06  0.28D-06  4  4   357.95    47.89
   5      1.07804823    -0.22802166   -40.44397192    -0.00000189    -0.00001301  0.10D-07  0.20D-07  5  5   405.12    48.00
   6      1.07805647    -0.22802044   -40.44397069     0.00000123    -0.00000329  0.62D-09  0.14D-08  6  6   451.33    47.94
   7      1.07805749    -0.22802015   -40.44397041     0.00000028    -0.00000054  0.45D-10  0.11D-09  6  1   497.98    47.97
   8      1.07805743    -0.22802021   -40.44397046    -0.00000005     0.00000023  0.44D-11  0.59D-11  6  3   544.89    48.01
   9      1.07805755    -0.22802019   -40.44397045     0.00000002    -0.00000008  0.36D-12  0.49D-12  6  2   591.35    48.03
  10      1.07805756    -0.22802019   -40.44397044     0.00000000     0.00000000  0.44D-13  0.53D-13  6  4   637.31    48.02
  11      1.07805756    -0.22802019   -40.44397044     0.00000000     0.00000000  0.41D-14  0.54D-14  6  5   683.48    47.98
  12      1.07805756    -0.22802019   -40.44397044     0.00000000     0.00000000  0.90D-16  0.58D-15  6  6   729.99    47.98
  13      1.07805755    -0.22802019   -40.44397044    -0.00000000     0.00000000  0.70D-17  0.58D-16  6  1   775.54    47.97
  14      1.07805755    -0.22802019   -40.44397044    -0.00000000     0.00000000  0.10D-17  0.78D-17  6  3   822.43    47.99

 Norm of t1 vector:      0.03128193      S-energy:    -0.00000000      T1 diagnostic:  0.00782048
                                                                       D1 diagnostic:  0.01257147

 Total CPU time for triples:    429.02 sec


 RESULTS
 =======

  Reference energy                    -40.215950258079
  CCSD singlet pair energy             -0.173325579842
  CCSD triplet pair energy             -0.054694605503
  CCSD correlation energy              -0.228020185349

  Triples (T) contribution             -0.006881720447
  Total correlation energy             -0.234901905795

  CCSD total energy                   -40.443970443428
  CCSD[T] energy                      -40.451065308612
  CCSD-T energy                       -40.450784555965
 !CCSD(T) total energy                -40.450852163874

 Timing summary (sec):

 STEP                 CPU(USER)    SYS     CPU(TOT)    WALL
 Transformation        171.80      4.27    176.07    176.46
 CCSD iterations       650.71     19.31    670.02    672.03
 Triples               429.02      1.60    430.62    431.96

 Program statistics:

 Available memory in ccsd:              1999999916
 Min. memory needed in ccsd:               6768234
 Max. memory used in ccsd:                 7865440
 Max. memory used in cckext:               5182436 (14 integral passes)



 **********************************************************************************************************************************
 DATASETS  * FILE   NREC   LENGTH (MB)   RECORD NAMES
              1      19     1346.95       500      610      700      900      950      970     1000      129      960     1100   
                                          VAR    BASINP    GEOM    SYMINP    ZMAT    AOBASIS   BASIS     P2S    ABASIS      S 
                                         1400     1410     1200     1210     1080     1600     1650     1700     1380   
                                           T        V       H0       H01     AOSYM     SMH    MOLCAS    OPER     JKOP   

              2       7       27.51       700     1000      520     2100      200     2101     2102   
                                         GEOM     BASIS   MCVARS     RHF    OPTIONS    RHF      RHF  

 PROGRAMS   *        TOTAL   CCSD(T)    HF-SCF       INT   CCSD(T)    HF-SCF       INT   CCSD(T)    HF-SCF       INT
 CPU TIMES  *      9185.27   1251.77    169.78      0.37   1331.90    205.47      0.38   5824.73    217.51    183.08
 REAL TIME  *      9423.56 SEC
 DISK USED  *         3.24 GB (local),       76.70 GB (total)
 SF USED    *         3.08 GB
 GA USED    *         0.00 MB       (max)       0.00 MB       (current)
 **********************************************************************************************************************************
 Molecular orbitals read from record     2102.2  Type=RHF/CANONICAL (state 1.1)
 Occupation numbers read from record     2102.2  Type=RHF/RHF (state 1.1)
 Orbital energies read from record       2102.2  Type=RHF/CANONICAL (state 1.1)
 Redundancy group numbers read from rec  2102.2  Type=RHF/RHF (state 1.1)

 CCSD(T)/aug-cc-pVQZ energy=    -40.450852163874

         CCSD(T)          HF-SCF         CCSD(T)          HF-SCF         CCSD(T)          HF-SCF
    -40.45085216    -40.21595026    -76.36274733    -76.06365335   -116.81432056   -116.27969671
 **********************************************************************************************************************************
 Molpro calculation terminated
