
 Primary working directories    : /scratch/klimes/383119/molpro.2rB3AaNLnM
 Secondary working directories  : /scratch/klimes/383119/molpro.2rB3AaNLnM
 Wavefunction directory         : /scratch/klimes/383119/
 Main file repository           : /scratch/klimes/383119/molpro.2rB3AaNLnM/

 id        : karlovklimes

 Nodes                      nprocs
 nc-05.cc.karlov.mff.cuni.cz    4

 Using customized tuning parameters: mindgm=1; mindgv=20; mindgc=4; mindgr=1; noblas=0; minvec=7
 default implementation of scratch files=sf  


 Variables initialized (930), CPU time= 0.01 sec
                                                                                 !gdirect
 memory,2000,m
 gthresh,orbital=1d-10,energy=1d-10,grid=1d-8
 
 symmetry,nosym
 angstrom
 geometry={
 O16        -6.031300000000      0.567500000000     -1.162700000000
 H31        -6.239000000000      1.445500000000     -0.783400000000
 H32        -6.065700000000     -0.057500000000     -0.412200000000
 C1        -3.277200000000      1.482500000000      1.271900000000
 H41        -2.464000000000      0.899600000000      1.651000000000
 H42        -3.160800000000      2.501000000000      1.578500000000
 H43        -4.201800000000      1.099200000000      1.650100000000
 H44        -3.268500000000      1.421000000000      0.203700000000
 }
 
 nkerna=1
 nkernb=1
 
 gf=0
 sing=1
 thrdum=1d-4
 gridthr=1d-8
 
 basis={
 set,orbital
 default,avqz
 set,jkfit
 default,avqz/jkfit
 set,mp2fit
 default,avqz/mp2fit
 set,ri
 default,avqz/optri
 set,tddft
 default,avqz/mp2fit
 }
 
 proc set_monomer1
 dummy,4,5,6,7,8
 endproc
 
 proc set_monomer2
 dummy,1,2,3
 endproc
 
                                                                                 !1234 energy
 {hf,accu=1.d-16}
 ccsd(t)
 
 set_monomer1
 {hf,accu=1.d-16}
 ccsd(t)
 
 set_monomer2
 {hf,accu=1.d-16}
 ccsd(t)
 
 Commands  initialized (760), CPU time= 0.02 sec, 617 directives.
 Default parameters read. Elapsed time= 0.21 sec

 Checking input...
 Passed
1


                                         ***  PROGRAM SYSTEM MOLPRO  ***
                                       Copyright, TTI GmbH Stuttgart, 2015
                                    Version 2019.1 linked Jan 14 2019 13:09:19


 **********************************************************************************************************************************
 LABEL *                                                                                 
  64 bit mpp version                                                                     DATE: 11-Mar-20          TIME: 13:21:27  
 **********************************************************************************************************************************

 SHA1:             d688ac825633d238f2093ded1675ba87ccd55965
 **********************************************************************************************************************************

 THRESHOLDS:

 ZERO    =  1.00D-12  ONEINT  =  1.00D-12  TWOINT  =  1.00D-11  PREFAC  =  1.00D-14  XXXXXX  =  1.00D-09  EORDER  =  1.00D-04
 ENERGY  =  1.00D-10  ETEST   =  0.00D+00  EDENS   =  0.00D+00  THRDEDEF=  1.00D-06  GRADIENT=  1.00D-02  STEP    =  1.00D-03
 ORBITAL =  1.00D-10  CIVEC   =  1.00D-05  COEFF   =  1.00D-04  PRINTCI =  5.00D-02  PUNCHCI =  9.90D+01  OPTGRAD =  3.00D-04
 OPTENERG=  1.00D-06  OPTSTEP =  3.00D-04  THRGRAD =  1.00D-10  COMPRESS=  1.00D-11  VARMIN  =  1.00D-07  VARMAX  =  1.00D-03
 THRDOUB =  0.00D+00  THRDIV  =  1.00D-05  THRRED  =  1.00D-07  THRPSP  =  1.00D+00  THRDC   =  1.00D-10  THRCS   =  1.00D-10
 THRNRM  =  1.00D-08  THREQ   =  0.00D+00  THRDE   =  1.00D+00  THRREF  =  1.00D-05  SPARFAC =  1.00D+00  THRDLP  =  1.00D-07
 THRDIA  =  1.00D-10  THRDLS  =  1.00D-07  THRGPS  =  0.00D+00  THRKEX  =  0.00D+00  THRDIS  =  2.00D-01  THRVAR  =  1.00D-10
 THRLOC  =  1.00D-06  THRGAP  =  1.00D-06  THRLOCT = -1.00D+00  THRGAPT = -1.00D+00  THRORB  =  1.00D-06  THRMLTP =  0.00D+00
 THRCPQCI=  1.00D-10  KEXTA   =  0.00D+00  THRCOARS=  0.00D+00  SYMTOL  =  1.00D-06  GRADTOL =  1.00D-06  THROVL  =  1.00D-08
 THRORTH =  1.00D-08  GRID    =  1.00D-08  GRIDMAX =  1.00D-03  DTMAX   =  0.00D+00  THROCCDE=  1.00D-01  THROCCDE=  1.00D-01
 THRPRINT=  2.50D-01


 Variable memory set to 2000000000 words,  buffer space 

 ZSYMEL=NOSYM
 ZUNIT=ANG


Geometry recognized as XYZ

 SETTING NKERNA         =         1.00000000                                  
 SETTING NKERNB         =         1.00000000                                  
 SETTING GF             =     0.00000000D+00                                  
 SETTING SING           =         1.00000000                                  
 SETTING THRDUM         =     1.00000000D-04                                  
 SETTING GRIDTHR        =     1.00000000D-08                                  
 SETTING BASIS          =    AVQZ


 Recomputing integrals since basis changed


 Using spherical harmonics

 Library entry O      S aug-cc-pVQZ          selected for orbital group  1
 Library entry O      P aug-cc-pVQZ          selected for orbital group  1
 Library entry O      D aug-cc-pVQZ          selected for orbital group  1
 Library entry O      F aug-cc-pVQZ          selected for orbital group  1
 Library entry O      G aug-cc-pVQZ          selected for orbital group  1
 Library entry H      S aug-cc-pVQZ          selected for orbital group  2
 Library entry H      P aug-cc-pVQZ          selected for orbital group  2
 Library entry H      D aug-cc-pVQZ          selected for orbital group  2
 Library entry H      F aug-cc-pVQZ          selected for orbital group  2
 Library entry C      S aug-cc-pVQZ          selected for orbital group  3
 Library entry C      P aug-cc-pVQZ          selected for orbital group  3
 Library entry C      D aug-cc-pVQZ          selected for orbital group  3
 Library entry C      F aug-cc-pVQZ          selected for orbital group  3
 Library entry C      G aug-cc-pVQZ          selected for orbital group  3


 PROGRAM * SEWARD (Integral evaluation for generally contracted gaussian basis sets)     Author: Roland Lindh, 1990

 Geometry written to block  1 of record 700


 Point group  C1  



 ATOMIC COORDINATES

 NR  ATOM    CHARGE       X              Y              Z

   1  O16     8.00  -11.397505175    1.072419576   -2.197184565
   2  H31     1.00  -11.790001291    2.731599113   -1.480411446
   3  H32     1.00  -11.462511754   -0.108659252   -0.778945109
   4  C1      6.00   -6.193010455    2.801518980    2.403542658
   5  H41     1.00   -4.656285171    1.699997622    3.119937832
   6  H42     1.00   -5.973046335    4.726205038    2.982932688
   7  H43     1.00   -7.940251230    2.077186956    3.118237078
   8  H44     1.00   -6.176569838    2.685300823    0.384937212

 Bond lengths in Bohr (Angstrom)

 1-2  1.849511731  1-3  1.846774542  4-5  2.021904040  4-6  2.022002335  4-7  2.021953343
     ( 0.978719459)     ( 0.977271001)     ( 1.069945541)     ( 1.069997556)     ( 1.069971630)

 4-8  2.022015060
     ( 1.070004290)

 Bond angles

  2-1-3  105.58293551   5-4-6  109.53398059   5-4-7  109.65604535   5-4-8  108.43490854

  6-4-7  109.49436728   6-4-8  109.86987750   7-4-8  109.83468330

 NUCLEAR CHARGE:                   20
 NUMBER OF PRIMITIVE AOS:         578
 NUMBER OF SYMMETRY AOS:          474
 NUMBER OF CONTRACTIONS:          436   (  436A   )
 NUMBER OF CORE ORBITALS:           2   (    2A   )
 NUMBER OF VALENCE ORBITALS:       14   (   14A   )


 NUCLEAR REPULSION ENERGY   36.77810311


 Basis set:  JKFIT                   
 Basis size:   740
 Attributes:
 Sphericals:   T
 Basis set:  MP2FIT                  
 Basis size:   816
 Attributes:
 Sphericals:   T
 Basis set:  RI                      
 Basis size:   556
 Attributes:
 Sphericals:   T
 Basis set:  TDDFT                   
 Basis size:   816
 Attributes:
 Sphericals:   T

 **********************************************************************************************************************************


 Eigenvalues of metric

         1 0.158E-04 0.321E-04 0.347E-04 0.351E-04 0.637E-04 0.951E-04 0.102E-03 0.112E-03


 Contracted 2-electron integrals neglected if value below      1.0D-14
 AO integral compression algorithm  1   Integral accuracy      1.0D-14

     23918.019 MB (compressed) written to integral file ( 59.6%)

     Node minimum: 5673.320 MB, node maximum: 6186.336 MB


 NUMBER OF SORTED TWO-ELECTRON INTEGRALS: 1134451344.     BUFFER LENGTH:  32768
 NUMBER OF SEGMENTS:  36  SEGMENT LENGTH:   31999984      RECORD LENGTH: 524288

 Memory used in sort:      32.56 MW

 SORT1 READ  5012305700. AND WROTE   987061108. INTEGRALS IN   2842 RECORDS. CPU TIME:   102.87 SEC, REAL TIME:   119.33 SEC
 SORT2 READ  3947443158. AND WROTE  4537853011. INTEGRALS IN  92620 RECORDS. CPU TIME:    18.00 SEC, REAL TIME:    52.97 SEC

 Node minimum:  1134427528.  Node maximum:  1134498978. integrals

 OPERATOR DM      FOR CENTER  0  COORDINATES:    0.000000    0.000000    0.000000


 **********************************************************************************************************************************
 DATASETS  * FILE   NREC   LENGTH (MB)   RECORD NAMES
              1      18       37.06       500      610      700      900      950      970     1000      129      960     1100   
                                          VAR    BASINP    GEOM    SYMINP    ZMAT    AOBASIS   BASIS     P2S    ABASIS      S 
                                         1400     1410     1200     1210     1080     1600     1650     1700   
                                           T        V       H0       H01     AOSYM     SMH    MOLCAS    OPER   

 PROGRAMS   *        TOTAL       INT
 CPU TIMES  *       187.92    187.65
 REAL TIME  *       249.48 SEC
 DISK USED  *        37.58 MB (local),       71.14 GB (total)
 GA USED    *         0.00 MB       (max)       0.00 MB       (current)
 **********************************************************************************************************************************


 PROGRAM * RHF-SCF (CLOSED SHELL)       Authors: W. Meyer, H.-J. Werner


 NUMBER OF ELECTRONS:      10+   10-    SPACE SYMMETRY=1    SPIN SYMMETRY: Singlet 
 CONVERGENCE THRESHOLDS:    1.00E-08 (Density)    1.00E-11 (Energy)
 MAX. NUMBER OF ITERATIONS:       60
 INTERPOLATION TYPE:            DIIS
 INTERPOLATION STEPS:              2 (START)      1 (STEP)
 LEVEL SHIFTS:                  0.00 (CLOSED)  0.00 (OPEN) 



 Orbital guess generated from atomic densities. Full valence occupancy:   16

 Molecular orbital dump at record        2100.2

 Initial occupancy:  10

 ITERATION    DDIFF          GRAD             ENERGY        2-EL.EN.            DIPOLE MOMENTS         DIIS   ORB.
    1      0.000D+00      0.000D+00      -116.22128535    158.983027   -0.23093    0.24259    1.09196    0    start
    2      0.000D+00      0.378D-02      -116.26520849    154.160168   -0.09594    0.14255    0.61100    1    diag
    3      0.272D-02      0.221D-02      -116.27864696    156.175437   -0.13181    0.16792    0.73094    2    diag
    4      0.943D-03      0.330D-03      -116.27930487    156.063512   -0.13051    0.16533    0.71970    3    diag
    5      0.204D-03      0.966D-04      -116.27937364    156.057790   -0.13002    0.16530    0.71903    4    diag
    6      0.824D-04      0.236D-04      -116.27937751    156.063501   -0.12973    0.16512    0.71819    5    diag
    7      0.223D-04      0.471D-05      -116.27937774    156.061817   -0.12972    0.16512    0.71820    6    diag
    8      0.652D-05      0.119D-05      -116.27937775    156.061990   -0.12969    0.16510    0.71813    7    diag
    9      0.144D-05      0.277D-06      -116.27937775    156.061963   -0.12969    0.16509    0.71811    8    diag
   10      0.409D-06      0.331D-07      -116.27937775    156.061965   -0.12969    0.16509    0.71811    9    orth
   11      0.439D-07      0.796D-08      -116.27937775    156.061966   -0.12969    0.16509    0.71811    9    diag
   12      0.905D-08      0.211D-08      -116.27937775    156.061966   -0.12969    0.16509    0.71811    0    orth

 Final occupancy:  10

 !RHF STATE  1.1 Energy              -116.279377754273
 Nuclear energy                        36.77810311
 One-electron energy                 -231.08846401
 Two-electron energy                   78.03098315
 Virial quotient                       -1.00069963
 !RHF STATE  1.1 Dipole moment         -0.12968599     0.16509263     0.71811349
 Dipole moment /Debye                  -0.32960731     0.41959612     1.82514289

 Orbital energies:

         1.1          2.1          3.1          4.1          5.1          6.1          7.1          8.1          9.1         10.1
    -20.566791   -11.198996    -1.340909    -0.953768    -0.707786    -0.578746    -0.555011    -0.553738    -0.550564    -0.506939

        11.1         12.1
      0.023144     0.037244


 HOMO     10.1    -0.506939 =     -13.7945eV
 LUMO     11.1     0.023144 =       0.6298eV
 LUMO-HOMO         0.530084 =      14.4243eV


 **********************************************************************************************************************************
 DATASETS  * FILE   NREC   LENGTH (MB)   RECORD NAMES
              1      18       37.06       500      610      700      900      950      970     1000      129      960     1100   
                                          VAR    BASINP    GEOM    SYMINP    ZMAT    AOBASIS   BASIS     P2S    ABASIS      S 
                                         1400     1410     1200     1210     1080     1600     1650     1700   
                                           T        V       H0       H01     AOSYM     SMH    MOLCAS    OPER   

              2       4        6.75       700     1000      520     2100   
                                         GEOM     BASIS   MCVARS     RHF  

 PROGRAMS   *        TOTAL    HF-SCF       INT
 CPU TIMES  *       418.62    230.70    187.65
 REAL TIME  *       500.91 SEC
 DISK USED  *        57.63 MB (local),       71.22 GB (total)
 SF USED    *         0.76 MB
 GA USED    *         0.00 MB       (max)       0.00 MB       (current)
 **********************************************************************************************************************************

 Basis set:  JKFIT                   
 Basis size:   740
 Attributes:
 Sphericals:   T
 Basis set:  MP2FIT                  
 Basis size:   816
 Attributes:
 Sphericals:   T
 Basis set:  RI                      
 Basis size:   556
 Attributes:
 Sphericals:   T
 Basis set:  TDDFT                   
 Basis size:   816
 Attributes:
 Sphericals:   T

 PROGRAM * CCSD (Closed-shell coupled cluster)     Authors: C. Hampel, H.-J. Werner, 1991, M. Deegan, P.J. Knowles, 1992


 Convergence thresholds:  THRVAR = 1.00D-08  THRDEN = 1.00D-10

 CCSD(T)     terms to be evaluated (factor= 1.000)


 Number of core orbitals:           2 (   2 )
 Number of closed-shell orbitals:   8 (   8 )
 Number of external orbitals:     426 ( 426 )

 Molecular orbitals read from record     2100.2  Type=RHF/CANONICAL (state 1.1)

 Number of N-1 electron functions:               8
 Number of N-2 electron functions:              36
 Number of singly external CSFs:              3408
 Number of doubly external CSFs:           5808936
 Total number of CSFs:                     5812345

 Length of J-op  integral file:               0.00 MB
 Length of K-op  integral file:              13.08 MB
 Length of 3-ext integral record:             0.00 MB

 Memory could be reduced to 828.85 Mwords without degradation in triples

 Integral transformation finished. Total CPU: 324.49 sec, npass=  1  Memory used: 389.48 MW

 Reference energy:                   -116.27937775

 MP2 singlet pair energy:              -0.34075751
 MP2 triplet pair energy:              -0.15840026
 MP2 correlation energy:               -0.49915777
 MP2 total energy:                   -116.77853552

 SCS-MP2 correlation energy:           -0.50746917   (PS=  1.200000  PT=  0.333333)
 SCS-MP2 total energy:               -116.78684693

 ITER.      SQ.NORM     CORR.ENERGY   TOTAL ENERGY   ENERGY CHANGE        DEN1      VAR(S)    VAR(P)  DIIS     TIME  TIME/IT
   1      1.13560241    -0.51689586  -116.79627362    -0.01773809    -0.00629269  0.14D-02  0.20D-02  1  1   486.09   161.72
   2      1.14418670    -0.51825089  -116.79762865    -0.00135503    -0.01021358  0.27D-04  0.25D-03  2  2   647.92   162.66
   3      1.14737951    -0.51837115  -116.79774890    -0.00012026    -0.00223817  0.12D-04  0.12D-04  3  3   809.97   163.05
   4      1.14823365    -0.51837329  -116.79775105    -0.00000214    -0.00040670  0.58D-06  0.12D-05  4  4   971.90   163.23
   5      1.14838999    -0.51837301  -116.79775076     0.00000028    -0.00004607  0.20D-06  0.85D-07  5  5  1133.93   163.39
   6      1.14843823    -0.51836933  -116.79774708     0.00000368    -0.00001170  0.19D-07  0.64D-08  6  6  1295.71   163.42
   7      1.14844755    -0.51836834  -116.79774609     0.00000099    -0.00000157  0.18D-08  0.97D-09  6  2  1457.36   163.45
   8      1.14844960    -0.51836819  -116.79774594     0.00000015    -0.00000008  0.35D-09  0.11D-09  6  1  1619.57   163.51
   9      1.14845049    -0.51836814  -116.79774589     0.00000005     0.00000003  0.28D-10  0.14D-10  6  3  1781.54   163.52
  10      1.14845050    -0.51836814  -116.79774589    -0.00000000     0.00000012  0.59D-11  0.32D-11  6  1  1943.29   163.52
  11      1.14845059    -0.51836814  -116.79774589     0.00000000     0.00000002  0.54D-12  0.25D-12  6  4  2104.91   163.52
  12      1.14845058    -0.51836814  -116.79774589    -0.00000000     0.00000001  0.11D-12  0.39D-13  6  5  2266.65   163.54
  13      1.14845057    -0.51836814  -116.79774589    -0.00000000     0.00000000  0.19D-13  0.54D-14  6  6  2428.41   163.54
  14      1.14845057    -0.51836814  -116.79774589    -0.00000000     0.00000000  0.28D-14  0.10D-14  6  2  2590.56   163.56
  15      1.14845057    -0.51836814  -116.79774589    -0.00000000     0.00000000  0.39D-15  0.16D-15  6  3  2752.24   163.57
  16      1.14845057    -0.51836814  -116.79774589    -0.00000000     0.00000000  0.48D-16  0.31D-16  6  1  2913.82   163.56
  17      1.14845057    -0.51836814  -116.79774589    -0.00000000     0.00000000  0.59D-17  0.34D-17  6  4  3075.73   163.57

 Norm of t1 vector:      0.05022001      S-energy:    -0.00000000      T1 diagnostic:  0.00887773
                                                                       D1 diagnostic:  0.02056868

   CPU time for triples:   1833.05 sec for i =  1 -  7 /  8 (~  68.8 % done)
   CPU time for triples:   1019.79 sec for i =  8 -  8 /  8 (  100.0 % done)

 Total CPU time for triples:   2852.86 sec


 RESULTS
 =======

  Reference energy                   -116.279377754275
  CCSD singlet pair energy             -0.373383122411
  CCSD triplet pair energy             -0.144985016975
  CCSD correlation energy              -0.518368139613

  Triples (T) contribution             -0.016613993584
  Total correlation energy             -0.534982133197

  CCSD total energy                  -116.797745893887
  CCSD[T] energy                     -116.814894767690
  CCSD-T energy                      -116.814135977085
 !CCSD(T) total energy               -116.814359887471

 Timing summary (sec):

 STEP                 CPU(USER)    SYS     CPU(TOT)    WALL
 Transformation        325.68      6.51    332.19    333.78
 CCSD iterations      2750.14     26.73   2776.87   2780.97
 Triples              2852.86      5.46   2858.32   2862.74

 Program statistics:

 Available memory in ccsd:              1999999734
 Min. memory needed in ccsd:              17010489
 Max. memory used in ccsd:                22038113
 Max. memory used in cckext:              15155228 (17 integral passes)



 **********************************************************************************************************************************
 DATASETS  * FILE   NREC   LENGTH (MB)   RECORD NAMES
              1      19     2602.11       500      610      700      900      950      970     1000      129      960     1100   
                                          VAR    BASINP    GEOM    SYMINP    ZMAT    AOBASIS   BASIS     P2S    ABASIS      S 
                                         1400     1410     1200     1210     1080     1600     1650     1700     1380   
                                           T        V       H0       H01     AOSYM     SMH    MOLCAS    OPER     JKOP   

              2       4        6.75       700     1000      520     2100   
                                         GEOM     BASIS   MCVARS     RHF  

 PROGRAMS   *        TOTAL   CCSD(T)    HF-SCF       INT
 CPU TIMES  *      6347.54   5928.91    230.70    187.65
 REAL TIME  *      6479.55 SEC
 DISK USED  *         3.24 GB (local),       82.05 GB (total)
 SF USED    *         3.08 GB
 GA USED    *         0.00 MB       (max)       0.00 MB       (current)
 **********************************************************************************************************************************

 Running procedure: SET_MONOMER1

 Dummy atoms: C1  H41  H42  H43  H44


 Recomputing one-electron integrals since nuclear charges changed


 PROGRAM * SEWARD (Integral evaluation for generally contracted gaussian basis sets)     Author: Roland Lindh, 1990

 Geometry written to block  1 of record 700


 Point group  C1  



 ATOMIC COORDINATES

 NR  ATOM    CHARGE       X              Y              Z

   1  O16     8.00  -11.397505175    1.072419576   -2.197184565
   2  H31     1.00  -11.790001291    2.731599113   -1.480411446
   3  H32     1.00  -11.462511754   -0.108659252   -0.778945109
   4  C1      0.00   -6.193010455    2.801518980    2.403542658
   5  H41     0.00   -4.656285171    1.699997622    3.119937832
   6  H42     0.00   -5.973046335    4.726205038    2.982932688
   7  H43     0.00   -7.940251230    2.077186956    3.118237078
   8  H44     0.00   -6.176569838    2.685300823    0.384937212

 Bond lengths in Bohr (Angstrom)

 1-2  1.849511731  1-3  1.846774542  4-5  2.021904040  4-6  2.022002335  4-7  2.021953343
     ( 0.978719459)     ( 0.977271001)     ( 1.069945541)     ( 1.069997556)     ( 1.069971630)

 4-8  2.022015060
     ( 1.070004290)

 Bond angles

  2-1-3  105.58293551   5-4-6  109.53398059   5-4-7  109.65604535   5-4-8  108.43490854

  6-4-7  109.49436728   6-4-8  109.86987750   7-4-8  109.83468330

 NUCLEAR CHARGE:                   10
 NUMBER OF PRIMITIVE AOS:         578
 NUMBER OF SYMMETRY AOS:          474
 NUMBER OF CONTRACTIONS:          436   (  436A   )
 NUMBER OF CORE ORBITALS:           1   (    1A   )
 NUMBER OF VALENCE ORBITALS:        6   (    6A   )

 MOLECULE CHANGED: INITIALIZING OCCUPATION AND DUMP RECORDS


 NUCLEAR REPULSION ENERGY    8.99703174

 Basis set:  JKFIT                   
 Basis size:   740
 Attributes:
 Sphericals:   T
 Basis set:  MP2FIT                  
 Basis size:   816
 Attributes:
 Sphericals:   T
 Basis set:  RI                      
 Basis size:   556
 Attributes:
 Sphericals:   T
 Basis set:  TDDFT                   
 Basis size:   816
 Attributes:
 Sphericals:   T

 Eigenvalues of metric

         1 0.158E-04 0.321E-04 0.347E-04 0.351E-04 0.637E-04 0.951E-04 0.102E-03 0.112E-03


 Contracted 2-electron integrals neglected if value below      1.0D-14

 OPERATOR DM      FOR CENTER  0  COORDINATES:    0.000000    0.000000    0.000000


 **********************************************************************************************************************************
 DATASETS  * FILE   NREC   LENGTH (MB)   RECORD NAMES
              1      18       37.06       500      610      700      900      950      970     1000      129      960     1100   
                                          VAR    BASINP    GEOM    SYMINP    ZMAT    AOBASIS   BASIS     P2S    ABASIS      S 
                                         1400     1410     1200     1210     1080     1600     1650     1700   
                                           T        V       H0       H01     AOSYM     SMH    MOLCAS    OPER   

              2       5       10.59       700     1000      520     2100      200   
                                         GEOM     BASIS   MCVARS     RHF    OPTIONS    

 PROGRAMS   *        TOTAL       INT   CCSD(T)    HF-SCF       INT
 CPU TIMES  *      6347.94      0.40   5928.91    230.70    187.65
 REAL TIME  *      6480.74 SEC
 DISK USED  *         3.24 GB (local),       82.06 GB (total)
 SF USED    *         3.08 GB
 GA USED    *         0.00 MB       (max)       0.00 MB       (current)
 **********************************************************************************************************************************


 PROGRAM * RHF-SCF (CLOSED SHELL)       Authors: W. Meyer, H.-J. Werner


 NUMBER OF ELECTRONS:       5+    5-    SPACE SYMMETRY=1    SPIN SYMMETRY: Singlet 
 CONVERGENCE THRESHOLDS:    1.00E-08 (Density)    1.00E-11 (Energy)
 MAX. NUMBER OF ITERATIONS:       60
 INTERPOLATION TYPE:            DIIS
 INTERPOLATION STEPS:              2 (START)      1 (STEP)
 LEVEL SHIFTS:                  0.00 (CLOSED)  0.00 (OPEN) 



 Orbital guess generated from atomic densities. Full valence occupancy:    7

 Molecular orbital dump at record        2101.2

 Initial occupancy:   5

 ITERATION    DDIFF          GRAD             ENERGY        2-EL.EN.            DIPOLE MOMENTS         DIIS   ORB.
    1      0.000D+00      0.000D+00       -76.02525152     77.409753   -0.23472    0.24569    1.09495    0    start
    2      0.000D+00      0.467D-02       -76.05199607     73.757463   -0.13636    0.14236    0.63650    1    diag
    3      0.222D-02      0.297D-02       -76.06352819     75.377750   -0.16083    0.16798    0.75063    2    diag
    4      0.841D-03      0.278D-03       -76.06372195     75.286548   -0.15984    0.16687    0.74606    3    diag
    5      0.106D-03      0.776D-04       -76.06374275     75.300797   -0.15947    0.16645    0.74436    4    diag
    6      0.337D-04      0.154D-04       -76.06374409     75.299776   -0.15939    0.16635    0.74399    5    diag
    7      0.865D-05      0.312D-05       -76.06374416     75.299924   -0.15936    0.16632    0.74386    6    diag
    8      0.242D-05      0.591D-06       -76.06374416     75.299909   -0.15935    0.16631    0.74382    7    diag
    9      0.448D-06      0.794D-07       -76.06374416     75.299900   -0.15935    0.16631    0.74382    8    diag
   10      0.525D-07      0.179D-07       -76.06374416     75.299904   -0.15935    0.16631    0.74382    9    orth
   11      0.139D-07      0.300D-08       -76.06374416     75.299903   -0.15935    0.16631    0.74382    9    diag
   12      0.251D-08      0.480D-09       -76.06374416     75.299903   -0.15935    0.16631    0.74382    0    orth

 Final occupancy:   5

 !RHF STATE  1.1 Energy               -76.063744158168
 Nuclear energy                         8.99703174
 One-electron energy                 -122.71072733
 Two-electron energy                   37.64995144
 Virial quotient                       -1.00198925
 !RHF STATE  1.1 Dipole moment         -0.15935218     0.16631135     0.74381955
 Dipole moment /Debye                  -0.40500633     0.42269359     1.89047690

 Orbital energies:

         1.1          2.1          3.1          4.1          5.1          6.1          7.1
    -20.567827    -1.341643    -0.708529    -0.578924    -0.508489     0.017402     0.035449


 HOMO      5.1    -0.508489 =     -13.8367eV
 LUMO      6.1     0.017402 =       0.4735eV
 LUMO-HOMO         0.525891 =      14.3102eV


 **********************************************************************************************************************************
 DATASETS  * FILE   NREC   LENGTH (MB)   RECORD NAMES
              1      18       37.06       500      610      700      900      950      970     1000      129      960     1100   
                                          VAR    BASINP    GEOM    SYMINP    ZMAT    AOBASIS   BASIS     P2S    ABASIS      S 
                                         1400     1410     1200     1210     1080     1600     1650     1700   
                                           T        V       H0       H01     AOSYM     SMH    MOLCAS    OPER   

              2       6       17.39       700     1000      520     2100      200     2101   
                                         GEOM     BASIS   MCVARS     RHF    OPTIONS    RHF  

 PROGRAMS   *        TOTAL    HF-SCF       INT   CCSD(T)    HF-SCF       INT
 CPU TIMES  *      6565.40    217.46      0.40   5928.91    230.70    187.65
 REAL TIME  *      6717.01 SEC
 DISK USED  *         3.24 GB (local),       82.06 GB (total)
 SF USED    *         3.08 GB
 GA USED    *         0.00 MB       (max)       0.00 MB       (current)
 **********************************************************************************************************************************

 Basis set:  JKFIT                   
 Basis size:   740
 Attributes:
 Sphericals:   T
 Basis set:  MP2FIT                  
 Basis size:   816
 Attributes:
 Sphericals:   T
 Basis set:  RI                      
 Basis size:   556
 Attributes:
 Sphericals:   T
 Basis set:  TDDFT                   
 Basis size:   816
 Attributes:
 Sphericals:   T

 PROGRAM * CCSD (Closed-shell coupled cluster)     Authors: C. Hampel, H.-J. Werner, 1991, M. Deegan, P.J. Knowles, 1992


 Convergence thresholds:  THRVAR = 1.00D-08  THRDEN = 1.00D-10

 CCSD(T)     terms to be evaluated (factor= 1.000)


 Number of core orbitals:           1 (   1 )
 Number of closed-shell orbitals:   4 (   4 )
 Number of external orbitals:     431 ( 431 )

 Molecular orbitals read from record     2101.2  Type=RHF/CANONICAL (state 1.1)

 Number of N-1 electron functions:               4
 Number of N-2 electron functions:              10
 Number of singly external CSFs:              1724
 Number of doubly external CSFs:           1486950
 Total number of CSFs:                     1488675

 Length of J-op  integral file:               0.00 MB
 Length of K-op  integral file:              13.08 MB
 Length of 3-ext integral record:             0.00 MB

 Memory could be reduced to 526.20 Mwords without degradation in triples

 Integral transformation finished. Total CPU: 158.86 sec, npass=  1  Memory used: 214.76 MW

 Reference energy:                    -76.06374416

 MP2 singlet pair energy:              -0.18614141
 MP2 triplet pair energy:              -0.10134583
 MP2 correlation energy:               -0.28748725
 MP2 total energy:                    -76.35123140

 SCS-MP2 correlation energy:           -0.28642932   (PS=  1.200000  PT=  0.333333)
 SCS-MP2 total energy:                -76.35017348

 ITER.      SQ.NORM     CORR.ENERGY   TOTAL ENERGY   ENERGY CHANGE        DEN1      VAR(S)    VAR(P)  DIIS     TIME  TIME/IT
   1      1.06435077    -0.28925231   -76.35299647    -0.00176507     0.00408263  0.84D-03  0.10D-02  1  1   206.94    48.92
   2      1.06798449    -0.28950779   -76.35325194    -0.00025547    -0.00490362  0.14D-04  0.12D-03  2  2   254.95    49.31
   3      1.06942816    -0.28958611   -76.35333027    -0.00007833    -0.00101201  0.87D-05  0.62D-05  3  3   303.48    49.55
   4      1.06989541    -0.28958533   -76.35332949     0.00000078    -0.00021842  0.48D-06  0.75D-06  4  4   351.79    49.62
   5      1.06999782    -0.28958304   -76.35332720     0.00000229    -0.00003204  0.16D-06  0.51D-07  5  5   400.81    49.82
   6      1.07003425    -0.28958003   -76.35332419     0.00000301    -0.00000832  0.17D-07  0.41D-08  6  6   449.42    49.89
   7      1.07004165    -0.28957963   -76.35332379     0.00000040    -0.00000056  0.14D-08  0.81D-09  6  1   498.17    49.95
   8      1.07004339    -0.28957953   -76.35332369     0.00000010    -0.00000006  0.25D-09  0.94D-10  6  2   546.88    50.00
   9      1.07004405    -0.28957949   -76.35332365     0.00000004     0.00000011  0.18D-10  0.83D-11  6  3   596.03    50.08
  10      1.07004420    -0.28957948   -76.35332364     0.00000001     0.00000001  0.22D-11  0.12D-11  6  4   644.91    50.11
  11      1.07004420    -0.28957948   -76.35332364    -0.00000000     0.00000002  0.49D-12  0.16D-12  6  5   693.89    50.12
  12      1.07004420    -0.28957948   -76.35332364    -0.00000000     0.00000001  0.85D-13  0.26D-13  6  6   742.47    50.12
  13      1.07004419    -0.28957948   -76.35332364    -0.00000000     0.00000000  0.15D-13  0.49D-14  6  1   790.67    50.10
  14      1.07004419    -0.28957948   -76.35332364    -0.00000000     0.00000000  0.16D-14  0.70D-15  6  2   838.78    50.07
  15      1.07004419    -0.28957948   -76.35332364    -0.00000000     0.00000000  0.18D-15  0.12D-15  6  3   886.54    50.00
  16      1.07004419    -0.28957948   -76.35332364    -0.00000000    -0.00000000  0.41D-16  0.18D-16  6  4   934.72    49.97

 Norm of t1 vector:      0.03845343      S-energy:    -0.00000000      T1 diagnostic:  0.00961336
                                                                       D1 diagnostic:  0.02006854


 Total CPU time for triples:    430.77 sec


 RESULTS
 =======

  Reference energy                    -76.063744158168
  CCSD singlet pair energy             -0.199937579364
  CCSD triplet pair energy             -0.089641902555
  CCSD correlation energy              -0.289579482002

  Triples (T) contribution             -0.009584731705
  Total correlation energy             -0.299164213707

  CCSD total energy                   -76.353323640170
  CCSD[T] energy                      -76.363225223646
  CCSD-T energy                       -76.362755263281
 !CCSD(T) total energy                -76.362908371876

 Timing summary (sec):

 STEP                 CPU(USER)    SYS     CPU(TOT)    WALL
 Transformation        159.22      4.35    163.57    163.79
 CCSD iterations       775.58     22.93    798.51    799.75
 Triples               430.77      1.23    432.00    432.66

 Program statistics:

 Available memory in ccsd:              1999999921
 Min. memory needed in ccsd:               6768234
 Max. memory used in ccsd:                 7865440
 Max. memory used in cckext:               5182436 (16 integral passes)



 **********************************************************************************************************************************
 DATASETS  * FILE   NREC   LENGTH (MB)   RECORD NAMES
              1      19     1346.95       500      610      700      900      950      970     1000      129      960     1100   
                                          VAR    BASINP    GEOM    SYMINP    ZMAT    AOBASIS   BASIS     P2S    ABASIS      S 
                                         1400     1410     1200     1210     1080     1600     1650     1700     1380   
                                           T        V       H0       H01     AOSYM     SMH    MOLCAS    OPER     JKOP   

              2       6       17.39       700     1000      520     2100      200     2101   
                                         GEOM     BASIS   MCVARS     RHF    OPTIONS    RHF  

 PROGRAMS   *        TOTAL   CCSD(T)    HF-SCF       INT   CCSD(T)    HF-SCF       INT
 CPU TIMES  *      7931.20   1365.80    217.46      0.40   5928.91    230.70    187.65
 REAL TIME  *      8114.08 SEC
 DISK USED  *         3.24 GB (local),       82.06 GB (total)
 SF USED    *         3.08 GB
 GA USED    *         0.00 MB       (max)       0.00 MB       (current)
 **********************************************************************************************************************************

 Running procedure: SET_MONOMER2

 Dummy atoms: O16  H31  H32


 Recomputing one-electron integrals since nuclear charges changed


 PROGRAM * SEWARD (Integral evaluation for generally contracted gaussian basis sets)     Author: Roland Lindh, 1990

 Geometry written to block  1 of record 700


 Point group  C1  



 ATOMIC COORDINATES

 NR  ATOM    CHARGE       X              Y              Z

   1  O16     0.00  -11.397505175    1.072419576   -2.197184565
   2  H31     0.00  -11.790001291    2.731599113   -1.480411446
   3  H32     0.00  -11.462511754   -0.108659252   -0.778945109
   4  C1      6.00   -6.193010455    2.801518980    2.403542658
   5  H41     1.00   -4.656285171    1.699997622    3.119937832
   6  H42     1.00   -5.973046335    4.726205038    2.982932688
   7  H43     1.00   -7.940251230    2.077186956    3.118237078
   8  H44     1.00   -6.176569838    2.685300823    0.384937212

 Bond lengths in Bohr (Angstrom)

 1-2  1.849511731  1-3  1.846774542  4-5  2.021904040  4-6  2.022002335  4-7  2.021953343
     ( 0.978719459)     ( 0.977271001)     ( 1.069945541)     ( 1.069997556)     ( 1.069971630)

 4-8  2.022015060
     ( 1.070004290)

 Bond angles

  2-1-3  105.58293551   5-4-6  109.53398059   5-4-7  109.65604535   5-4-8  108.43490854

  6-4-7  109.49436728   6-4-8  109.86987750   7-4-8  109.83468330

 NUCLEAR CHARGE:                   10
 NUMBER OF PRIMITIVE AOS:         578
 NUMBER OF SYMMETRY AOS:          474
 NUMBER OF CONTRACTIONS:          436   (  436A   )
 NUMBER OF CORE ORBITALS:           1   (    1A   )
 NUMBER OF VALENCE ORBITALS:        8   (    8A   )

 MOLECULE CHANGED: INITIALIZING OCCUPATION AND DUMP RECORDS


 NUCLEAR REPULSION ENERGY   13.68681606

 Basis set:  JKFIT                   
 Basis size:   740
 Attributes:
 Sphericals:   T
 Basis set:  MP2FIT                  
 Basis size:   816
 Attributes:
 Sphericals:   T
 Basis set:  RI                      
 Basis size:   556
 Attributes:
 Sphericals:   T
 Basis set:  TDDFT                   
 Basis size:   816
 Attributes:
 Sphericals:   T

 Eigenvalues of metric

         1 0.158E-04 0.321E-04 0.347E-04 0.351E-04 0.637E-04 0.951E-04 0.102E-03 0.112E-03


 Contracted 2-electron integrals neglected if value below      1.0D-14

 OPERATOR DM      FOR CENTER  0  COORDINATES:    0.000000    0.000000    0.000000


 **********************************************************************************************************************************
 DATASETS  * FILE   NREC   LENGTH (MB)   RECORD NAMES
              1      18       37.06       500      610      700      900      950      970     1000      129      960     1100   
                                          VAR    BASINP    GEOM    SYMINP    ZMAT    AOBASIS   BASIS     P2S    ABASIS      S 
                                         1400     1410     1200     1210     1080     1600     1650     1700   
                                           T        V       H0       H01     AOSYM     SMH    MOLCAS    OPER   

              2       6       17.39       700     1000      520     2100      200     2101   
                                         GEOM     BASIS   MCVARS     RHF    OPTIONS    RHF  

 PROGRAMS   *        TOTAL       INT   CCSD(T)    HF-SCF       INT   CCSD(T)    HF-SCF       INT
 CPU TIMES  *      7931.57      0.37   1365.80    217.46      0.40   5928.91    230.70    187.65
 REAL TIME  *      8115.12 SEC
 DISK USED  *         3.24 GB (local),       82.06 GB (total)
 SF USED    *         3.08 GB
 GA USED    *         0.00 MB       (max)       0.00 MB       (current)
 **********************************************************************************************************************************


 PROGRAM * RHF-SCF (CLOSED SHELL)       Authors: W. Meyer, H.-J. Werner


 NUMBER OF ELECTRONS:       5+    5-    SPACE SYMMETRY=1    SPIN SYMMETRY: Singlet 
 CONVERGENCE THRESHOLDS:    1.00E-08 (Density)    1.00E-11 (Energy)
 MAX. NUMBER OF ITERATIONS:       60
 INTERPOLATION TYPE:            DIIS
 INTERPOLATION STEPS:              2 (START)      1 (STEP)
 LEVEL SHIFTS:                  0.00 (CLOSED)  0.00 (OPEN) 



 Orbital guess generated from atomic densities. Full valence occupancy:    9

 Molecular orbital dump at record        2102.2

 Initial occupancy:   5

 ITERATION    DDIFF          GRAD             ENERGY        2-EL.EN.            DIPOLE MOMENTS         DIIS   ORB.
    1      0.000D+00      0.000D+00       -40.19609562     53.506288    0.00412   -0.00275   -0.00129    0    start
    2      0.000D+00      0.257D-02       -40.21334968     52.217621    0.00130   -0.00086   -0.00037    1    diag
    3      0.158D-02      0.998D-03       -40.21562559     52.672081    0.00183   -0.00122   -0.00054    2    diag
    4      0.443D-03      0.249D-03       -40.21594505     52.617268    0.00163   -0.00109   -0.00047    3    diag
    5      0.166D-03      0.322D-04       -40.21595054     52.619416    0.00160   -0.00107   -0.00046    4    diag
    6      0.411D-04      0.264D-05       -40.21595058     52.619552    0.00160   -0.00107   -0.00046    5    diag
    7      0.549D-05      0.212D-06       -40.21595058     52.619513    0.00160   -0.00107   -0.00046    6    diag
    8      0.215D-06      0.170D-07       -40.21595058     52.619514    0.00160   -0.00107   -0.00046    7    diag
    9      0.823D-07      0.218D-08       -40.21595058     52.619514    0.00160   -0.00107   -0.00046    8    diag
   10      0.834D-08      0.595D-09       -40.21595058     52.619514    0.00160   -0.00107   -0.00046    0    orth

 Final occupancy:   5

 !RHF STATE  1.1 Energy               -40.215950580553
 Nuclear energy                        13.68681606
 One-electron energy                  -80.21252377
 Two-electron energy                   26.30975713
 Virial quotient                       -0.99838095
 !RHF STATE  1.1 Dipole moment          0.00160108    -0.00106889    -0.00046274
 Dipole moment /Debye                   0.00406927    -0.00271667    -0.00117610

 Orbital energies:

         1.1          2.1          3.1          4.1          5.1          6.1          7.1
    -11.196224    -0.950661    -0.551889    -0.549955    -0.547776     0.025048     0.038247


 HOMO      5.1    -0.547776 =     -14.9057eV
 LUMO      6.1     0.025048 =       0.6816eV
 LUMO-HOMO         0.572824 =      15.5873eV


 **********************************************************************************************************************************
 DATASETS  * FILE   NREC   LENGTH (MB)   RECORD NAMES
              1      18       37.06       500      610      700      900      950      970     1000      129      960     1100   
                                          VAR    BASINP    GEOM    SYMINP    ZMAT    AOBASIS   BASIS     P2S    ABASIS      S 
                                         1400     1410     1200     1210     1080     1600     1650     1700   
                                           T        V       H0       H01     AOSYM     SMH    MOLCAS    OPER   

              2       7       27.51       700     1000      520     2100      200     2101     2102   
                                         GEOM     BASIS   MCVARS     RHF    OPTIONS    RHF      RHF  

 PROGRAMS   *        TOTAL    HF-SCF       INT   CCSD(T)    HF-SCF       INT   CCSD(T)    HF-SCF       INT
 CPU TIMES  *      8111.86    180.29      0.37   1365.80    217.46      0.40   5928.91    230.70    187.65
 REAL TIME  *      8310.84 SEC
 DISK USED  *         3.24 GB (local),       82.06 GB (total)
 SF USED    *         3.08 GB
 GA USED    *         0.00 MB       (max)       0.00 MB       (current)
 **********************************************************************************************************************************

 Basis set:  JKFIT                   
 Basis size:   740
 Attributes:
 Sphericals:   T
 Basis set:  MP2FIT                  
 Basis size:   816
 Attributes:
 Sphericals:   T
 Basis set:  RI                      
 Basis size:   556
 Attributes:
 Sphericals:   T
 Basis set:  TDDFT                   
 Basis size:   816
 Attributes:
 Sphericals:   T

 PROGRAM * CCSD (Closed-shell coupled cluster)     Authors: C. Hampel, H.-J. Werner, 1991, M. Deegan, P.J. Knowles, 1992


 Convergence thresholds:  THRVAR = 1.00D-08  THRDEN = 1.00D-10

 CCSD(T)     terms to be evaluated (factor= 1.000)


 Number of core orbitals:           1 (   1 )
 Number of closed-shell orbitals:   4 (   4 )
 Number of external orbitals:     431 ( 431 )

 Molecular orbitals read from record     2102.2  Type=RHF/CANONICAL (state 1.1)

 Number of N-1 electron functions:               4
 Number of N-2 electron functions:              10
 Number of singly external CSFs:              1724
 Number of doubly external CSFs:           1486950
 Total number of CSFs:                     1488675

 Length of J-op  integral file:               0.00 MB
 Length of K-op  integral file:              13.08 MB
 Length of 3-ext integral record:             0.00 MB

 Memory could be reduced to 526.20 Mwords without degradation in triples

 Integral transformation finished. Total CPU: 161.29 sec, npass=  1  Memory used: 214.76 MW

 Reference energy:                    -40.21595058

 MP2 singlet pair energy:              -0.15443068
 MP2 triplet pair energy:              -0.05646368
 MP2 correlation energy:               -0.21089436
 MP2 total energy:                    -40.42684494

 SCS-MP2 correlation energy:           -0.22044977   (PS=  1.200000  PT=  0.333333)
 SCS-MP2 total energy:                -40.43640036

 ITER.      SQ.NORM     CORR.ENERGY   TOTAL ENERGY   ENERGY CHANGE        DEN1      VAR(S)    VAR(P)  DIIS     TIME  TIME/IT
   1      1.07097421    -0.22687941   -40.44282999    -0.01598505    -0.01039782  0.55D-03  0.97D-03  1  1   209.30    48.94
   2      1.07611928    -0.22797948   -40.44393006    -0.00110007    -0.00547160  0.14D-04  0.91D-04  2  2   257.59    49.43
   3      1.07764055    -0.22801869   -40.44396928    -0.00003922    -0.00107323  0.18D-05  0.58D-05  3  3   305.93    49.55
   4      1.07800026    -0.22802439   -40.44397497    -0.00000569    -0.00017107  0.12D-06  0.28D-06  4  4   354.12    49.60
   5      1.07804830    -0.22802627   -40.44397685    -0.00000189    -0.00001303  0.10D-07  0.20D-07  5  5   402.50    49.65
   6      1.07805655    -0.22802506   -40.44397564     0.00000122    -0.00000328  0.64D-09  0.14D-08  6  6   450.80    49.68
   7      1.07805758    -0.22802477   -40.44397535     0.00000029    -0.00000055  0.46D-10  0.11D-09  6  1   499.52    49.76
   8      1.07805753    -0.22802482   -40.44397540    -0.00000005     0.00000022  0.46D-11  0.65D-11  6  3   547.95    49.79
   9      1.07805765    -0.22802480   -40.44397538     0.00000002    -0.00000008  0.39D-12  0.53D-12  6  2   596.41    49.82
  10      1.07805766    -0.22802480   -40.44397538     0.00000000     0.00000000  0.46D-13  0.56D-13  6  4   644.98    49.86
  11      1.07805766    -0.22802480   -40.44397538     0.00000000     0.00000000  0.42D-14  0.56D-14  6  5   693.60    49.87
  12      1.07805766    -0.22802480   -40.44397538     0.00000000     0.00000000  0.94D-16  0.60D-15  6  6   741.09    49.79
  13      1.07805766    -0.22802480   -40.44397538    -0.00000000     0.00000000  0.71D-17  0.58D-16  6  1   789.46    49.79
  14      1.07805766    -0.22802480   -40.44397538    -0.00000000     0.00000000  0.10D-17  0.76D-17  6  3   837.44    49.76

 Norm of t1 vector:      0.03128320      S-energy:    -0.00000000      T1 diagnostic:  0.00782080
                                                                       D1 diagnostic:  0.01257216

 Total CPU time for triples:    422.07 sec


 RESULTS
 =======

  Reference energy                    -40.215950580552
  CCSD singlet pair energy             -0.173329371483
  CCSD triplet pair energy             -0.054695428714
  CCSD correlation energy              -0.228024800201

  Triples (T) contribution             -0.006882190456
  Total correlation energy             -0.234906990658

  CCSD total energy                   -40.443975380753
  CCSD[T] energy                      -40.451070724951
  CCSD-T energy                       -40.450789962315
 !CCSD(T) total energy                -40.450857571210

 Timing summary (sec):

 STEP                 CPU(USER)    SYS     CPU(TOT)    WALL
 Transformation        161.66      3.89    165.55    165.78
 CCSD iterations       675.86     19.95    695.81    696.81
 Triples               422.07      1.13    423.20    427.35

 Program statistics:

 Available memory in ccsd:              1999999916
 Min. memory needed in ccsd:               6768234
 Max. memory used in ccsd:                 7865440
 Max. memory used in cckext:               5182436 (14 integral passes)



 **********************************************************************************************************************************
 DATASETS  * FILE   NREC   LENGTH (MB)   RECORD NAMES
              1      19     1346.95       500      610      700      900      950      970     1000      129      960     1100   
                                          VAR    BASINP    GEOM    SYMINP    ZMAT    AOBASIS   BASIS     P2S    ABASIS      S 
                                         1400     1410     1200     1210     1080     1600     1650     1700     1380   
                                           T        V       H0       H01     AOSYM     SMH    MOLCAS    OPER     JKOP   

              2       7       27.51       700     1000      520     2100      200     2101     2102   
                                         GEOM     BASIS   MCVARS     RHF    OPTIONS    RHF      RHF  

 PROGRAMS   *        TOTAL   CCSD(T)    HF-SCF       INT   CCSD(T)    HF-SCF       INT   CCSD(T)    HF-SCF       INT
 CPU TIMES  *      9371.67   1259.81    180.29      0.37   1365.80    217.46      0.40   5928.91    230.70    187.65
 REAL TIME  *      9601.59 SEC
 DISK USED  *         3.24 GB (local),       82.06 GB (total)
 SF USED    *         3.08 GB
 GA USED    *         0.00 MB       (max)       0.00 MB       (current)
 **********************************************************************************************************************************
 Molecular orbitals read from record     2102.2  Type=RHF/CANONICAL (state 1.1)
 Occupation numbers read from record     2102.2  Type=RHF/RHF (state 1.1)
 Orbital energies read from record       2102.2  Type=RHF/CANONICAL (state 1.1)
 Redundancy group numbers read from rec  2102.2  Type=RHF/RHF (state 1.1)

 CCSD(T)/aug-cc-pVQZ energy=    -40.450857571210

         CCSD(T)          HF-SCF         CCSD(T)          HF-SCF         CCSD(T)          HF-SCF
    -40.45085757    -40.21595058    -76.36290837    -76.06374416   -116.81435989   -116.27937775
 **********************************************************************************************************************************
 Molpro calculation terminated
