
 Primary working directories    : /scratch/klimes/383120/molpro.E88scWiag0
 Secondary working directories  : /scratch/klimes/383120/molpro.E88scWiag0
 Wavefunction directory         : /scratch/klimes/383120/
 Main file repository           : /scratch/klimes/383120/molpro.E88scWiag0/

 id        : karlovklimes

 Nodes                      nprocs
 nc-05.cc.karlov.mff.cuni.cz    4

 Using customized tuning parameters: mindgm=1; mindgv=20; mindgc=4; mindgr=1; noblas=0; minvec=7
 default implementation of scratch files=sf  


 Variables initialized (930), CPU time= 0.01 sec
                                                                                 !gdirect
 memory,2000,m
 gthresh,orbital=1d-10,energy=1d-10,grid=1d-8
 
 symmetry,nosym
 angstrom
 geometry={
 O17        -4.414800000000      4.436400000000      3.575800000000
 H33        -3.889000000000      4.780900000000      2.793400000000
 H34        -4.626600000000      5.219700000000      4.099200000000
 C1        -3.277200000000      1.482500000000      1.271900000000
 H41        -2.464000000000      0.899600000000      1.651000000000
 H42        -3.160800000000      2.501000000000      1.578500000000
 H43        -4.201800000000      1.099200000000      1.650100000000
 H44        -3.268500000000      1.421000000000      0.203700000000
 }
 
 nkerna=1
 nkernb=1
 
 gf=0
 sing=1
 thrdum=1d-4
 gridthr=1d-8
 
 basis={
 set,orbital
 default,avqz
 set,jkfit
 default,avqz/jkfit
 set,mp2fit
 default,avqz/mp2fit
 set,ri
 default,avqz/optri
 set,tddft
 default,avqz/mp2fit
 }
 
 proc set_monomer1
 dummy,4,5,6,7,8
 endproc
 
 proc set_monomer2
 dummy,1,2,3
 endproc
 
                                                                                 !1234 energy
 {hf,accu=1.d-16}
 ccsd(t)
 
 set_monomer1
 {hf,accu=1.d-16}
 ccsd(t)
 
 set_monomer2
 {hf,accu=1.d-16}
 ccsd(t)
 
 Commands  initialized (760), CPU time= 0.01 sec, 617 directives.
 Default parameters read. Elapsed time= 0.20 sec

 Checking input...
 Passed
1


                                         ***  PROGRAM SYSTEM MOLPRO  ***
                                       Copyright, TTI GmbH Stuttgart, 2015
                                    Version 2019.1 linked Jan 14 2019 13:09:19


 **********************************************************************************************************************************
 LABEL *                                                                                 
  64 bit mpp version                                                                     DATE: 11-Mar-20          TIME: 15:58:41  
 **********************************************************************************************************************************

 SHA1:             d688ac825633d238f2093ded1675ba87ccd55965
 **********************************************************************************************************************************

 THRESHOLDS:

 ZERO    =  1.00D-12  ONEINT  =  1.00D-12  TWOINT  =  1.00D-11  PREFAC  =  1.00D-14  XXXXXX  =  1.00D-09  EORDER  =  1.00D-04
 ENERGY  =  1.00D-10  ETEST   =  0.00D+00  EDENS   =  0.00D+00  THRDEDEF=  1.00D-06  GRADIENT=  1.00D-02  STEP    =  1.00D-03
 ORBITAL =  1.00D-10  CIVEC   =  1.00D-05  COEFF   =  1.00D-04  PRINTCI =  5.00D-02  PUNCHCI =  9.90D+01  OPTGRAD =  3.00D-04
 OPTENERG=  1.00D-06  OPTSTEP =  3.00D-04  THRGRAD =  1.00D-10  COMPRESS=  1.00D-11  VARMIN  =  1.00D-07  VARMAX  =  1.00D-03
 THRDOUB =  0.00D+00  THRDIV  =  1.00D-05  THRRED  =  1.00D-07  THRPSP  =  1.00D+00  THRDC   =  1.00D-10  THRCS   =  1.00D-10
 THRNRM  =  1.00D-08  THREQ   =  0.00D+00  THRDE   =  1.00D+00  THRREF  =  1.00D-05  SPARFAC =  1.00D+00  THRDLP  =  1.00D-07
 THRDIA  =  1.00D-10  THRDLS  =  1.00D-07  THRGPS  =  0.00D+00  THRKEX  =  0.00D+00  THRDIS  =  2.00D-01  THRVAR  =  1.00D-10
 THRLOC  =  1.00D-06  THRGAP  =  1.00D-06  THRLOCT = -1.00D+00  THRGAPT = -1.00D+00  THRORB  =  1.00D-06  THRMLTP =  0.00D+00
 THRCPQCI=  1.00D-10  KEXTA   =  0.00D+00  THRCOARS=  0.00D+00  SYMTOL  =  1.00D-06  GRADTOL =  1.00D-06  THROVL  =  1.00D-08
 THRORTH =  1.00D-08  GRID    =  1.00D-08  GRIDMAX =  1.00D-03  DTMAX   =  0.00D+00  THROCCDE=  1.00D-01  THROCCDE=  1.00D-01
 THRPRINT=  2.50D-01


 Variable memory set to 2000000000 words,  buffer space 

 ZSYMEL=NOSYM
 ZUNIT=ANG


Geometry recognized as XYZ

 SETTING NKERNA         =         1.00000000                                  
 SETTING NKERNB         =         1.00000000                                  
 SETTING GF             =     0.00000000D+00                                  
 SETTING SING           =         1.00000000                                  
 SETTING THRDUM         =     1.00000000D-04                                  
 SETTING GRIDTHR        =     1.00000000D-08                                  
 SETTING BASIS          =    AVQZ


 Recomputing integrals since basis changed


 Using spherical harmonics

 Library entry O      S aug-cc-pVQZ          selected for orbital group  1
 Library entry O      P aug-cc-pVQZ          selected for orbital group  1
 Library entry O      D aug-cc-pVQZ          selected for orbital group  1
 Library entry O      F aug-cc-pVQZ          selected for orbital group  1
 Library entry O      G aug-cc-pVQZ          selected for orbital group  1
 Library entry H      S aug-cc-pVQZ          selected for orbital group  2
 Library entry H      P aug-cc-pVQZ          selected for orbital group  2
 Library entry H      D aug-cc-pVQZ          selected for orbital group  2
 Library entry H      F aug-cc-pVQZ          selected for orbital group  2
 Library entry C      S aug-cc-pVQZ          selected for orbital group  3
 Library entry C      P aug-cc-pVQZ          selected for orbital group  3
 Library entry C      D aug-cc-pVQZ          selected for orbital group  3
 Library entry C      F aug-cc-pVQZ          selected for orbital group  3
 Library entry C      G aug-cc-pVQZ          selected for orbital group  3


 PROGRAM * SEWARD (Integral evaluation for generally contracted gaussian basis sets)     Author: Roland Lindh, 1990

 Geometry written to block  1 of record 700


 Point group  C1  



 ATOMIC COORDINATES

 NR  ATOM    CHARGE       X              Y              Z

   1  O17     8.00   -8.342762895    8.383580979    6.757282676
   2  H33     1.00   -7.349144898    9.034591629    5.278760956
   3  H34     1.00   -8.743006888    9.863803452    7.746365330
   4  C1      6.00   -6.193010455    2.801518980    2.403542658
   5  H41     1.00   -4.656285171    1.699997622    3.119937832
   6  H42     1.00   -5.973046335    4.726205038    2.982932688
   7  H43     1.00   -7.940251230    2.077186956    3.118237078
   8  H44     1.00   -6.176569838    2.685300823    0.384937212

 Bond lengths in Bohr (Angstrom)

 1-2  1.896606987  1-3  1.824702255  4-5  2.021904040  4-6  2.022002335  4-7  2.021953343
     ( 1.003641196)     ( 0.965590850)     ( 1.069945541)     ( 1.069997556)     ( 1.069971630)

 4-8  2.022015060
     ( 1.070004290)

 Bond angles

  2-1-3  105.01239280   5-4-6  109.53398059   5-4-7  109.65604535   5-4-8  108.43490854

  6-4-7  109.49436728   6-4-8  109.86987750   7-4-8  109.83468330

 NUCLEAR CHARGE:                   20
 NUMBER OF PRIMITIVE AOS:         578
 NUMBER OF SYMMETRY AOS:          474
 NUMBER OF CONTRACTIONS:          436   (  436A   )
 NUMBER OF CORE ORBITALS:           2   (    2A   )
 NUMBER OF VALENCE ORBITALS:       14   (   14A   )


 NUCLEAR REPULSION ENERGY   35.98231600


 Basis set:  JKFIT                   
 Basis size:   740
 Attributes:
 Sphericals:   T
 Basis set:  MP2FIT                  
 Basis size:   816
 Attributes:
 Sphericals:   T
 Basis set:  RI                      
 Basis size:   556
 Attributes:
 Sphericals:   T
 Basis set:  TDDFT                   
 Basis size:   816
 Attributes:
 Sphericals:   T

 **********************************************************************************************************************************


 Eigenvalues of metric

         1 0.142E-04 0.208E-04 0.324E-04 0.357E-04 0.625E-04 0.763E-04 0.872E-04 0.951E-04


 Contracted 2-electron integrals neglected if value below      1.0D-14
 AO integral compression algorithm  1   Integral accuracy      1.0D-14

     22122.332 MB (compressed) written to integral file ( 55.2%)

     Node minimum: 4878.238 MB, node maximum: 5858.656 MB


 NUMBER OF SORTED TWO-ELECTRON INTEGRALS: 1134451344.     BUFFER LENGTH:  32768
 NUMBER OF SEGMENTS:  36  SEGMENT LENGTH:   31999984      RECORD LENGTH: 524288

 Memory used in sort:      32.56 MW

 SORT1 READ  5012305700. AND WROTE   930002393. INTEGRALS IN   2676 RECORDS. CPU TIME:    92.58 SEC, REAL TIME:   103.45 SEC
 SORT2 READ  3720716566. AND WROTE  4537853011. INTEGRALS IN  74436 RECORDS. CPU TIME:    16.91 SEC, REAL TIME:    26.82 SEC

 Node minimum:  1134427528.  Node maximum:  1134498978. integrals

 OPERATOR DM      FOR CENTER  0  COORDINATES:    0.000000    0.000000    0.000000


 **********************************************************************************************************************************
 DATASETS  * FILE   NREC   LENGTH (MB)   RECORD NAMES
              1      18       37.06       500      610      700      900      950      970     1000      129      960     1100   
                                          VAR    BASINP    GEOM    SYMINP    ZMAT    AOBASIS   BASIS     P2S    ABASIS      S 
                                         1400     1410     1200     1210     1080     1600     1650     1700   
                                           T        V       H0       H01     AOSYM     SMH    MOLCAS    OPER   

 PROGRAMS   *        TOTAL       INT
 CPU TIMES  *       172.72    172.52
 REAL TIME  *       201.21 SEC
 DISK USED  *        37.58 MB (local),       66.85 GB (total)
 GA USED    *         0.00 MB       (max)       0.00 MB       (current)
 **********************************************************************************************************************************


 PROGRAM * RHF-SCF (CLOSED SHELL)       Authors: W. Meyer, H.-J. Werner


 NUMBER OF ELECTRONS:      10+   10-    SPACE SYMMETRY=1    SPIN SYMMETRY: Singlet 
 CONVERGENCE THRESHOLDS:    1.00E-08 (Density)    1.00E-11 (Energy)
 MAX. NUMBER OF ITERATIONS:       60
 INTERPOLATION TYPE:            DIIS
 INTERPOLATION STEPS:              2 (START)      1 (STEP)
 LEVEL SHIFTS:                  0.00 (CLOSED)  0.00 (OPEN) 



 Orbital guess generated from atomic densities. Full valence occupancy:   16

 Molecular orbital dump at record        2100.2

 Initial occupancy:  10

 ITERATION    DDIFF          GRAD             ENERGY        2-EL.EN.            DIPOLE MOMENTS         DIIS   ORB.
    1      0.000D+00      0.000D+00      -116.21851579    157.691789    0.31327    1.08547   -0.26156    0    start
    2      0.000D+00      0.380D-02      -116.26291469    152.635062    0.14452    0.62237   -0.09858    1    diag
    3      0.273D-02      0.225D-02      -116.27683231    154.738304    0.18672    0.74095   -0.13925    2    diag
    4      0.951D-03      0.333D-03      -116.27750164    154.624777    0.18319    0.73040   -0.13590    3    diag
    5      0.204D-03      0.982D-04      -116.27757248    154.620227    0.18255    0.73014   -0.13506    4    diag
    6      0.834D-04      0.238D-04      -116.27757643    154.625894    0.18226    0.72940   -0.13474    5    diag
    7      0.225D-04      0.480D-05      -116.27757667    154.624289    0.18224    0.72942   -0.13471    6    diag
    8      0.651D-05      0.124D-05      -116.27757669    154.624467    0.18221    0.72937   -0.13466    7    diag
    9      0.139D-05      0.291D-06      -116.27757669    154.624440    0.18220    0.72935   -0.13465    8    diag
   10      0.424D-06      0.335D-07      -116.27757669    154.624440    0.18220    0.72935   -0.13465    9    orth
   11      0.435D-07      0.782D-08      -116.27757669    154.624442    0.18220    0.72935   -0.13465    9    diag
   12      0.100D-07      0.208D-08      -116.27757669    154.624441    0.18220    0.72935   -0.13465    9    diag
   13      0.256D-08      0.544D-09      -116.27757669    154.624442    0.18220    0.72935   -0.13465    0    orth

 Final occupancy:  10

 !RHF STATE  1.1 Energy              -116.277576689765
 Nuclear energy                        35.98231600
 One-electron energy                 -229.57211354
 Two-electron energy                   77.31222085
 Virial quotient                       -1.00087952
 !RHF STATE  1.1 Dipole moment          0.18220103     0.72934654    -0.13464897
 Dipole moment /Debye                   0.46307850     1.85369257    -0.34222114

 Orbital energies:

         1.1          2.1          3.1          4.1          5.1          6.1          7.1          8.1          9.1         10.1
    -20.569610   -11.191397    -1.339727    -0.945650    -0.704965    -0.579326    -0.546457    -0.544927    -0.543097    -0.508681

        11.1         12.1
      0.024579     0.035456


 HOMO     10.1    -0.508681 =     -13.8419eV
 LUMO     11.1     0.024579 =       0.6688eV
 LUMO-HOMO         0.533260 =      14.5107eV


 **********************************************************************************************************************************
 DATASETS  * FILE   NREC   LENGTH (MB)   RECORD NAMES
              1      18       37.06       500      610      700      900      950      970     1000      129      960     1100   
                                          VAR    BASINP    GEOM    SYMINP    ZMAT    AOBASIS   BASIS     P2S    ABASIS      S 
                                         1400     1410     1200     1210     1080     1600     1650     1700   
                                           T        V       H0       H01     AOSYM     SMH    MOLCAS    OPER   

              2       4        6.75       700     1000      520     2100   
                                         GEOM     BASIS   MCVARS     RHF  

 PROGRAMS   *        TOTAL    HF-SCF       INT
 CPU TIMES  *       398.25    225.53    172.52
 REAL TIME  *       449.51 SEC
 DISK USED  *        57.63 MB (local),       66.93 GB (total)
 SF USED    *         0.76 MB
 GA USED    *         0.00 MB       (max)       0.00 MB       (current)
 **********************************************************************************************************************************

 Basis set:  JKFIT                   
 Basis size:   740
 Attributes:
 Sphericals:   T
 Basis set:  MP2FIT                  
 Basis size:   816
 Attributes:
 Sphericals:   T
 Basis set:  RI                      
 Basis size:   556
 Attributes:
 Sphericals:   T
 Basis set:  TDDFT                   
 Basis size:   816
 Attributes:
 Sphericals:   T

 PROGRAM * CCSD (Closed-shell coupled cluster)     Authors: C. Hampel, H.-J. Werner, 1991, M. Deegan, P.J. Knowles, 1992


 Convergence thresholds:  THRVAR = 1.00D-08  THRDEN = 1.00D-10

 CCSD(T)     terms to be evaluated (factor= 1.000)


 Number of core orbitals:           2 (   2 )
 Number of closed-shell orbitals:   8 (   8 )
 Number of external orbitals:     426 ( 426 )

 Molecular orbitals read from record     2100.2  Type=RHF/CANONICAL (state 1.1)

 Number of N-1 electron functions:               8
 Number of N-2 electron functions:              36
 Number of singly external CSFs:              3408
 Number of doubly external CSFs:           5808936
 Total number of CSFs:                     5812345

 Length of J-op  integral file:               0.00 MB
 Length of K-op  integral file:              13.08 MB
 Length of 3-ext integral record:             0.00 MB

 Memory could be reduced to 828.85 Mwords without degradation in triples

 Integral transformation finished. Total CPU: 324.94 sec, npass=  1  Memory used: 389.48 MW

 Reference energy:                   -116.27757669

 MP2 singlet pair energy:              -0.34111450
 MP2 triplet pair energy:              -0.15846136
 MP2 correlation energy:               -0.49957586
 MP2 total energy:                   -116.77715255

 SCS-MP2 correlation energy:           -0.50793558   (PS=  1.200000  PT=  0.333333)
 SCS-MP2 total energy:               -116.78551227

 ITER.      SQ.NORM     CORR.ENERGY   TOTAL ENERGY   ENERGY CHANGE        DEN1      VAR(S)    VAR(P)  DIIS     TIME  TIME/IT
   1      1.13604477    -0.51721460  -116.79479129    -0.01763874    -0.00610088  0.14D-02  0.20D-02  1  1   481.37   157.18
   2      1.14469456    -0.51856755  -116.79614424    -0.00135295    -0.01027273  0.27D-04  0.25D-03  2  2   639.45   158.51
   3      1.14793430    -0.51869212  -116.79626881    -0.00012457    -0.00226892  0.12D-04  0.13D-04  3  3   796.00   158.99
   4      1.14880409    -0.51869536  -116.79627205    -0.00000325    -0.00041217  0.60D-06  0.12D-05  4  4   952.42   158.81
   5      1.14896239    -0.51869512  -116.79627181     0.00000024    -0.00004656  0.20D-06  0.86D-07  5  5  1109.66   158.84
   6      1.14901165    -0.51869138  -116.79626807     0.00000375    -0.00001180  0.19D-07  0.61D-08  6  6  1266.12   158.78
   7      1.14902107    -0.51869039  -116.79626708     0.00000098    -0.00000149  0.16D-08  0.84D-09  6  2  1422.00   158.70
   8      1.14902307    -0.51869027  -116.79626696     0.00000012     0.00000006  0.28D-09  0.87D-10  6  1  1577.67   158.60
   9      1.14902393    -0.51869021  -116.79626690     0.00000006    -0.00000004  0.19D-10  0.12D-10  6  3  1733.55   158.60
  10      1.14902403    -0.51869021  -116.79626690    -0.00000000     0.00000008  0.24D-11  0.15D-11  6  4  1889.79   158.57
  11      1.14902397    -0.51869022  -116.79626691    -0.00000001     0.00000007  0.41D-12  0.25D-12  6  6  2046.45   158.55
  12      1.14902396    -0.51869022  -116.79626691    -0.00000000     0.00000002  0.81D-13  0.26D-13  6  5  2202.66   158.52
  13      1.14902394    -0.51869022  -116.79626691    -0.00000000     0.00000001  0.16D-13  0.39D-14  6  2  2359.10   158.53
  14      1.14902394    -0.51869022  -116.79626691    -0.00000000     0.00000000  0.23D-14  0.99D-15  6  1  2514.35   158.65
  15      1.14902394    -0.51869022  -116.79626691    -0.00000000    -0.00000000  0.20D-15  0.12D-15  6  3  2670.57   158.62
  16      1.14902394    -0.51869022  -116.79626691    -0.00000000    -0.00000000  0.29D-16  0.17D-16  6  4  2826.87   158.58

 Norm of t1 vector:      0.05032361      S-energy:     0.00000000      T1 diagnostic:  0.00889604
                                                                       D1 diagnostic:  0.02062560

   CPU time for triples:   1935.79 sec for i =  1 -  7 /  8 (~  68.8 % done)
   CPU time for triples:    915.25 sec for i =  8 -  8 /  8 (  100.0 % done)

 Total CPU time for triples:   2852.45 sec


 RESULTS
 =======

  Reference energy                   -116.277576689765
  CCSD singlet pair energy             -0.373840182877
  CCSD triplet pair energy             -0.144850038128
  CCSD correlation energy              -0.518690220949

  Triples (T) contribution             -0.016653068857
  Total correlation energy             -0.535343289807

  CCSD total energy                  -116.796266910714
  CCSD[T] energy                     -116.813459783741
  CCSD-T energy                      -116.812693533824
 !CCSD(T) total energy               -116.812919979572

 Timing summary (sec):

 STEP                 CPU(USER)    SYS     CPU(TOT)    WALL
 Transformation        326.11      9.03    335.14    341.18
 CCSD iterations      2500.88     27.21   2528.09   2537.53
 Triples              2852.45      6.29   2858.74   2862.85

 Program statistics:

 Available memory in ccsd:              1999999734
 Min. memory needed in ccsd:              17010489
 Max. memory used in ccsd:                22038113
 Max. memory used in cckext:              15155228 (16 integral passes)



 **********************************************************************************************************************************
 DATASETS  * FILE   NREC   LENGTH (MB)   RECORD NAMES
              1      19     2602.11       500      610      700      900      950      970     1000      129      960     1100   
                                          VAR    BASINP    GEOM    SYMINP    ZMAT    AOBASIS   BASIS     P2S    ABASIS      S 
                                         1400     1410     1200     1210     1080     1600     1650     1700     1380   
                                           T        V       H0       H01     AOSYM     SMH    MOLCAS    OPER     JKOP   

              2       4        6.75       700     1000      520     2100   
                                         GEOM     BASIS   MCVARS     RHF  

 PROGRAMS   *        TOTAL   CCSD(T)    HF-SCF       INT
 CPU TIMES  *      6077.89   5679.64    225.53    172.52
 REAL TIME  *      6192.17 SEC
 DISK USED  *         3.24 GB (local),       77.77 GB (total)
 SF USED    *         3.08 GB
 GA USED    *         0.00 MB       (max)       0.00 MB       (current)
 **********************************************************************************************************************************

 Running procedure: SET_MONOMER1

 Dummy atoms: C1  H41  H42  H43  H44


 Recomputing one-electron integrals since nuclear charges changed


 PROGRAM * SEWARD (Integral evaluation for generally contracted gaussian basis sets)     Author: Roland Lindh, 1990

 Geometry written to block  1 of record 700


 Point group  C1  



 ATOMIC COORDINATES

 NR  ATOM    CHARGE       X              Y              Z

   1  O17     8.00   -8.342762895    8.383580979    6.757282676
   2  H33     1.00   -7.349144898    9.034591629    5.278760956
   3  H34     1.00   -8.743006888    9.863803452    7.746365330
   4  C1      0.00   -6.193010455    2.801518980    2.403542658
   5  H41     0.00   -4.656285171    1.699997622    3.119937832
   6  H42     0.00   -5.973046335    4.726205038    2.982932688
   7  H43     0.00   -7.940251230    2.077186956    3.118237078
   8  H44     0.00   -6.176569838    2.685300823    0.384937212

 Bond lengths in Bohr (Angstrom)

 1-2  1.896606987  1-3  1.824702255  4-5  2.021904040  4-6  2.022002335  4-7  2.021953343
     ( 1.003641196)     ( 0.965590850)     ( 1.069945541)     ( 1.069997556)     ( 1.069971630)

 4-8  2.022015060
     ( 1.070004290)

 Bond angles

  2-1-3  105.01239280   5-4-6  109.53398059   5-4-7  109.65604535   5-4-8  108.43490854

  6-4-7  109.49436728   6-4-8  109.86987750   7-4-8  109.83468330

 NUCLEAR CHARGE:                   10
 NUMBER OF PRIMITIVE AOS:         578
 NUMBER OF SYMMETRY AOS:          474
 NUMBER OF CONTRACTIONS:          436   (  436A   )
 NUMBER OF CORE ORBITALS:           1   (    1A   )
 NUMBER OF VALENCE ORBITALS:        6   (    6A   )

 MOLECULE CHANGED: INITIALIZING OCCUPATION AND DUMP RECORDS


 NUCLEAR REPULSION ENERGY    8.94098799

 Basis set:  JKFIT                   
 Basis size:   740
 Attributes:
 Sphericals:   T
 Basis set:  MP2FIT                  
 Basis size:   816
 Attributes:
 Sphericals:   T
 Basis set:  RI                      
 Basis size:   556
 Attributes:
 Sphericals:   T
 Basis set:  TDDFT                   
 Basis size:   816
 Attributes:
 Sphericals:   T

 Eigenvalues of metric

         1 0.142E-04 0.208E-04 0.324E-04 0.357E-04 0.625E-04 0.763E-04 0.872E-04 0.951E-04


 Contracted 2-electron integrals neglected if value below      1.0D-14

 OPERATOR DM      FOR CENTER  0  COORDINATES:    0.000000    0.000000    0.000000


 **********************************************************************************************************************************
 DATASETS  * FILE   NREC   LENGTH (MB)   RECORD NAMES
              1      18       37.06       500      610      700      900      950      970     1000      129      960     1100   
                                          VAR    BASINP    GEOM    SYMINP    ZMAT    AOBASIS   BASIS     P2S    ABASIS      S 
                                         1400     1410     1200     1210     1080     1600     1650     1700   
                                           T        V       H0       H01     AOSYM     SMH    MOLCAS    OPER   

              2       5       10.59       700     1000      520     2100      200   
                                         GEOM     BASIS   MCVARS     RHF    OPTIONS    

 PROGRAMS   *        TOTAL       INT   CCSD(T)    HF-SCF       INT
 CPU TIMES  *      6078.28      0.37   5679.64    225.53    172.52
 REAL TIME  *      6193.37 SEC
 DISK USED  *         3.24 GB (local),       77.78 GB (total)
 SF USED    *         3.08 GB
 GA USED    *         0.00 MB       (max)       0.00 MB       (current)
 **********************************************************************************************************************************


 PROGRAM * RHF-SCF (CLOSED SHELL)       Authors: W. Meyer, H.-J. Werner


 NUMBER OF ELECTRONS:       5+    5-    SPACE SYMMETRY=1    SPIN SYMMETRY: Singlet 
 CONVERGENCE THRESHOLDS:    1.00E-08 (Density)    1.00E-11 (Energy)
 MAX. NUMBER OF ITERATIONS:       60
 INTERPOLATION TYPE:            DIIS
 INTERPOLATION STEPS:              2 (START)      1 (STEP)
 LEVEL SHIFTS:                  0.00 (CLOSED)  0.00 (OPEN) 



 Orbital guess generated from atomic densities. Full valence occupancy:    7

 Molecular orbital dump at record        2101.2

 Initial occupancy:   5

 ITERATION    DDIFF          GRAD             ENERGY        2-EL.EN.            DIPOLE MOMENTS         DIIS   ORB.
    1      0.000D+00      0.000D+00       -76.02321603     77.330756    0.31040    1.08948   -0.26178    0    start
    2      0.000D+00      0.468D-02       -76.05006509     73.648010    0.17330    0.63120   -0.14097    1    diag
    3      0.222D-02      0.300D-02       -76.06187635     75.287316    0.20640    0.74652   -0.16909    2    diag
    4      0.845D-03      0.280D-03       -76.06207623     75.195693    0.20389    0.74223   -0.16595    3    diag
    5      0.105D-03      0.798D-04       -76.06209865     75.210322    0.20289    0.74065   -0.16468    4    diag
    6      0.337D-04      0.162D-04       -76.06210016     75.209217    0.20261    0.74031   -0.16430    5    diag
    7      0.875D-05      0.332D-05       -76.06210024     75.209365    0.20253    0.74020   -0.16419    6    diag
    8      0.239D-05      0.611D-06       -76.06210024     75.209348    0.20252    0.74016   -0.16417    7    diag
    9      0.432D-06      0.839D-07       -76.06210024     75.209339    0.20252    0.74016   -0.16417    8    diag
   10      0.527D-07      0.203D-07       -76.06210024     75.209341    0.20252    0.74016   -0.16417    9    orth
   11      0.138D-07      0.484D-08       -76.06210024     75.209341    0.20252    0.74016   -0.16417    9    diag
   12      0.361D-08      0.940D-09       -76.06210024     75.209341    0.20252    0.74016   -0.16417    0    orth

 Final occupancy:   5

 !RHF STATE  1.1 Energy               -76.062100238681
 Nuclear energy                         8.94098799
 One-electron energy                 -122.60775878
 Two-electron energy                   37.60467055
 Virial quotient                       -1.00223875
 !RHF STATE  1.1 Dipole moment          0.20251601     0.74015742    -0.16417005
 Dipole moment /Debye                   0.51471063     1.88116928    -0.41725131

 Orbital energies:

         1.1          2.1          3.1          4.1          5.1          6.1          7.1
    -20.569139    -1.339151    -0.704100    -0.578637    -0.508182     0.021155     0.032818


 HOMO      5.1    -0.508182 =     -13.8283eV
 LUMO      6.1     0.021155 =       0.5757eV
 LUMO-HOMO         0.529337 =      14.4040eV


 **********************************************************************************************************************************
 DATASETS  * FILE   NREC   LENGTH (MB)   RECORD NAMES
              1      18       37.06       500      610      700      900      950      970     1000      129      960     1100   
                                          VAR    BASINP    GEOM    SYMINP    ZMAT    AOBASIS   BASIS     P2S    ABASIS      S 
                                         1400     1410     1200     1210     1080     1600     1650     1700   
                                           T        V       H0       H01     AOSYM     SMH    MOLCAS    OPER   

              2       6       17.39       700     1000      520     2100      200     2101   
                                         GEOM     BASIS   MCVARS     RHF    OPTIONS    RHF  

 PROGRAMS   *        TOTAL    HF-SCF       INT   CCSD(T)    HF-SCF       INT
 CPU TIMES  *      6286.44    208.16      0.37   5679.64    225.53    172.52
 REAL TIME  *      6415.85 SEC
 DISK USED  *         3.24 GB (local),       77.78 GB (total)
 SF USED    *         3.08 GB
 GA USED    *         0.00 MB       (max)       0.00 MB       (current)
 **********************************************************************************************************************************

 Basis set:  JKFIT                   
 Basis size:   740
 Attributes:
 Sphericals:   T
 Basis set:  MP2FIT                  
 Basis size:   816
 Attributes:
 Sphericals:   T
 Basis set:  RI                      
 Basis size:   556
 Attributes:
 Sphericals:   T
 Basis set:  TDDFT                   
 Basis size:   816
 Attributes:
 Sphericals:   T

 PROGRAM * CCSD (Closed-shell coupled cluster)     Authors: C. Hampel, H.-J. Werner, 1991, M. Deegan, P.J. Knowles, 1992


 Convergence thresholds:  THRVAR = 1.00D-08  THRDEN = 1.00D-10

 CCSD(T)     terms to be evaluated (factor= 1.000)


 Number of core orbitals:           1 (   1 )
 Number of closed-shell orbitals:   4 (   4 )
 Number of external orbitals:     431 ( 431 )

 Molecular orbitals read from record     2101.2  Type=RHF/CANONICAL (state 1.1)

 Number of N-1 electron functions:               4
 Number of N-2 electron functions:              10
 Number of singly external CSFs:              1724
 Number of doubly external CSFs:           1486950
 Total number of CSFs:                     1488675

 Length of J-op  integral file:               0.00 MB
 Length of K-op  integral file:              13.08 MB
 Length of 3-ext integral record:             0.00 MB

 Memory could be reduced to 526.20 Mwords without degradation in triples

 Integral transformation finished. Total CPU: 160.50 sec, npass=  1  Memory used: 214.76 MW

 Reference energy:                    -76.06210024

 MP2 singlet pair energy:              -0.18648683
 MP2 triplet pair energy:              -0.10153007
 MP2 correlation energy:               -0.28801689
 MP2 total energy:                    -76.35011713

 SCS-MP2 correlation energy:           -0.28695845   (PS=  1.200000  PT=  0.333333)
 SCS-MP2 total energy:                -76.34905869

 ITER.      SQ.NORM     CORR.ENERGY   TOTAL ENERGY   ENERGY CHANGE        DEN1      VAR(S)    VAR(P)  DIIS     TIME  TIME/IT
   1      1.06481008    -0.28971262   -76.35181286    -0.00169573     0.00424254  0.86D-03  0.11D-02  1  1   206.39    46.69
   2      1.06852083    -0.28997170   -76.35207194    -0.00025908    -0.00496851  0.15D-04  0.12D-03  2  2   255.66    48.79
   3      1.07001703    -0.29005436   -76.35215460    -0.00008266    -0.00103766  0.91D-05  0.65D-05  3  3   304.77    49.45
   4      1.07050497    -0.29005392   -76.35215416     0.00000044    -0.00022609  0.49D-06  0.76D-06  4  4   354.34    49.87
   5      1.07061024    -0.29005165   -76.35215189     0.00000228    -0.00003240  0.17D-06  0.50D-07  5  5   403.70    50.15
   6      1.07064836    -0.29004846   -76.35214870     0.00000318    -0.00000874  0.15D-07  0.36D-08  6  6   453.55    50.38
   7      1.07065549    -0.29004811   -76.35214835     0.00000035    -0.00000053  0.10D-08  0.57D-09  6  1   500.81    50.19
   8      1.07065683    -0.29004806   -76.35214830     0.00000006     0.00000023  0.17D-09  0.64D-10  6  2   546.73    49.83
   9      1.07065746    -0.29004800   -76.35214824     0.00000005    -0.00000001  0.11D-10  0.64D-11  6  3   592.54    49.53
  10      1.07065753    -0.29004800   -76.35214824     0.00000000     0.00000003  0.20D-11  0.84D-12  6  4   639.83    49.42
  11      1.07065752    -0.29004800   -76.35214824    -0.00000000     0.00000002  0.43D-12  0.15D-12  6  5   687.14    49.34
  12      1.07065751    -0.29004800   -76.35214824    -0.00000000     0.00000001  0.82D-13  0.21D-13  6  6   734.14    49.26
  13      1.07065750    -0.29004800   -76.35214824    -0.00000000     0.00000000  0.11D-13  0.36D-14  6  1   781.17    49.19
  14      1.07065749    -0.29004800   -76.35214824    -0.00000000     0.00000000  0.11D-14  0.74D-15  6  2   828.11    49.13
  15      1.07065749    -0.29004800   -76.35214824    -0.00000000     0.00000000  0.12D-15  0.89D-16  6  3   874.98    49.07
  16      1.07065749    -0.29004800   -76.35214824    -0.00000000     0.00000000  0.15D-16  0.12D-16  6  4   922.10    49.03

 Norm of t1 vector:      0.03899661      S-energy:    -0.00000000      T1 diagnostic:  0.00974915
                                                                       D1 diagnostic:  0.02038276


 Total CPU time for triples:    432.21 sec


 RESULTS
 =======

  Reference energy                    -76.062100238683
  CCSD singlet pair energy             -0.200367786731
  CCSD triplet pair energy             -0.089680218149
  CCSD correlation energy              -0.290048004929

  Triples (T) contribution             -0.009658453796
  Total correlation energy             -0.299706458726

  CCSD total energy                   -76.352148243612
  CCSD[T] energy                      -76.362130129338
  CCSD-T energy                       -76.361650123750
 !CCSD(T) total energy                -76.361806697408

 Timing summary (sec):

 STEP                 CPU(USER)    SYS     CPU(TOT)    WALL
 Transformation        160.84      3.74    164.58    164.88
 CCSD iterations       761.33     22.08    783.41    784.69
 Triples               432.21      1.02    433.23    433.86

 Program statistics:

 Available memory in ccsd:              1999999921
 Min. memory needed in ccsd:               6768234
 Max. memory used in ccsd:                 7865440
 Max. memory used in cckext:               5182436 (16 integral passes)



 **********************************************************************************************************************************
 DATASETS  * FILE   NREC   LENGTH (MB)   RECORD NAMES
              1      19     1346.95       500      610      700      900      950      970     1000      129      960     1100   
                                          VAR    BASINP    GEOM    SYMINP    ZMAT    AOBASIS   BASIS     P2S    ABASIS      S 
                                         1400     1410     1200     1210     1080     1600     1650     1700     1380   
                                           T        V       H0       H01     AOSYM     SMH    MOLCAS    OPER     JKOP   

              2       6       17.39       700     1000      520     2100      200     2101   
                                         GEOM     BASIS   MCVARS     RHF    OPTIONS    RHF  

 PROGRAMS   *        TOTAL   CCSD(T)    HF-SCF       INT   CCSD(T)    HF-SCF       INT
 CPU TIMES  *      7641.04   1354.60    208.16      0.37   5679.64    225.53    172.52
 REAL TIME  *      7800.16 SEC
 DISK USED  *         3.24 GB (local),       77.78 GB (total)
 SF USED    *         3.08 GB
 GA USED    *         0.00 MB       (max)       0.00 MB       (current)
 **********************************************************************************************************************************

 Running procedure: SET_MONOMER2

 Dummy atoms: O17  H33  H34


 Recomputing one-electron integrals since nuclear charges changed


 PROGRAM * SEWARD (Integral evaluation for generally contracted gaussian basis sets)     Author: Roland Lindh, 1990

 Geometry written to block  1 of record 700


 Point group  C1  



 ATOMIC COORDINATES

 NR  ATOM    CHARGE       X              Y              Z

   1  O17     0.00   -8.342762895    8.383580979    6.757282676
   2  H33     0.00   -7.349144898    9.034591629    5.278760956
   3  H34     0.00   -8.743006888    9.863803452    7.746365330
   4  C1      6.00   -6.193010455    2.801518980    2.403542658
   5  H41     1.00   -4.656285171    1.699997622    3.119937832
   6  H42     1.00   -5.973046335    4.726205038    2.982932688
   7  H43     1.00   -7.940251230    2.077186956    3.118237078
   8  H44     1.00   -6.176569838    2.685300823    0.384937212

 Bond lengths in Bohr (Angstrom)

 1-2  1.896606987  1-3  1.824702255  4-5  2.021904040  4-6  2.022002335  4-7  2.021953343
     ( 1.003641196)     ( 0.965590850)     ( 1.069945541)     ( 1.069997556)     ( 1.069971630)

 4-8  2.022015060
     ( 1.070004290)

 Bond angles

  2-1-3  105.01239280   5-4-6  109.53398059   5-4-7  109.65604535   5-4-8  108.43490854

  6-4-7  109.49436728   6-4-8  109.86987750   7-4-8  109.83468330

 NUCLEAR CHARGE:                   10
 NUMBER OF PRIMITIVE AOS:         578
 NUMBER OF SYMMETRY AOS:          474
 NUMBER OF CONTRACTIONS:          436   (  436A   )
 NUMBER OF CORE ORBITALS:           1   (    1A   )
 NUMBER OF VALENCE ORBITALS:        8   (    8A   )

 MOLECULE CHANGED: INITIALIZING OCCUPATION AND DUMP RECORDS


 NUCLEAR REPULSION ENERGY   13.68681606

 Basis set:  JKFIT                   
 Basis size:   740
 Attributes:
 Sphericals:   T
 Basis set:  MP2FIT                  
 Basis size:   816
 Attributes:
 Sphericals:   T
 Basis set:  RI                      
 Basis size:   556
 Attributes:
 Sphericals:   T
 Basis set:  TDDFT                   
 Basis size:   816
 Attributes:
 Sphericals:   T

 Eigenvalues of metric

         1 0.142E-04 0.208E-04 0.324E-04 0.357E-04 0.625E-04 0.763E-04 0.872E-04 0.951E-04


 Contracted 2-electron integrals neglected if value below      1.0D-14

 OPERATOR DM      FOR CENTER  0  COORDINATES:    0.000000    0.000000    0.000000


 **********************************************************************************************************************************
 DATASETS  * FILE   NREC   LENGTH (MB)   RECORD NAMES
              1      18       37.06       500      610      700      900      950      970     1000      129      960     1100   
                                          VAR    BASINP    GEOM    SYMINP    ZMAT    AOBASIS   BASIS     P2S    ABASIS      S 
                                         1400     1410     1200     1210     1080     1600     1650     1700   
                                           T        V       H0       H01     AOSYM     SMH    MOLCAS    OPER   

              2       6       17.39       700     1000      520     2100      200     2101   
                                         GEOM     BASIS   MCVARS     RHF    OPTIONS    RHF  

 PROGRAMS   *        TOTAL       INT   CCSD(T)    HF-SCF       INT   CCSD(T)    HF-SCF       INT
 CPU TIMES  *      7641.43      0.38   1354.60    208.16      0.37   5679.64    225.53    172.52
 REAL TIME  *      7801.21 SEC
 DISK USED  *         3.24 GB (local),       77.78 GB (total)
 SF USED    *         3.08 GB
 GA USED    *         0.00 MB       (max)       0.00 MB       (current)
 **********************************************************************************************************************************


 PROGRAM * RHF-SCF (CLOSED SHELL)       Authors: W. Meyer, H.-J. Werner


 NUMBER OF ELECTRONS:       5+    5-    SPACE SYMMETRY=1    SPIN SYMMETRY: Singlet 
 CONVERGENCE THRESHOLDS:    1.00E-08 (Density)    1.00E-11 (Energy)
 MAX. NUMBER OF ITERATIONS:       60
 INTERPOLATION TYPE:            DIIS
 INTERPOLATION STEPS:              2 (START)      1 (STEP)
 LEVEL SHIFTS:                  0.00 (CLOSED)  0.00 (OPEN) 



 Orbital guess generated from atomic densities. Full valence occupancy:    9

 Molecular orbital dump at record        2102.2

 Initial occupancy:   5

 ITERATION    DDIFF          GRAD             ENERGY        2-EL.EN.            DIPOLE MOMENTS         DIIS   ORB.
    1      0.000D+00      0.000D+00       -40.19609499     53.506286    0.00411   -0.00276   -0.00131    0    start
    2      0.000D+00      0.257D-02       -40.21334902     52.217622    0.00129   -0.00088   -0.00039    1    diag
    3      0.158D-02      0.998D-03       -40.21562493     52.672081    0.00182   -0.00124   -0.00055    2    diag
    4      0.442D-03      0.249D-03       -40.21594438     52.617268    0.00162   -0.00111   -0.00049    3    diag
    5      0.168D-03      0.322D-04       -40.21594987     52.619416    0.00159   -0.00109   -0.00048    4    diag
    6      0.422D-04      0.264D-05       -40.21594992     52.619552    0.00159   -0.00109   -0.00048    5    diag
    7      0.559D-05      0.212D-06       -40.21594992     52.619513    0.00159   -0.00109   -0.00048    6    diag
    8      0.225D-06      0.170D-07       -40.21594992     52.619514    0.00159   -0.00109   -0.00048    7    diag
    9      0.833D-07      0.217D-08       -40.21594992     52.619514    0.00159   -0.00109   -0.00048    8    diag
   10      0.819D-08      0.595D-09       -40.21594992     52.619514    0.00159   -0.00109   -0.00048    0    orth

 Final occupancy:   5

 !RHF STATE  1.1 Energy               -40.215949916489
 Nuclear energy                        13.68681606
 One-electron energy                  -80.21252315
 Two-electron energy                   26.30975717
 Virial quotient                       -0.99838101
 !RHF STATE  1.1 Dipole moment          0.00158853    -0.00108833    -0.00047618
 Dipole moment /Debye                   0.00403737    -0.00276607    -0.00121024

 Orbital energies:

         1.1          2.1          3.1          4.1          5.1          6.1          7.1
    -11.196223    -0.950661    -0.551889    -0.549954    -0.547776     0.023767     0.035574


 HOMO      5.1    -0.547776 =     -14.9057eV
 LUMO      6.1     0.023767 =       0.6467eV
 LUMO-HOMO         0.571543 =      15.5525eV


 **********************************************************************************************************************************
 DATASETS  * FILE   NREC   LENGTH (MB)   RECORD NAMES
              1      18       37.06       500      610      700      900      950      970     1000      129      960     1100   
                                          VAR    BASINP    GEOM    SYMINP    ZMAT    AOBASIS   BASIS     P2S    ABASIS      S 
                                         1400     1410     1200     1210     1080     1600     1650     1700   
                                           T        V       H0       H01     AOSYM     SMH    MOLCAS    OPER   

              2       7       27.51       700     1000      520     2100      200     2101     2102   
                                         GEOM     BASIS   MCVARS     RHF    OPTIONS    RHF      RHF  

 PROGRAMS   *        TOTAL    HF-SCF       INT   CCSD(T)    HF-SCF       INT   CCSD(T)    HF-SCF       INT
 CPU TIMES  *      7818.13    176.70      0.38   1354.60    208.16      0.37   5679.64    225.53    172.52
 REAL TIME  *      7991.27 SEC
 DISK USED  *         3.24 GB (local),       77.78 GB (total)
 SF USED    *         3.08 GB
 GA USED    *         0.00 MB       (max)       0.00 MB       (current)
 **********************************************************************************************************************************

 Basis set:  JKFIT                   
 Basis size:   740
 Attributes:
 Sphericals:   T
 Basis set:  MP2FIT                  
 Basis size:   816
 Attributes:
 Sphericals:   T
 Basis set:  RI                      
 Basis size:   556
 Attributes:
 Sphericals:   T
 Basis set:  TDDFT                   
 Basis size:   816
 Attributes:
 Sphericals:   T

 PROGRAM * CCSD (Closed-shell coupled cluster)     Authors: C. Hampel, H.-J. Werner, 1991, M. Deegan, P.J. Knowles, 1992


 Convergence thresholds:  THRVAR = 1.00D-08  THRDEN = 1.00D-10

 CCSD(T)     terms to be evaluated (factor= 1.000)


 Number of core orbitals:           1 (   1 )
 Number of closed-shell orbitals:   4 (   4 )
 Number of external orbitals:     431 ( 431 )

 Molecular orbitals read from record     2102.2  Type=RHF/CANONICAL (state 1.1)

 Number of N-1 electron functions:               4
 Number of N-2 electron functions:              10
 Number of singly external CSFs:              1724
 Number of doubly external CSFs:           1486950
 Total number of CSFs:                     1488675

 Length of J-op  integral file:               0.00 MB
 Length of K-op  integral file:              13.08 MB
 Length of 3-ext integral record:             0.00 MB

 Memory could be reduced to 526.20 Mwords without degradation in triples

 Integral transformation finished. Total CPU: 158.96 sec, npass=  1  Memory used: 214.76 MW

 Reference energy:                    -40.21594992

 MP2 singlet pair energy:              -0.15442982
 MP2 triplet pair energy:              -0.05646352
 MP2 correlation energy:               -0.21089334
 MP2 total energy:                    -40.42684326

 SCS-MP2 correlation energy:           -0.22044864   (PS=  1.200000  PT=  0.333333)
 SCS-MP2 total energy:                -40.43639856

 ITER.      SQ.NORM     CORR.ENERGY   TOTAL ENERGY   ENERGY CHANGE        DEN1      VAR(S)    VAR(P)  DIIS     TIME  TIME/IT
   1      1.07097408    -0.22687877   -40.44282868    -0.01598543    -0.01039824  0.55D-03  0.97D-03  1  1   204.53    46.26
   2      1.07611916    -0.22797884   -40.44392875    -0.00110007    -0.00547161  0.14D-04  0.91D-04  2  2   249.77    46.46
   3      1.07764038    -0.22801806   -40.44396797    -0.00003922    -0.00107319  0.18D-05  0.58D-05  3  3   295.64    46.81
   4      1.07800011    -0.22802375   -40.44397366    -0.00000569    -0.00017108  0.12D-06  0.28D-06  4  4   344.81    47.81
   5      1.07804814    -0.22802563   -40.44397555    -0.00000189    -0.00001302  0.10D-07  0.20D-07  5  5   394.23    48.44
   6      1.07805639    -0.22802441   -40.44397433     0.00000122    -0.00000328  0.63D-09  0.14D-08  6  6   443.36    48.85
   7      1.07805741    -0.22802413   -40.44397404     0.00000028    -0.00000055  0.45D-10  0.11D-09  6  1   492.72    49.18
   8      1.07805736    -0.22802418   -40.44397410    -0.00000005     0.00000023  0.45D-11  0.60D-11  6  3   541.57    49.34
   9      1.07805748    -0.22802416   -40.44397408     0.00000002    -0.00000008  0.37D-12  0.50D-12  6  2   587.32    49.08
  10      1.07805749    -0.22802416   -40.44397408     0.00000000     0.00000000  0.45D-13  0.54D-13  6  4   632.63    48.83
  11      1.07805749    -0.22802416   -40.44397408     0.00000000     0.00000000  0.42D-14  0.54D-14  6  5   678.98    48.72
  12      1.07805748    -0.22802416   -40.44397408     0.00000000     0.00000000  0.95D-16  0.60D-15  6  6   725.53    48.65
  13      1.07805748    -0.22802416   -40.44397408    -0.00000000     0.00000000  0.74D-17  0.59D-16  6  1   772.07    48.59
  14      1.07805748    -0.22802416   -40.44397408    -0.00000000     0.00000000  0.11D-17  0.79D-17  6  3   818.80    48.55

 Norm of t1 vector:      0.03128326      S-energy:    -0.00000000      T1 diagnostic:  0.00782081
                                                                       D1 diagnostic:  0.01257201

 Total CPU time for triples:    432.60 sec


 RESULTS
 =======

  Reference energy                    -40.215949916490
  CCSD singlet pair energy             -0.173328852870
  CCSD triplet pair energy             -0.054695307115
  CCSD correlation energy              -0.228024159990

  Triples (T) contribution             -0.006882092406
  Total correlation energy             -0.234906252396

  CCSD total energy                   -40.443974076479
  CCSD[T] energy                      -40.451069320559
  CCSD-T energy                       -40.450788561270
 !CCSD(T) total energy                -40.450856168886

 Timing summary (sec):

 STEP                 CPU(USER)    SYS     CPU(TOT)    WALL
 Transformation        159.32      4.13    163.45    163.82
 CCSD iterations       659.57     19.22    678.79    679.91
 Triples               432.60      0.99    433.59    434.20

 Program statistics:

 Available memory in ccsd:              1999999916
 Min. memory needed in ccsd:               6768234
 Max. memory used in ccsd:                 7865440
 Max. memory used in cckext:               5182436 (14 integral passes)



 **********************************************************************************************************************************
 DATASETS  * FILE   NREC   LENGTH (MB)   RECORD NAMES
              1      19     1346.95       500      610      700      900      950      970     1000      129      960     1100   
                                          VAR    BASINP    GEOM    SYMINP    ZMAT    AOBASIS   BASIS     P2S    ABASIS      S 
                                         1400     1410     1200     1210     1080     1600     1650     1700     1380   
                                           T        V       H0       H01     AOSYM     SMH    MOLCAS    OPER     JKOP   

              2       7       27.51       700     1000      520     2100      200     2101     2102   
                                         GEOM     BASIS   MCVARS     RHF    OPTIONS    RHF      RHF  

 PROGRAMS   *        TOTAL   CCSD(T)    HF-SCF       INT   CCSD(T)    HF-SCF       INT   CCSD(T)    HF-SCF       INT
 CPU TIMES  *      9069.85   1251.71    176.70      0.38   1354.60    208.16      0.37   5679.64    225.53    172.52
 REAL TIME  *      9270.07 SEC
 DISK USED  *         3.24 GB (local),       77.78 GB (total)
 SF USED    *         3.08 GB
 GA USED    *         0.00 MB       (max)       0.00 MB       (current)
 **********************************************************************************************************************************
 Molecular orbitals read from record     2102.2  Type=RHF/CANONICAL (state 1.1)
 Occupation numbers read from record     2102.2  Type=RHF/RHF (state 1.1)
 Orbital energies read from record       2102.2  Type=RHF/CANONICAL (state 1.1)
 Redundancy group numbers read from rec  2102.2  Type=RHF/RHF (state 1.1)

 CCSD(T)/aug-cc-pVQZ energy=    -40.450856168886

         CCSD(T)          HF-SCF         CCSD(T)          HF-SCF         CCSD(T)          HF-SCF
    -40.45085617    -40.21594992    -76.36180670    -76.06210024   -116.81291998   -116.27757669
 **********************************************************************************************************************************
 Molpro calculation terminated
