
 Primary working directories    : /scratch/klimes/383121/molpro.AhtC4QaMtG
 Secondary working directories  : /scratch/klimes/383121/molpro.AhtC4QaMtG
 Wavefunction directory         : /scratch/klimes/383121/
 Main file repository           : /scratch/klimes/383121/molpro.AhtC4QaMtG/

 id        : karlovklimes

 Nodes                      nprocs
 nc-04.cc.karlov.mff.cuni.cz    4

 Using customized tuning parameters: mindgm=1; mindgv=20; mindgc=4; mindgr=1; noblas=0; minvec=7
 default implementation of scratch files=sf  


 Variables initialized (930), CPU time= 0.01 sec
                                                                                 !gdirect
 memory,2000,m
 gthresh,orbital=1d-10,energy=1d-10,grid=1d-8
 
 symmetry,nosym
 angstrom
 geometry={
 O18        -6.356200000000      0.392700000000      3.232000000000
 H35        -6.218200000000     -0.218800000000      2.485700000000
 H36        -5.588500000000      0.246100000000      3.819100000000
 C1        -3.277200000000      1.482500000000      1.271900000000
 H41        -2.464000000000      0.899600000000      1.651000000000
 H42        -3.160800000000      2.501000000000      1.578500000000
 H43        -4.201800000000      1.099200000000      1.650100000000
 H44        -3.268500000000      1.421000000000      0.203700000000
 }
 
 nkerna=1
 nkernb=1
 
 gf=0
 sing=1
 thrdum=1d-4
 gridthr=1d-8
 
 basis={
 set,orbital
 default,avqz
 set,jkfit
 default,avqz/jkfit
 set,mp2fit
 default,avqz/mp2fit
 set,ri
 default,avqz/optri
 set,tddft
 default,avqz/mp2fit
 }
 
 proc set_monomer1
 dummy,4,5,6,7,8
 endproc
 
 proc set_monomer2
 dummy,1,2,3
 endproc
 
                                                                                 !1234 energy
 {hf,accu=1.d-16}
 ccsd(t)
 
 set_monomer1
 {hf,accu=1.d-16}
 ccsd(t)
 
 set_monomer2
 {hf,accu=1.d-16}
 ccsd(t)
 
 Commands  initialized (760), CPU time= 0.01 sec, 617 directives.
 Default parameters read. Elapsed time= 0.20 sec

 Checking input...
 Passed
1


                                         ***  PROGRAM SYSTEM MOLPRO  ***
                                       Copyright, TTI GmbH Stuttgart, 2015
                                    Version 2019.1 linked Jan 14 2019 13:09:19


 **********************************************************************************************************************************
 LABEL *                                                                                 
  64 bit mpp version                                                                     DATE: 11-Mar-20          TIME: 16:00:30  
 **********************************************************************************************************************************

 SHA1:             d688ac825633d238f2093ded1675ba87ccd55965
 **********************************************************************************************************************************

 THRESHOLDS:

 ZERO    =  1.00D-12  ONEINT  =  1.00D-12  TWOINT  =  1.00D-11  PREFAC  =  1.00D-14  XXXXXX  =  1.00D-09  EORDER  =  1.00D-04
 ENERGY  =  1.00D-10  ETEST   =  0.00D+00  EDENS   =  0.00D+00  THRDEDEF=  1.00D-06  GRADIENT=  1.00D-02  STEP    =  1.00D-03
 ORBITAL =  1.00D-10  CIVEC   =  1.00D-05  COEFF   =  1.00D-04  PRINTCI =  5.00D-02  PUNCHCI =  9.90D+01  OPTGRAD =  3.00D-04
 OPTENERG=  1.00D-06  OPTSTEP =  3.00D-04  THRGRAD =  1.00D-10  COMPRESS=  1.00D-11  VARMIN  =  1.00D-07  VARMAX  =  1.00D-03
 THRDOUB =  0.00D+00  THRDIV  =  1.00D-05  THRRED  =  1.00D-07  THRPSP  =  1.00D+00  THRDC   =  1.00D-10  THRCS   =  1.00D-10
 THRNRM  =  1.00D-08  THREQ   =  0.00D+00  THRDE   =  1.00D+00  THRREF  =  1.00D-05  SPARFAC =  1.00D+00  THRDLP  =  1.00D-07
 THRDIA  =  1.00D-10  THRDLS  =  1.00D-07  THRGPS  =  0.00D+00  THRKEX  =  0.00D+00  THRDIS  =  2.00D-01  THRVAR  =  1.00D-10
 THRLOC  =  1.00D-06  THRGAP  =  1.00D-06  THRLOCT = -1.00D+00  THRGAPT = -1.00D+00  THRORB  =  1.00D-06  THRMLTP =  0.00D+00
 THRCPQCI=  1.00D-10  KEXTA   =  0.00D+00  THRCOARS=  0.00D+00  SYMTOL  =  1.00D-06  GRADTOL =  1.00D-06  THROVL  =  1.00D-08
 THRORTH =  1.00D-08  GRID    =  1.00D-08  GRIDMAX =  1.00D-03  DTMAX   =  0.00D+00  THROCCDE=  1.00D-01  THROCCDE=  1.00D-01
 THRPRINT=  2.50D-01


 Variable memory set to 2000000000 words,  buffer space 

 ZSYMEL=NOSYM
 ZUNIT=ANG


Geometry recognized as XYZ

 SETTING NKERNA         =         1.00000000                                  
 SETTING NKERNB         =         1.00000000                                  
 SETTING GF             =     0.00000000D+00                                  
 SETTING SING           =         1.00000000                                  
 SETTING THRDUM         =     1.00000000D-04                                  
 SETTING GRIDTHR        =     1.00000000D-08                                  
 SETTING BASIS          =    AVQZ


 Recomputing integrals since basis changed


 Using spherical harmonics

 Library entry O      S aug-cc-pVQZ          selected for orbital group  1
 Library entry O      P aug-cc-pVQZ          selected for orbital group  1
 Library entry O      D aug-cc-pVQZ          selected for orbital group  1
 Library entry O      F aug-cc-pVQZ          selected for orbital group  1
 Library entry O      G aug-cc-pVQZ          selected for orbital group  1
 Library entry H      S aug-cc-pVQZ          selected for orbital group  2
 Library entry H      P aug-cc-pVQZ          selected for orbital group  2
 Library entry H      D aug-cc-pVQZ          selected for orbital group  2
 Library entry H      F aug-cc-pVQZ          selected for orbital group  2
 Library entry C      S aug-cc-pVQZ          selected for orbital group  3
 Library entry C      P aug-cc-pVQZ          selected for orbital group  3
 Library entry C      D aug-cc-pVQZ          selected for orbital group  3
 Library entry C      F aug-cc-pVQZ          selected for orbital group  3
 Library entry C      G aug-cc-pVQZ          selected for orbital group  3


 PROGRAM * SEWARD (Integral evaluation for generally contracted gaussian basis sets)     Author: Roland Lindh, 1990

 Geometry written to block  1 of record 700


 Point group  C1  



 ATOMIC COORDINATES

 NR  ATOM    CHARGE       X              Y              Z

   1  O18     8.00  -12.011477193    0.742095449    6.107594835
   2  H35     1.00  -11.750694988   -0.413472076    4.697292228
   3  H36     1.00  -10.560734447    0.465061599    7.217053042
   4  C1      6.00   -6.193010455    2.801518980    2.403542658
   5  H41     1.00   -4.656285171    1.699997622    3.119937832
   6  H42     1.00   -5.973046335    4.726205038    2.982932688
   7  H43     1.00   -7.940251230    2.077186956    3.118237078
   8  H44     1.00   -6.176569838    2.685300823    0.384937212

 Bond lengths in Bohr (Angstrom)

 1-2  1.841818967  1-3  1.847241128  4-5  2.021904040  4-6  2.022002335  4-7  2.021953343
     ( 0.974648624)     ( 0.977517908)     ( 1.069945541)     ( 1.069997556)     ( 1.069971630)

 4-8  2.022015060
     ( 1.070004290)

 Bond angles

  2-1-3  104.74973043   5-4-6  109.53398059   5-4-7  109.65604535   5-4-8  108.43490854

  6-4-7  109.49436728   6-4-8  109.86987750   7-4-8  109.83468330

 NUCLEAR CHARGE:                   20
 NUMBER OF PRIMITIVE AOS:         578
 NUMBER OF SYMMETRY AOS:          474
 NUMBER OF CONTRACTIONS:          436   (  436A   )
 NUMBER OF CORE ORBITALS:           2   (    2A   )
 NUMBER OF VALENCE ORBITALS:       14   (   14A   )


 NUCLEAR REPULSION ENERGY   36.79874832


 Basis set:  JKFIT                   
 Basis size:   740
 Attributes:
 Sphericals:   T
 Basis set:  MP2FIT                  
 Basis size:   816
 Attributes:
 Sphericals:   T
 Basis set:  RI                      
 Basis size:   556
 Attributes:
 Sphericals:   T
 Basis set:  TDDFT                   
 Basis size:   816
 Attributes:
 Sphericals:   T

 **********************************************************************************************************************************


 Eigenvalues of metric

         1 0.106E-04 0.165E-04 0.290E-04 0.334E-04 0.477E-04 0.620E-04 0.893E-04 0.103E-03


 Contracted 2-electron integrals neglected if value below      1.0D-14
 AO integral compression algorithm  1   Integral accuracy      1.0D-14

     24056.431 MB (compressed) written to integral file ( 60.0%)

     Node minimum: 5866.783 MB, node maximum: 6100.353 MB


 NUMBER OF SORTED TWO-ELECTRON INTEGRALS: 1134451344.     BUFFER LENGTH:  32768
 NUMBER OF SEGMENTS:  36  SEGMENT LENGTH:   31999984      RECORD LENGTH: 524288

 Memory used in sort:      32.56 MW

 SORT1 READ  5012305700. AND WROTE   983803414. INTEGRALS IN   2831 RECORDS. CPU TIME:   109.37 SEC, REAL TIME:   128.02 SEC
 SORT2 READ  3936236959. AND WROTE  4537853011. INTEGRALS IN  89520 RECORDS. CPU TIME:    20.81 SEC, REAL TIME:    36.43 SEC

 Node minimum:  1134427528.  Node maximum:  1134498978. integrals

 OPERATOR DM      FOR CENTER  0  COORDINATES:    0.000000    0.000000    0.000000


 **********************************************************************************************************************************
 DATASETS  * FILE   NREC   LENGTH (MB)   RECORD NAMES
              1      18       37.06       500      610      700      900      950      970     1000      129      960     1100   
                                          VAR    BASINP    GEOM    SYMINP    ZMAT    AOBASIS   BASIS     P2S    ABASIS      S 
                                         1400     1410     1200     1210     1080     1600     1650     1700   
                                           T        V       H0       H01     AOSYM     SMH    MOLCAS    OPER   

 PROGRAMS   *        TOTAL       INT
 CPU TIMES  *       195.54    195.32
 REAL TIME  *       242.14 SEC
 DISK USED  *        37.58 MB (local),       71.14 GB (total)
 GA USED    *         0.00 MB       (max)       0.00 MB       (current)
 **********************************************************************************************************************************


 PROGRAM * RHF-SCF (CLOSED SHELL)       Authors: W. Meyer, H.-J. Werner


 NUMBER OF ELECTRONS:      10+   10-    SPACE SYMMETRY=1    SPIN SYMMETRY: Singlet 
 CONVERGENCE THRESHOLDS:    1.00E-08 (Density)    1.00E-11 (Energy)
 MAX. NUMBER OF ITERATIONS:       60
 INTERPOLATION TYPE:            DIIS
 INTERPOLATION STEPS:              2 (START)      1 (STEP)
 LEVEL SHIFTS:                  0.00 (CLOSED)  0.00 (OPEN) 



 Orbital guess generated from atomic densities. Full valence occupancy:   16

 Molecular orbital dump at record        2100.2

 Initial occupancy:  10

 ITERATION    DDIFF          GRAD             ENERGY        2-EL.EN.            DIPOLE MOMENTS         DIIS   ORB.
    1      0.000D+00      0.000D+00      -116.22115351    158.949486    0.87180   -0.73694   -0.14815    0    start
    2      0.000D+00      0.378D-02      -116.26520617    154.180812    0.49258   -0.39007   -0.08905    1    diag
    3      0.273D-02      0.220D-02      -116.27849877    156.182786    0.58751   -0.47970   -0.10352    2    diag
    4      0.941D-03      0.332D-03      -116.27915614    156.068793    0.57828   -0.47384   -0.10191    3    diag
    5      0.205D-03      0.971D-04      -116.27922561    156.064158    0.57797   -0.47318   -0.10225    4    diag
    6      0.824D-04      0.238D-04      -116.27922962    156.069772    0.57747   -0.47257   -0.10237    5    diag
    7      0.224D-04      0.492D-05      -116.27922987    156.068096    0.57753   -0.47255   -0.10243    6    diag
    8      0.646D-05      0.126D-05      -116.27922989    156.068276    0.57751   -0.47248   -0.10246    7    diag
    9      0.136D-05      0.286D-06      -116.27922989    156.068245    0.57750   -0.47246   -0.10247    8    diag
   10      0.408D-06      0.359D-07      -116.27922989    156.068247    0.57750   -0.47246   -0.10247    9    orth
   11      0.435D-07      0.963D-08      -116.27922989    156.068248    0.57750   -0.47246   -0.10247    9    diag
   12      0.110D-07      0.277D-08      -116.27922989    156.068247    0.57750   -0.47246   -0.10247    9    diag
   13      0.332D-08      0.734D-09      -116.27922989    156.068248    0.57750   -0.47246   -0.10247    0    orth

 Final occupancy:  10

 !RHF STATE  1.1 Energy              -116.279229893785
 Nuclear energy                        36.79874832
 One-electron energy                 -231.11210208
 Two-electron energy                   78.03412386
 Virial quotient                       -1.00059729
 !RHF STATE  1.1 Dipole moment          0.57750286    -0.47246017    -0.10246682
 Dipole moment /Debye                   1.46776973    -1.20079531    -0.26042761

 Orbital energies:

         1.1          2.1          3.1          4.1          5.1          6.1          7.1          8.1          9.1         10.1
    -20.568430   -11.198114    -1.344261    -0.953146    -0.708954    -0.582770    -0.555191    -0.552760    -0.550497    -0.507804

        11.1         12.1
      0.022638     0.037600


 HOMO     10.1    -0.507804 =     -13.8181eV
 LUMO     11.1     0.022638 =       0.6160eV
 LUMO-HOMO         0.530442 =      14.4341eV


 **********************************************************************************************************************************
 DATASETS  * FILE   NREC   LENGTH (MB)   RECORD NAMES
              1      18       37.06       500      610      700      900      950      970     1000      129      960     1100   
                                          VAR    BASINP    GEOM    SYMINP    ZMAT    AOBASIS   BASIS     P2S    ABASIS      S 
                                         1400     1410     1200     1210     1080     1600     1650     1700   
                                           T        V       H0       H01     AOSYM     SMH    MOLCAS    OPER   

              2       4        6.75       700     1000      520     2100   
                                         GEOM     BASIS   MCVARS     RHF  

 PROGRAMS   *        TOTAL    HF-SCF       INT
 CPU TIMES  *       412.27    216.73    195.32
 REAL TIME  *       481.47 SEC
 DISK USED  *        57.63 MB (local),       71.22 GB (total)
 SF USED    *         0.76 MB
 GA USED    *         0.00 MB       (max)       0.00 MB       (current)
 **********************************************************************************************************************************

 Basis set:  JKFIT                   
 Basis size:   740
 Attributes:
 Sphericals:   T
 Basis set:  MP2FIT                  
 Basis size:   816
 Attributes:
 Sphericals:   T
 Basis set:  RI                      
 Basis size:   556
 Attributes:
 Sphericals:   T
 Basis set:  TDDFT                   
 Basis size:   816
 Attributes:
 Sphericals:   T

 PROGRAM * CCSD (Closed-shell coupled cluster)     Authors: C. Hampel, H.-J. Werner, 1991, M. Deegan, P.J. Knowles, 1992


 Convergence thresholds:  THRVAR = 1.00D-08  THRDEN = 1.00D-10

 CCSD(T)     terms to be evaluated (factor= 1.000)


 Number of core orbitals:           2 (   2 )
 Number of closed-shell orbitals:   8 (   8 )
 Number of external orbitals:     426 ( 426 )

 Molecular orbitals read from record     2100.2  Type=RHF/CANONICAL (state 1.1)

 Number of N-1 electron functions:               8
 Number of N-2 electron functions:              36
 Number of singly external CSFs:              3408
 Number of doubly external CSFs:           5808936
 Total number of CSFs:                     5812345

 Length of J-op  integral file:               0.00 MB
 Length of K-op  integral file:              13.08 MB
 Length of 3-ext integral record:             0.00 MB

 Memory could be reduced to 828.85 Mwords without degradation in triples

 Integral transformation finished. Total CPU: 309.04 sec, npass=  1  Memory used: 389.48 MW

 Reference energy:                   -116.27922989

 MP2 singlet pair energy:              -0.34077101
 MP2 triplet pair energy:              -0.15855868
 MP2 correlation energy:               -0.49932969
 MP2 total energy:                   -116.77855958

 SCS-MP2 correlation energy:           -0.50758395   (PS=  1.200000  PT=  0.333333)
 SCS-MP2 total energy:               -116.78681384

 ITER.      SQ.NORM     CORR.ENERGY   TOTAL ENERGY   ENERGY CHANGE        DEN1      VAR(S)    VAR(P)  DIIS     TIME  TIME/IT
   1      1.13555654    -0.51706207  -116.79629196    -0.01773238    -0.00629642  0.14D-02  0.20D-02  1  1   471.67   163.31
   2      1.14413319    -0.51841128  -116.79764117    -0.00134921    -0.01021252  0.27D-04  0.25D-03  2  2   634.63   164.35
   3      1.14730837    -0.51852928  -116.79775918    -0.00011801    -0.00222022  0.12D-04  0.12D-04  3  3   797.83   164.69
   4      1.14815895    -0.51853052  -116.79776041    -0.00000124    -0.00040620  0.59D-06  0.12D-05  4  4   960.04   164.66
   5      1.14831794    -0.51853031  -116.79776020     0.00000021    -0.00004670  0.21D-06  0.86D-07  5  5  1122.07   164.64
   6      1.14836721    -0.51852658  -116.79775647     0.00000373    -0.00001192  0.20D-07  0.66D-08  6  6  1284.50   164.67
   7      1.14837696    -0.51852554  -116.79775543     0.00000104    -0.00000170  0.18D-08  0.10D-08  6  2  1447.12   164.70
   8      1.14837915    -0.51852536  -116.79775526     0.00000017    -0.00000013  0.37D-09  0.11D-09  6  1  1609.14   164.65
   9      1.14838007    -0.51852531  -116.79775521     0.00000005     0.00000004  0.28D-10  0.14D-10  6  3  1770.90   164.61
  10      1.14838023    -0.51852531  -116.79775520     0.00000001     0.00000006  0.29D-11  0.23D-11  6  4  1931.28   164.44
  11      1.14838020    -0.51852531  -116.79775521    -0.00000001     0.00000006  0.56D-12  0.28D-12  6  5  2098.67   165.01
  12      1.14838018    -0.51852531  -116.79775521    -0.00000000     0.00000002  0.91D-13  0.34D-13  6  6  2267.39   165.57
  13      1.14838016    -0.51852532  -116.79775521    -0.00000000     0.00000001  0.17D-13  0.53D-14  6  2  2431.06   165.64
  14      1.14838016    -0.51852532  -116.79775521    -0.00000000     0.00000000  0.26D-14  0.10D-14  6  1  2591.54   165.54
  15      1.14838016    -0.51852532  -116.79775521    -0.00000000     0.00000000  0.32D-15  0.16D-15  6  3  2752.55   165.47
  16      1.14838016    -0.51852532  -116.79775521    -0.00000000    -0.00000000  0.59D-16  0.24D-16  6  4  2915.92   165.50
  17      1.14838016    -0.51852532  -116.79775521     0.00000000    -0.00000000  0.11D-16  0.40D-17  6  5  3079.53   165.53

 Norm of t1 vector:      0.05035531      S-energy:     0.00000000      T1 diagnostic:  0.00890165
                                                                       D1 diagnostic:  0.02090715

   CPU time for triples:   1970.33 sec for i =  1 -  7 /  8 (~  68.8 % done)
   CPU time for triples:    926.66 sec for i =  8 -  8 /  8 (  100.0 % done)

 Total CPU time for triples:   2897.90 sec


 RESULTS
 =======

  Reference energy                   -116.279229893782
  CCSD singlet pair energy             -0.373333056297
  CCSD triplet pair energy             -0.145192260381
  CCSD correlation energy              -0.518525316656

  Triples (T) contribution             -0.016648583705
  Total correlation energy             -0.535173900361

  CCSD total energy                  -116.797755210438
  CCSD[T] energy                     -116.814938862646
  CCSD-T energy                      -116.814179633182
 !CCSD(T) total energy               -116.814403794143

 Timing summary (sec):

 STEP                 CPU(USER)    SYS     CPU(TOT)    WALL
 Transformation        310.23      8.21    318.44    319.97
 CCSD iterations      2769.42     35.47   2804.89   2814.21
 Triples              2897.90      8.69   2906.59   2911.28

 Program statistics:

 Available memory in ccsd:              1999999734
 Min. memory needed in ccsd:              17010489
 Max. memory used in ccsd:                22038113
 Max. memory used in cckext:              15155228 (17 integral passes)



 **********************************************************************************************************************************
 DATASETS  * FILE   NREC   LENGTH (MB)   RECORD NAMES
              1      19     2602.11       500      610      700      900      950      970     1000      129      960     1100   
                                          VAR    BASINP    GEOM    SYMINP    ZMAT    AOBASIS   BASIS     P2S    ABASIS      S 
                                         1400     1410     1200     1210     1080     1600     1650     1700     1380   
                                           T        V       H0       H01     AOSYM     SMH    MOLCAS    OPER     JKOP   

              2       4        6.75       700     1000      520     2100   
                                         GEOM     BASIS   MCVARS     RHF  

 PROGRAMS   *        TOTAL   CCSD(T)    HF-SCF       INT
 CPU TIMES  *      6390.03   5977.76    216.73    195.32
 REAL TIME  *      6527.85 SEC
 DISK USED  *         3.24 GB (local),       82.06 GB (total)
 SF USED    *         3.08 GB
 GA USED    *         0.00 MB       (max)       0.00 MB       (current)
 **********************************************************************************************************************************

 Running procedure: SET_MONOMER1

 Dummy atoms: C1  H41  H42  H43  H44


 Recomputing one-electron integrals since nuclear charges changed


 PROGRAM * SEWARD (Integral evaluation for generally contracted gaussian basis sets)     Author: Roland Lindh, 1990

 Geometry written to block  1 of record 700


 Point group  C1  



 ATOMIC COORDINATES

 NR  ATOM    CHARGE       X              Y              Z

   1  O18     8.00  -12.011477193    0.742095449    6.107594835
   2  H35     1.00  -11.750694988   -0.413472076    4.697292228
   3  H36     1.00  -10.560734447    0.465061599    7.217053042
   4  C1      0.00   -6.193010455    2.801518980    2.403542658
   5  H41     0.00   -4.656285171    1.699997622    3.119937832
   6  H42     0.00   -5.973046335    4.726205038    2.982932688
   7  H43     0.00   -7.940251230    2.077186956    3.118237078
   8  H44     0.00   -6.176569838    2.685300823    0.384937212

 Bond lengths in Bohr (Angstrom)

 1-2  1.841818967  1-3  1.847241128  4-5  2.021904040  4-6  2.022002335  4-7  2.021953343
     ( 0.974648624)     ( 0.977517908)     ( 1.069945541)     ( 1.069997556)     ( 1.069971630)

 4-8  2.022015060
     ( 1.070004290)

 Bond angles

  2-1-3  104.74973043   5-4-6  109.53398059   5-4-7  109.65604535   5-4-8  108.43490854

  6-4-7  109.49436728   6-4-8  109.86987750   7-4-8  109.83468330

 NUCLEAR CHARGE:                   10
 NUMBER OF PRIMITIVE AOS:         578
 NUMBER OF SYMMETRY AOS:          474
 NUMBER OF CONTRACTIONS:          436   (  436A   )
 NUMBER OF CORE ORBITALS:           1   (    1A   )
 NUMBER OF VALENCE ORBITALS:        6   (    6A   )

 MOLECULE CHANGED: INITIALIZING OCCUPATION AND DUMP RECORDS


 NUCLEAR REPULSION ENERGY    9.01656758

 Basis set:  JKFIT                   
 Basis size:   740
 Attributes:
 Sphericals:   T
 Basis set:  MP2FIT                  
 Basis size:   816
 Attributes:
 Sphericals:   T
 Basis set:  RI                      
 Basis size:   556
 Attributes:
 Sphericals:   T
 Basis set:  TDDFT                   
 Basis size:   816
 Attributes:
 Sphericals:   T

 Eigenvalues of metric

         1 0.106E-04 0.165E-04 0.290E-04 0.334E-04 0.477E-04 0.620E-04 0.893E-04 0.103E-03


 Contracted 2-electron integrals neglected if value below      1.0D-14

 OPERATOR DM      FOR CENTER  0  COORDINATES:    0.000000    0.000000    0.000000


 **********************************************************************************************************************************
 DATASETS  * FILE   NREC   LENGTH (MB)   RECORD NAMES
              1      18       37.06       500      610      700      900      950      970     1000      129      960     1100   
                                          VAR    BASINP    GEOM    SYMINP    ZMAT    AOBASIS   BASIS     P2S    ABASIS      S 
                                         1400     1410     1200     1210     1080     1600     1650     1700   
                                           T        V       H0       H01     AOSYM     SMH    MOLCAS    OPER   

              2       5       10.59       700     1000      520     2100      200   
                                         GEOM     BASIS   MCVARS     RHF    OPTIONS    

 PROGRAMS   *        TOTAL       INT   CCSD(T)    HF-SCF       INT
 CPU TIMES  *      6390.43      0.39   5977.76    216.73    195.32
 REAL TIME  *      6529.14 SEC
 DISK USED  *         3.24 GB (local),       82.07 GB (total)
 SF USED    *         3.08 GB
 GA USED    *         0.00 MB       (max)       0.00 MB       (current)
 **********************************************************************************************************************************


 PROGRAM * RHF-SCF (CLOSED SHELL)       Authors: W. Meyer, H.-J. Werner


 NUMBER OF ELECTRONS:       5+    5-    SPACE SYMMETRY=1    SPIN SYMMETRY: Singlet 
 CONVERGENCE THRESHOLDS:    1.00E-08 (Density)    1.00E-11 (Energy)
 MAX. NUMBER OF ITERATIONS:       60
 INTERPOLATION TYPE:            DIIS
 INTERPOLATION STEPS:              2 (START)      1 (STEP)
 LEVEL SHIFTS:                  0.00 (CLOSED)  0.00 (OPEN) 



 Orbital guess generated from atomic densities. Full valence occupancy:    7

 Molecular orbital dump at record        2101.2

 Initial occupancy:   5

 ITERATION    DDIFF          GRAD             ENERGY        2-EL.EN.            DIPOLE MOMENTS         DIIS   ORB.
    1      0.000D+00      0.000D+00       -76.02547008     77.431263    0.87672   -0.73321   -0.15324    0    start
    2      0.000D+00      0.467D-02       -76.05230191     73.786391    0.50905   -0.42626   -0.08985    1    diag
    3      0.223D-02      0.297D-02       -76.06381438     75.403661    0.60070   -0.50290   -0.10582    2    diag
    4      0.843D-03      0.278D-03       -76.06400721     75.312413    0.59704   -0.49994   -0.10535    3    diag
    5      0.104D-03      0.775D-04       -76.06402792     75.326766    0.59569   -0.49887   -0.10518    4    diag
    6      0.324D-04      0.153D-04       -76.06402924     75.325756    0.59540   -0.49864   -0.10515    5    diag
    7      0.816D-05      0.310D-05       -76.06402930     75.325902    0.59531   -0.49856   -0.10514    6    diag
    8      0.221D-05      0.582D-06       -76.06402931     75.325887    0.59528   -0.49854   -0.10513    7    diag
    9      0.409D-06      0.767D-07       -76.06402931     75.325879    0.59528   -0.49854   -0.10513    8    diag
   10      0.505D-07      0.170D-07       -76.06402931     75.325882    0.59528   -0.49854   -0.10513    9    orth
   11      0.128D-07      0.295D-08       -76.06402931     75.325881    0.59527   -0.49854   -0.10513    9    diag
   12      0.246D-08      0.477D-09       -76.06402931     75.325881    0.59527   -0.49854   -0.10513    0    orth

 Final occupancy:   5

 !RHF STATE  1.1 Energy               -76.064029306100
 Nuclear energy                         9.01656758
 One-electron energy                 -122.74353759
 Two-electron energy                   37.66294071
 Virial quotient                       -1.00188155
 !RHF STATE  1.1 Dipole moment          0.59527498    -0.49853647    -0.10513262
 Dipole moment /Debye                   1.51293899    -1.26707031    -0.26720296

 Orbital energies:

         1.1          2.1          3.1          4.1          5.1          6.1          7.1
    -20.567880    -1.343151    -0.708009    -0.580896    -0.508892     0.017114     0.035739


 HOMO      5.1    -0.508892 =     -13.8477eV
 LUMO      6.1     0.017114 =       0.4657eV
 LUMO-HOMO         0.526006 =      14.3133eV


 **********************************************************************************************************************************
 DATASETS  * FILE   NREC   LENGTH (MB)   RECORD NAMES
              1      18       37.06       500      610      700      900      950      970     1000      129      960     1100   
                                          VAR    BASINP    GEOM    SYMINP    ZMAT    AOBASIS   BASIS     P2S    ABASIS      S 
                                         1400     1410     1200     1210     1080     1600     1650     1700   
                                           T        V       H0       H01     AOSYM     SMH    MOLCAS    OPER   

              2       6       17.39       700     1000      520     2100      200     2101   
                                         GEOM     BASIS   MCVARS     RHF    OPTIONS    RHF  

 PROGRAMS   *        TOTAL    HF-SCF       INT   CCSD(T)    HF-SCF       INT
 CPU TIMES  *      6591.20    200.77      0.39   5977.76    216.73    195.32
 REAL TIME  *      6750.84 SEC
 DISK USED  *         3.24 GB (local),       82.07 GB (total)
 SF USED    *         3.08 GB
 GA USED    *         0.00 MB       (max)       0.00 MB       (current)
 **********************************************************************************************************************************

 Basis set:  JKFIT                   
 Basis size:   740
 Attributes:
 Sphericals:   T
 Basis set:  MP2FIT                  
 Basis size:   816
 Attributes:
 Sphericals:   T
 Basis set:  RI                      
 Basis size:   556
 Attributes:
 Sphericals:   T
 Basis set:  TDDFT                   
 Basis size:   816
 Attributes:
 Sphericals:   T

 PROGRAM * CCSD (Closed-shell coupled cluster)     Authors: C. Hampel, H.-J. Werner, 1991, M. Deegan, P.J. Knowles, 1992


 Convergence thresholds:  THRVAR = 1.00D-08  THRDEN = 1.00D-10

 CCSD(T)     terms to be evaluated (factor= 1.000)


 Number of core orbitals:           1 (   1 )
 Number of closed-shell orbitals:   4 (   4 )
 Number of external orbitals:     431 ( 431 )

 Molecular orbitals read from record     2101.2  Type=RHF/CANONICAL (state 1.1)

 Number of N-1 electron functions:               4
 Number of N-2 electron functions:              10
 Number of singly external CSFs:              1724
 Number of doubly external CSFs:           1486950
 Total number of CSFs:                     1488675

 Length of J-op  integral file:               0.00 MB
 Length of K-op  integral file:              13.08 MB
 Length of 3-ext integral record:             0.00 MB

 Memory could be reduced to 526.20 Mwords without degradation in triples

 Integral transformation finished. Total CPU: 159.13 sec, npass=  1  Memory used: 214.76 MW

 Reference energy:                    -76.06402931

 MP2 singlet pair energy:              -0.18609585
 MP2 triplet pair energy:              -0.10131963
 MP2 correlation energy:               -0.28741548
 MP2 total energy:                    -76.35144479

 SCS-MP2 correlation energy:           -0.28635835   (PS=  1.200000  PT=  0.333333)
 SCS-MP2 total energy:                -76.35038766

 ITER.      SQ.NORM     CORR.ENERGY   TOTAL ENERGY   ENERGY CHANGE        DEN1      VAR(S)    VAR(P)  DIIS     TIME  TIME/IT
   1      1.06425162    -0.28918821   -76.35321752    -0.00177273     0.00405959  0.84D-03  0.10D-02  1  1   205.68    47.93
   2      1.06786981    -0.28944216   -76.35347147    -0.00025395    -0.00489181  0.14D-04  0.12D-03  2  2   252.57    48.28
   3      1.06930315    -0.28951970   -76.35354901    -0.00007754    -0.00100697  0.87D-05  0.62D-05  3  3   299.36    48.34
   4      1.06976649    -0.28951885   -76.35354816     0.00000085    -0.00021708  0.49D-06  0.75D-06  4  4   346.84    48.49
   5      1.06986949    -0.28951654   -76.35354584     0.00000231    -0.00003249  0.16D-06  0.50D-07  5  5   393.33    48.45
   6      1.06990574    -0.28951354   -76.35354285     0.00000299    -0.00000826  0.17D-07  0.40D-08  6  6   440.08    48.50
   7      1.06991317    -0.28951314   -76.35354244     0.00000040    -0.00000059  0.14D-08  0.78D-09  6  1   486.85    48.49
   8      1.06991489    -0.28951304   -76.35354235     0.00000010    -0.00000005  0.24D-09  0.91D-10  6  2   533.58    48.50
   9      1.06991553    -0.28951300   -76.35354230     0.00000004     0.00000011  0.17D-10  0.80D-11  6  3   580.72    48.52
  10      1.06991567    -0.28951299   -76.35354229     0.00000001     0.00000002  0.20D-11  0.12D-11  6  4   627.19    48.50
  11      1.06991567    -0.28951299   -76.35354229    -0.00000000     0.00000002  0.44D-12  0.14D-12  6  5   673.93    48.49
  12      1.06991567    -0.28951299   -76.35354229    -0.00000000     0.00000001  0.75D-13  0.23D-13  6  6   720.87    48.51
  13      1.06991567    -0.28951299   -76.35354230    -0.00000000     0.00000000  0.14D-13  0.43D-14  6  1   769.51    48.67
  14      1.06991567    -0.28951299   -76.35354230    -0.00000000     0.00000000  0.15D-14  0.61D-15  6  2   817.85    48.80
  15      1.06991567    -0.28951299   -76.35354230    -0.00000000     0.00000000  0.17D-15  0.11D-15  6  3   866.63    48.93
  16      1.06991567    -0.28951299   -76.35354230    -0.00000000    -0.00000000  0.38D-16  0.16D-16  6  4   913.51    48.91

 Norm of t1 vector:      0.03837106      S-energy:    -0.00000000      T1 diagnostic:  0.00959277
                                                                       D1 diagnostic:  0.02003728


 Total CPU time for triples:    428.31 sec


 RESULTS
 =======

  Reference energy                    -76.064029306099
  CCSD singlet pair energy             -0.199868669590
  CCSD triplet pair energy             -0.089644320226
  CCSD correlation energy              -0.289512989893

  Triples (T) contribution             -0.009570735072
  Total correlation energy             -0.299083724965

  CCSD total energy                   -76.353542295993
  CCSD[T] energy                      -76.363428749009
  CCSD-T energy                       -76.362960490578
 !CCSD(T) total energy                -76.363113031065

 Timing summary (sec):

 STEP                 CPU(USER)    SYS     CPU(TOT)    WALL
 Transformation        159.51      4.90    164.41    165.40
 CCSD iterations       754.09     27.21    781.30    782.73
 Triples               428.31      1.38    429.69    430.32

 Program statistics:

 Available memory in ccsd:              1999999921
 Min. memory needed in ccsd:               6768234
 Max. memory used in ccsd:                 7865440
 Max. memory used in cckext:               5182436 (16 integral passes)



 **********************************************************************************************************************************
 DATASETS  * FILE   NREC   LENGTH (MB)   RECORD NAMES
              1      19     1346.95       500      610      700      900      950      970     1000      129      960     1100   
                                          VAR    BASINP    GEOM    SYMINP    ZMAT    AOBASIS   BASIS     P2S    ABASIS      S 
                                         1400     1410     1200     1210     1080     1600     1650     1700     1380   
                                           T        V       H0       H01     AOSYM     SMH    MOLCAS    OPER     JKOP   

              2       6       17.39       700     1000      520     2100      200     2101   
                                         GEOM     BASIS   MCVARS     RHF    OPTIONS    RHF  

 PROGRAMS   *        TOTAL   CCSD(T)    HF-SCF       INT   CCSD(T)    HF-SCF       INT
 CPU TIMES  *      7933.35   1342.14    200.77      0.39   5977.76    216.73    195.32
 REAL TIME  *      8130.19 SEC
 DISK USED  *         3.24 GB (local),       82.07 GB (total)
 SF USED    *         3.08 GB
 GA USED    *         0.00 MB       (max)       0.00 MB       (current)
 **********************************************************************************************************************************

 Running procedure: SET_MONOMER2

 Dummy atoms: O18  H35  H36


 Recomputing one-electron integrals since nuclear charges changed


 PROGRAM * SEWARD (Integral evaluation for generally contracted gaussian basis sets)     Author: Roland Lindh, 1990

 Geometry written to block  1 of record 700


 Point group  C1  



 ATOMIC COORDINATES

 NR  ATOM    CHARGE       X              Y              Z

   1  O18     0.00  -12.011477193    0.742095449    6.107594835
   2  H35     0.00  -11.750694988   -0.413472076    4.697292228
   3  H36     0.00  -10.560734447    0.465061599    7.217053042
   4  C1      6.00   -6.193010455    2.801518980    2.403542658
   5  H41     1.00   -4.656285171    1.699997622    3.119937832
   6  H42     1.00   -5.973046335    4.726205038    2.982932688
   7  H43     1.00   -7.940251230    2.077186956    3.118237078
   8  H44     1.00   -6.176569838    2.685300823    0.384937212

 Bond lengths in Bohr (Angstrom)

 1-2  1.841818967  1-3  1.847241128  4-5  2.021904040  4-6  2.022002335  4-7  2.021953343
     ( 0.974648624)     ( 0.977517908)     ( 1.069945541)     ( 1.069997556)     ( 1.069971630)

 4-8  2.022015060
     ( 1.070004290)

 Bond angles

  2-1-3  104.74973043   5-4-6  109.53398059   5-4-7  109.65604535   5-4-8  108.43490854

  6-4-7  109.49436728   6-4-8  109.86987750   7-4-8  109.83468330

 NUCLEAR CHARGE:                   10
 NUMBER OF PRIMITIVE AOS:         578
 NUMBER OF SYMMETRY AOS:          474
 NUMBER OF CONTRACTIONS:          436   (  436A   )
 NUMBER OF CORE ORBITALS:           1   (    1A   )
 NUMBER OF VALENCE ORBITALS:        8   (    8A   )

 MOLECULE CHANGED: INITIALIZING OCCUPATION AND DUMP RECORDS


 NUCLEAR REPULSION ENERGY   13.68681606

 Basis set:  JKFIT                   
 Basis size:   740
 Attributes:
 Sphericals:   T
 Basis set:  MP2FIT                  
 Basis size:   816
 Attributes:
 Sphericals:   T
 Basis set:  RI                      
 Basis size:   556
 Attributes:
 Sphericals:   T
 Basis set:  TDDFT                   
 Basis size:   816
 Attributes:
 Sphericals:   T

 Eigenvalues of metric

         1 0.106E-04 0.165E-04 0.290E-04 0.334E-04 0.477E-04 0.620E-04 0.893E-04 0.103E-03


 Contracted 2-electron integrals neglected if value below      1.0D-14

 OPERATOR DM      FOR CENTER  0  COORDINATES:    0.000000    0.000000    0.000000


 **********************************************************************************************************************************
 DATASETS  * FILE   NREC   LENGTH (MB)   RECORD NAMES
              1      18       37.06       500      610      700      900      950      970     1000      129      960     1100   
                                          VAR    BASINP    GEOM    SYMINP    ZMAT    AOBASIS   BASIS     P2S    ABASIS      S 
                                         1400     1410     1200     1210     1080     1600     1650     1700   
                                           T        V       H0       H01     AOSYM     SMH    MOLCAS    OPER   

              2       6       17.39       700     1000      520     2100      200     2101   
                                         GEOM     BASIS   MCVARS     RHF    OPTIONS    RHF  

 PROGRAMS   *        TOTAL       INT   CCSD(T)    HF-SCF       INT   CCSD(T)    HF-SCF       INT
 CPU TIMES  *      7933.71      0.36   1342.14    200.77      0.39   5977.76    216.73    195.32
 REAL TIME  *      8131.23 SEC
 DISK USED  *         3.24 GB (local),       82.07 GB (total)
 SF USED    *         3.08 GB
 GA USED    *         0.00 MB       (max)       0.00 MB       (current)
 **********************************************************************************************************************************


 PROGRAM * RHF-SCF (CLOSED SHELL)       Authors: W. Meyer, H.-J. Werner


 NUMBER OF ELECTRONS:       5+    5-    SPACE SYMMETRY=1    SPIN SYMMETRY: Singlet 
 CONVERGENCE THRESHOLDS:    1.00E-08 (Density)    1.00E-11 (Energy)
 MAX. NUMBER OF ITERATIONS:       60
 INTERPOLATION TYPE:            DIIS
 INTERPOLATION STEPS:              2 (START)      1 (STEP)
 LEVEL SHIFTS:                  0.00 (CLOSED)  0.00 (OPEN) 



 Orbital guess generated from atomic densities. Full valence occupancy:    9

 Molecular orbital dump at record        2102.2

 Initial occupancy:   5

 ITERATION    DDIFF          GRAD             ENERGY        2-EL.EN.            DIPOLE MOMENTS         DIIS   ORB.
    1      0.000D+00      0.000D+00       -40.19609618     53.506301    0.00411   -0.00276   -0.00131    0    start
    2      0.000D+00      0.257D-02       -40.21335037     52.217632    0.00129   -0.00087   -0.00039    1    diag
    3      0.159D-02      0.998D-03       -40.21562631     52.672093    0.00182   -0.00123   -0.00056    2    diag
    4      0.442D-03      0.249D-03       -40.21594577     52.617280    0.00162   -0.00110   -0.00049    3    diag
    5      0.169D-03      0.322D-04       -40.21595126     52.619428    0.00159   -0.00108   -0.00048    4    diag
    6      0.419D-04      0.264D-05       -40.21595130     52.619564    0.00159   -0.00108   -0.00048    5    diag
    7      0.552D-05      0.212D-06       -40.21595130     52.619525    0.00159   -0.00108   -0.00048    6    diag
    8      0.242D-06      0.170D-07       -40.21595130     52.619526    0.00159   -0.00108   -0.00048    7    diag
    9      0.833D-07      0.217D-08       -40.21595130     52.619526    0.00159   -0.00108   -0.00048    8    diag
   10      0.823D-08      0.594D-09       -40.21595130     52.619526    0.00159   -0.00108   -0.00048    0    orth

 Final occupancy:   5

 !RHF STATE  1.1 Energy               -40.215951302907
 Nuclear energy                        13.68681606
 One-electron energy                  -80.21253049
 Two-electron energy                   26.30976313
 Virial quotient                       -0.99838105
 !RHF STATE  1.1 Dipole moment          0.00159093    -0.00107961    -0.00048133
 Dipole moment /Debye                   0.00404347    -0.00274392    -0.00122333

 Orbital energies:

         1.1          2.1          3.1          4.1          5.1          6.1          7.1
    -11.196223    -0.950661    -0.551889    -0.549954    -0.547776     0.024084     0.038841


 HOMO      5.1    -0.547776 =     -14.9057eV
 LUMO      6.1     0.024084 =       0.6554eV
 LUMO-HOMO         0.571860 =      15.5611eV


 **********************************************************************************************************************************
 DATASETS  * FILE   NREC   LENGTH (MB)   RECORD NAMES
              1      18       37.06       500      610      700      900      950      970     1000      129      960     1100   
                                          VAR    BASINP    GEOM    SYMINP    ZMAT    AOBASIS   BASIS     P2S    ABASIS      S 
                                         1400     1410     1200     1210     1080     1600     1650     1700   
                                           T        V       H0       H01     AOSYM     SMH    MOLCAS    OPER   

              2       7       27.51       700     1000      520     2100      200     2101     2102   
                                         GEOM     BASIS   MCVARS     RHF    OPTIONS    RHF      RHF  

 PROGRAMS   *        TOTAL    HF-SCF       INT   CCSD(T)    HF-SCF       INT   CCSD(T)    HF-SCF       INT
 CPU TIMES  *      8106.60    172.88      0.36   1342.14    200.77      0.39   5977.76    216.73    195.32
 REAL TIME  *      8322.01 SEC
 DISK USED  *         3.24 GB (local),       82.07 GB (total)
 SF USED    *         3.08 GB
 GA USED    *         0.00 MB       (max)       0.00 MB       (current)
 **********************************************************************************************************************************

 Basis set:  JKFIT                   
 Basis size:   740
 Attributes:
 Sphericals:   T
 Basis set:  MP2FIT                  
 Basis size:   816
 Attributes:
 Sphericals:   T
 Basis set:  RI                      
 Basis size:   556
 Attributes:
 Sphericals:   T
 Basis set:  TDDFT                   
 Basis size:   816
 Attributes:
 Sphericals:   T

 PROGRAM * CCSD (Closed-shell coupled cluster)     Authors: C. Hampel, H.-J. Werner, 1991, M. Deegan, P.J. Knowles, 1992


 Convergence thresholds:  THRVAR = 1.00D-08  THRDEN = 1.00D-10

 CCSD(T)     terms to be evaluated (factor= 1.000)


 Number of core orbitals:           1 (   1 )
 Number of closed-shell orbitals:   4 (   4 )
 Number of external orbitals:     431 ( 431 )

 Molecular orbitals read from record     2102.2  Type=RHF/CANONICAL (state 1.1)

 Number of N-1 electron functions:               4
 Number of N-2 electron functions:              10
 Number of singly external CSFs:              1724
 Number of doubly external CSFs:           1486950
 Total number of CSFs:                     1488675

 Length of J-op  integral file:               0.00 MB
 Length of K-op  integral file:              13.08 MB
 Length of 3-ext integral record:             0.00 MB

 Memory could be reduced to 526.20 Mwords without degradation in triples

 Integral transformation finished. Total CPU: 161.03 sec, npass=  1  Memory used: 214.76 MW

 Reference energy:                    -40.21595130

 MP2 singlet pair energy:              -0.15443602
 MP2 triplet pair energy:              -0.05646409
 MP2 correlation energy:               -0.21090012
 MP2 total energy:                    -40.42685142

 SCS-MP2 correlation energy:           -0.22045644   (PS=  1.200000  PT=  0.333333)
 SCS-MP2 total energy:                -40.43640774

 ITER.      SQ.NORM     CORR.ENERGY   TOTAL ENERGY   ENERGY CHANGE        DEN1      VAR(S)    VAR(P)  DIIS     TIME  TIME/IT
   1      1.07097363    -0.22688316   -40.44283446    -0.01598305    -0.01039562  0.55D-03  0.97D-03  1  1   208.29    48.19
   2      1.07611845    -0.22798325   -40.44393456    -0.00110009    -0.00547143  0.14D-04  0.92D-04  2  2   255.53    48.58
   3      1.07763997    -0.22802246   -40.44397376    -0.00003920    -0.00107354  0.18D-05  0.58D-05  3  3   302.12    48.48
   4      1.07799973    -0.22802815   -40.44397945    -0.00000569    -0.00017111  0.12D-06  0.28D-06  4  4   348.73    48.46
   5      1.07804779    -0.22803003   -40.44398133    -0.00000189    -0.00001304  0.10D-07  0.20D-07  5  5   395.13    48.37
   6      1.07805605    -0.22802882   -40.44398012     0.00000121    -0.00000327  0.65D-09  0.14D-08  6  6   442.50    48.46
   7      1.07805711    -0.22802853   -40.44397983     0.00000029    -0.00000056  0.47D-10  0.12D-09  6  1   489.20    48.46
   8      1.07805705    -0.22802858   -40.44397988    -0.00000005     0.00000022  0.48D-11  0.69D-11  6  3   536.38    48.50
   9      1.07805718    -0.22802856   -40.44397987     0.00000002    -0.00000008  0.41D-12  0.56D-12  6  2   582.93    48.47
  10      1.07805718    -0.22802856   -40.44397986     0.00000000     0.00000000  0.47D-13  0.57D-13  6  4   631.13    48.62
  11      1.07805719    -0.22802856   -40.44397986     0.00000000     0.00000000  0.43D-14  0.57D-14  6  5   680.02    48.81
  12      1.07805718    -0.22802856   -40.44397986     0.00000000     0.00000000  0.10D-15  0.63D-15  6  6   728.48    48.93
  13      1.07805718    -0.22802856   -40.44397986    -0.00000000     0.00000000  0.77D-17  0.61D-16  6  1   776.59    49.01
  14      1.07805718    -0.22802856   -40.44397986    -0.00000000     0.00000000  0.10D-17  0.76D-17  6  3   823.01    48.94

 Norm of t1 vector:      0.03128414      S-energy:    -0.00000000      T1 diagnostic:  0.00782103
                                                                       D1 diagnostic:  0.01257220

 Total CPU time for triples:    445.62 sec


 RESULTS
 =======

  Reference energy                    -40.215951302906
  CCSD singlet pair energy             -0.173332800744
  CCSD triplet pair energy             -0.054695759041
  CCSD correlation energy              -0.228028559790

  Triples (T) contribution             -0.006882468212
  Total correlation energy             -0.234911028002

  CCSD total energy                   -40.443979862696
  CCSD[T] energy                      -40.451075486573
  CCSD-T energy                       -40.450794722356
 !CCSD(T) total energy                -40.450862330908

 Timing summary (sec):

 STEP                 CPU(USER)    SYS     CPU(TOT)    WALL
 Transformation        161.39      4.70    166.09    166.33
 CCSD iterations       661.70     22.61    684.31    685.34
 Triples               445.62      1.37    446.99    447.69

 Program statistics:

 Available memory in ccsd:              1999999916
 Min. memory needed in ccsd:               6768234
 Max. memory used in ccsd:                 7865440
 Max. memory used in cckext:               5182436 (14 integral passes)



 **********************************************************************************************************************************
 DATASETS  * FILE   NREC   LENGTH (MB)   RECORD NAMES
              1      19     1346.95       500      610      700      900      950      970     1000      129      960     1100   
                                          VAR    BASINP    GEOM    SYMINP    ZMAT    AOBASIS   BASIS     P2S    ABASIS      S 
                                         1400     1410     1200     1210     1080     1600     1650     1700     1380   
                                           T        V       H0       H01     AOSYM     SMH    MOLCAS    OPER     JKOP   

              2       7       27.51       700     1000      520     2100      200     2101     2102   
                                         GEOM     BASIS   MCVARS     RHF    OPTIONS    RHF      RHF  

 PROGRAMS   *        TOTAL   CCSD(T)    HF-SCF       INT   CCSD(T)    HF-SCF       INT   CCSD(T)    HF-SCF       INT
 CPU TIMES  *      9375.54   1268.93    172.88      0.36   1342.14    200.77      0.39   5977.76    216.73    195.32
 REAL TIME  *      9622.27 SEC
 DISK USED  *         3.24 GB (local),       82.07 GB (total)
 SF USED    *         3.08 GB
 GA USED    *         0.00 MB       (max)       0.00 MB       (current)
 **********************************************************************************************************************************
 Molecular orbitals read from record     2102.2  Type=RHF/CANONICAL (state 1.1)
 Occupation numbers read from record     2102.2  Type=RHF/RHF (state 1.1)
 Orbital energies read from record       2102.2  Type=RHF/CANONICAL (state 1.1)
 Redundancy group numbers read from rec  2102.2  Type=RHF/RHF (state 1.1)

 CCSD(T)/aug-cc-pVQZ energy=    -40.450862330908

         CCSD(T)          HF-SCF         CCSD(T)          HF-SCF         CCSD(T)          HF-SCF
    -40.45086233    -40.21595130    -76.36311303    -76.06402931   -116.81440379   -116.27922989
 **********************************************************************************************************************************
 Molpro calculation terminated
