
 Primary working directories    : /scratch/klimes/383122/molpro.rc9JIXYhVo
 Secondary working directories  : /scratch/klimes/383122/molpro.rc9JIXYhVo
 Wavefunction directory         : /scratch/klimes/383122/
 Main file repository           : /scratch/klimes/383122/molpro.rc9JIXYhVo/

 id        : karlovklimes

 Nodes                      nprocs
 nc-20.cc.karlov.mff.cuni.cz    4

 Using customized tuning parameters: mindgm=1; mindgv=20; mindgc=4; mindgr=1; noblas=0; minvec=7
 default implementation of scratch files=sf  


 Variables initialized (930), CPU time= 0.01 sec
                                                                                 !gdirect
 memory,2000,m
 gthresh,orbital=1d-10,energy=1d-10,grid=1d-8
 
 symmetry,nosym
 angstrom
 geometry={
 O19        -6.574800000000      3.149500000000     -0.152800000000
 H37        -7.467300000000      3.443900000000     -0.376700000000
 H38        -6.567400000000      3.105000000000      0.858500000000
 C1        -3.277200000000      1.482500000000      1.271900000000
 H41        -2.464000000000      0.899600000000      1.651000000000
 H42        -3.160800000000      2.501000000000      1.578500000000
 H43        -4.201800000000      1.099200000000      1.650100000000
 H44        -3.268500000000      1.421000000000      0.203700000000
 }
 
 nkerna=1
 nkernb=1
 
 gf=0
 sing=1
 thrdum=1d-4
 gridthr=1d-8
 
 basis={
 set,orbital
 default,avqz
 set,jkfit
 default,avqz/jkfit
 set,mp2fit
 default,avqz/mp2fit
 set,ri
 default,avqz/optri
 set,tddft
 default,avqz/mp2fit
 }
 
 proc set_monomer1
 dummy,4,5,6,7,8
 endproc
 
 proc set_monomer2
 dummy,1,2,3
 endproc
 
                                                                                 !1234 energy
 {hf,accu=1.d-16}
 ccsd(t)
 
 set_monomer1
 {hf,accu=1.d-16}
 ccsd(t)
 
 set_monomer2
 {hf,accu=1.d-16}
 ccsd(t)
 
 Commands  initialized (760), CPU time= 0.01 sec, 617 directives.
 Default parameters read. Elapsed time= 0.23 sec

 Checking input...
 Passed
1


                                         ***  PROGRAM SYSTEM MOLPRO  ***
                                       Copyright, TTI GmbH Stuttgart, 2015
                                    Version 2019.1 linked Jan 14 2019 13:09:19


 **********************************************************************************************************************************
 LABEL *                                                                                 
  64 bit mpp version                                                                     DATE: 11-Mar-20          TIME: 16:01:06  
 **********************************************************************************************************************************

 SHA1:             d688ac825633d238f2093ded1675ba87ccd55965
 **********************************************************************************************************************************

 THRESHOLDS:

 ZERO    =  1.00D-12  ONEINT  =  1.00D-12  TWOINT  =  1.00D-11  PREFAC  =  1.00D-14  XXXXXX  =  1.00D-09  EORDER  =  1.00D-04
 ENERGY  =  1.00D-10  ETEST   =  0.00D+00  EDENS   =  0.00D+00  THRDEDEF=  1.00D-06  GRADIENT=  1.00D-02  STEP    =  1.00D-03
 ORBITAL =  1.00D-10  CIVEC   =  1.00D-05  COEFF   =  1.00D-04  PRINTCI =  5.00D-02  PUNCHCI =  9.90D+01  OPTGRAD =  3.00D-04
 OPTENERG=  1.00D-06  OPTSTEP =  3.00D-04  THRGRAD =  1.00D-10  COMPRESS=  1.00D-11  VARMIN  =  1.00D-07  VARMAX  =  1.00D-03
 THRDOUB =  0.00D+00  THRDIV  =  1.00D-05  THRRED  =  1.00D-07  THRPSP  =  1.00D+00  THRDC   =  1.00D-10  THRCS   =  1.00D-10
 THRNRM  =  1.00D-08  THREQ   =  0.00D+00  THRDE   =  1.00D+00  THRREF  =  1.00D-05  SPARFAC =  1.00D+00  THRDLP  =  1.00D-07
 THRDIA  =  1.00D-10  THRDLS  =  1.00D-07  THRGPS  =  0.00D+00  THRKEX  =  0.00D+00  THRDIS  =  2.00D-01  THRVAR  =  1.00D-10
 THRLOC  =  1.00D-06  THRGAP  =  1.00D-06  THRLOCT = -1.00D+00  THRGAPT = -1.00D+00  THRORB  =  1.00D-06  THRMLTP =  0.00D+00
 THRCPQCI=  1.00D-10  KEXTA   =  0.00D+00  THRCOARS=  0.00D+00  SYMTOL  =  1.00D-06  GRADTOL =  1.00D-06  THROVL  =  1.00D-08
 THRORTH =  1.00D-08  GRID    =  1.00D-08  GRIDMAX =  1.00D-03  DTMAX   =  0.00D+00  THROCCDE=  1.00D-01  THROCCDE=  1.00D-01
 THRPRINT=  2.50D-01


 Variable memory set to 2000000000 words,  buffer space 

 ZSYMEL=NOSYM
 ZUNIT=ANG


Geometry recognized as XYZ

 SETTING NKERNA         =         1.00000000                                  
 SETTING NKERNB         =         1.00000000                                  
 SETTING GF             =     0.00000000D+00                                  
 SETTING SING           =         1.00000000                                  
 SETTING THRDUM         =     1.00000000D-04                                  
 SETTING GRIDTHR        =     1.00000000D-08                                  
 SETTING BASIS          =    AVQZ


 Recomputing integrals since basis changed


 Using spherical harmonics

 Library entry O      S aug-cc-pVQZ          selected for orbital group  1
 Library entry O      P aug-cc-pVQZ          selected for orbital group  1
 Library entry O      D aug-cc-pVQZ          selected for orbital group  1
 Library entry O      F aug-cc-pVQZ          selected for orbital group  1
 Library entry O      G aug-cc-pVQZ          selected for orbital group  1
 Library entry H      S aug-cc-pVQZ          selected for orbital group  2
 Library entry H      P aug-cc-pVQZ          selected for orbital group  2
 Library entry H      D aug-cc-pVQZ          selected for orbital group  2
 Library entry H      F aug-cc-pVQZ          selected for orbital group  2
 Library entry C      S aug-cc-pVQZ          selected for orbital group  3
 Library entry C      P aug-cc-pVQZ          selected for orbital group  3
 Library entry C      D aug-cc-pVQZ          selected for orbital group  3
 Library entry C      F aug-cc-pVQZ          selected for orbital group  3
 Library entry C      G aug-cc-pVQZ          selected for orbital group  3


 PROGRAM * SEWARD (Integral evaluation for generally contracted gaussian basis sets)     Author: Roland Lindh, 1990

 Geometry written to block  1 of record 700


 Point group  C1  



 ATOMIC COORDINATES

 NR  ATOM    CHARGE       X              Y              Z

   1  O19     8.00  -12.424571324    5.951692429   -0.288750152
   2  H37     1.00  -14.111151890    6.508027800   -0.711859831
   3  H38     1.00  -12.410587350    5.867599617    1.622329878
   4  C1      6.00   -6.193010455    2.801518980    2.403542658
   5  H41     1.00   -4.656285171    1.699997622    3.119937832
   6  H42     1.00   -5.973046335    4.726205038    2.982932688
   7  H43     1.00   -7.940251230    2.077186956    3.118237078
   8  H44     1.00   -6.176569838    2.685300823    0.384937212

 Bond lengths in Bohr (Angstrom)

 1-2  1.825673808  1-3  1.912980406  4-5  2.021904040  4-6  2.022002335  4-7  2.021953343
     ( 0.966104974)     ( 1.012305636)     ( 1.069945541)     ( 1.069997556)     ( 1.069971630)

 4-8  2.022015060
     ( 1.070004290)

 Bond angles

  2-1-3  104.57658282   5-4-6  109.53398059   5-4-7  109.65604535   5-4-8  108.43490854

  6-4-7  109.49436728   6-4-8  109.86987750   7-4-8  109.83468330

 NUCLEAR CHARGE:                   20
 NUMBER OF PRIMITIVE AOS:         578
 NUMBER OF SYMMETRY AOS:          474
 NUMBER OF CONTRACTIONS:          436   (  436A   )
 NUMBER OF CORE ORBITALS:           2   (    2A   )
 NUMBER OF VALENCE ORBITALS:       14   (   14A   )


 NUCLEAR REPULSION ENERGY   35.73898765


 Basis set:  JKFIT                   
 Basis size:   740
 Attributes:
 Sphericals:   T
 Basis set:  MP2FIT                  
 Basis size:   816
 Attributes:
 Sphericals:   T
 Basis set:  RI                      
 Basis size:   556
 Attributes:
 Sphericals:   T
 Basis set:  TDDFT                   
 Basis size:   816
 Attributes:
 Sphericals:   T

 **********************************************************************************************************************************


 Eigenvalues of metric

         1 0.149E-04 0.190E-04 0.365E-04 0.380E-04 0.631E-04 0.890E-04 0.923E-04 0.953E-04


 Contracted 2-electron integrals neglected if value below      1.0D-14
 AO integral compression algorithm  1   Integral accuracy      1.0D-14

     21735.932 MB (compressed) written to integral file ( 54.2%)

     Node minimum: 4905.239 MB, node maximum: 5848.957 MB


 NUMBER OF SORTED TWO-ELECTRON INTEGRALS: 1134451344.     BUFFER LENGTH:  32768
 NUMBER OF SEGMENTS:  36  SEGMENT LENGTH:   31999984      RECORD LENGTH: 524288

 Memory used in sort:      32.56 MW

 SORT1 READ  5012305700. AND WROTE   926695835. INTEGRALS IN   2668 RECORDS. CPU TIME:   112.53 SEC, REAL TIME:   129.19 SEC
 SORT2 READ  3705088815. AND WROTE  4537853011. INTEGRALS IN  82340 RECORDS. CPU TIME:    20.65 SEC, REAL TIME:    31.78 SEC

 Node minimum:  1134427528.  Node maximum:  1134498978. integrals

 OPERATOR DM      FOR CENTER  0  COORDINATES:    0.000000    0.000000    0.000000


 **********************************************************************************************************************************
 DATASETS  * FILE   NREC   LENGTH (MB)   RECORD NAMES
              1      18       37.06       500      610      700      900      950      970     1000      129      960     1100   
                                          VAR    BASINP    GEOM    SYMINP    ZMAT    AOBASIS   BASIS     P2S    ABASIS      S 
                                         1400     1410     1200     1210     1080     1600     1650     1700   
                                           T        V       H0       H01     AOSYM     SMH    MOLCAS    OPER   

 PROGRAMS   *        TOTAL       INT
 CPU TIMES  *       198.10    197.88
 REAL TIME  *       234.58 SEC
 DISK USED  *        37.58 MB (local),       66.20 GB (total)
 GA USED    *         0.00 MB       (max)       0.00 MB       (current)
 **********************************************************************************************************************************


 PROGRAM * RHF-SCF (CLOSED SHELL)       Authors: W. Meyer, H.-J. Werner


 NUMBER OF ELECTRONS:      10+   10-    SPACE SYMMETRY=1    SPIN SYMMETRY: Singlet 
 CONVERGENCE THRESHOLDS:    1.00E-08 (Density)    1.00E-11 (Energy)
 MAX. NUMBER OF ITERATIONS:       60
 INTERPOLATION TYPE:            DIIS
 INTERPOLATION STEPS:              2 (START)      1 (STEP)
 LEVEL SHIFTS:                  0.00 (CLOSED)  0.00 (OPEN) 



 Orbital guess generated from atomic densities. Full valence occupancy:   16

 Molecular orbital dump at record        2100.2

 Initial occupancy:  10

 ITERATION    DDIFF          GRAD             ENERGY        2-EL.EN.            DIPOLE MOMENTS         DIIS   ORB.
    1      0.000D+00      0.000D+00      -116.21762675    157.248652   -0.84406    0.23582    0.77341    0    start
    2      0.000D+00      0.380D-02      -116.26197219    152.156906   -0.49389    0.14423    0.38811    1    diag
    3      0.274D-02      0.227D-02      -116.27613129    154.275905   -0.58596    0.16780    0.48480    2    diag
    4      0.965D-03      0.333D-03      -116.27680210    154.162415   -0.57892    0.16571    0.47509    3    diag
    5      0.204D-03      0.989D-04      -116.27687421    154.157195   -0.57938    0.16591    0.47369    4    diag
    6      0.834D-04      0.241D-04      -116.27687830    154.162882   -0.57901    0.16583    0.47280    5    diag
    7      0.224D-04      0.499D-05      -116.27687857    154.161195   -0.57909    0.16586    0.47272    6    diag
    8      0.676D-05      0.132D-05      -116.27687859    154.161380   -0.57908    0.16586    0.47262    7    diag
    9      0.160D-05      0.297D-06      -116.27687859    154.161352   -0.57906    0.16585    0.47260    8    diag
   10      0.461D-06      0.338D-07      -116.27687859    154.161353   -0.57906    0.16585    0.47260    9    orth
   11      0.445D-07      0.813D-08      -116.27687859    154.161354   -0.57906    0.16585    0.47260    9    diag
   12      0.961D-08      0.211D-08      -116.27687859    154.161354   -0.57906    0.16585    0.47260    0    orth

 Final occupancy:  10

 !RHF STATE  1.1 Energy              -116.276878590888
 Nuclear energy                        35.73898765
 One-electron energy                 -229.09654327
 Two-electron energy                   77.08067703
 Virial quotient                       -1.00101016
 !RHF STATE  1.1 Dipole moment         -0.57906382     0.16585361     0.47259753
 Dipole moment /Debye                  -1.47173703     0.42153022     1.20114443

 Orbital energies:

         1.1          2.1          3.1          4.1          5.1          6.1          7.1          8.1          9.1         10.1
    -20.569683   -11.191871    -1.337028    -0.946236    -0.700611    -0.578230    -0.547861    -0.545942    -0.542540    -0.507592

        11.1         12.1
      0.024287     0.035015


 HOMO     10.1    -0.507592 =     -13.8123eV
 LUMO     11.1     0.024287 =       0.6609eV
 LUMO-HOMO         0.531879 =      14.4732eV


 **********************************************************************************************************************************
 DATASETS  * FILE   NREC   LENGTH (MB)   RECORD NAMES
              1      18       37.06       500      610      700      900      950      970     1000      129      960     1100   
                                          VAR    BASINP    GEOM    SYMINP    ZMAT    AOBASIS   BASIS     P2S    ABASIS      S 
                                         1400     1410     1200     1210     1080     1600     1650     1700   
                                           T        V       H0       H01     AOSYM     SMH    MOLCAS    OPER   

              2       4        6.75       700     1000      520     2100   
                                         GEOM     BASIS   MCVARS     RHF  

 PROGRAMS   *        TOTAL    HF-SCF       INT
 CPU TIMES  *       402.80    204.70    197.88
 REAL TIME  *       456.40 SEC
 DISK USED  *        57.63 MB (local),       66.28 GB (total)
 SF USED    *         0.76 MB
 GA USED    *         0.00 MB       (max)       0.00 MB       (current)
 **********************************************************************************************************************************

 Basis set:  JKFIT                   
 Basis size:   740
 Attributes:
 Sphericals:   T
 Basis set:  MP2FIT                  
 Basis size:   816
 Attributes:
 Sphericals:   T
 Basis set:  RI                      
 Basis size:   556
 Attributes:
 Sphericals:   T
 Basis set:  TDDFT                   
 Basis size:   816
 Attributes:
 Sphericals:   T

 PROGRAM * CCSD (Closed-shell coupled cluster)     Authors: C. Hampel, H.-J. Werner, 1991, M. Deegan, P.J. Knowles, 1992


 Convergence thresholds:  THRVAR = 1.00D-08  THRDEN = 1.00D-10

 CCSD(T)     terms to be evaluated (factor= 1.000)


 Number of core orbitals:           2 (   2 )
 Number of closed-shell orbitals:   8 (   8 )
 Number of external orbitals:     426 ( 426 )

 Molecular orbitals read from record     2100.2  Type=RHF/CANONICAL (state 1.1)

 Number of N-1 electron functions:               8
 Number of N-2 electron functions:              36
 Number of singly external CSFs:              3408
 Number of doubly external CSFs:           5808936
 Total number of CSFs:                     5812345

 Length of J-op  integral file:               0.00 MB
 Length of K-op  integral file:              13.08 MB
 Length of 3-ext integral record:             0.00 MB

 Memory could be reduced to 828.85 Mwords without degradation in triples

 Integral transformation finished. Total CPU: 307.34 sec, npass=  1  Memory used: 389.48 MW

 Reference energy:                   -116.27687859

 MP2 singlet pair energy:              -0.34129119
 MP2 triplet pair energy:              -0.15848229
 MP2 correlation energy:               -0.49977348
 MP2 total energy:                   -116.77665207

 SCS-MP2 correlation energy:           -0.50816063   (PS=  1.200000  PT=  0.333333)
 SCS-MP2 total energy:               -116.78503922

 ITER.      SQ.NORM     CORR.ENERGY   TOTAL ENERGY   ENERGY CHANGE        DEN1      VAR(S)    VAR(P)  DIIS     TIME  TIME/IT
   1      1.13629812    -0.51736506  -116.79424365    -0.01759158    -0.00599404  0.14D-02  0.21D-02  1  1   471.71   164.55
   2      1.14499249    -0.51872191  -116.79560050    -0.00135685    -0.01030949  0.28D-04  0.25D-03  2  2   634.71   165.75
   3      1.14827388    -0.51885044  -116.79572903    -0.00012852    -0.00229392  0.12D-04  0.13D-04  3  3   797.63   165.40
   4      1.14915737    -0.51885419  -116.79573278    -0.00000376    -0.00041729  0.61D-06  0.12D-05  4  4   960.70   165.33
   5      1.14931881    -0.51885388  -116.79573247     0.00000031    -0.00004742  0.21D-06  0.88D-07  5  5  1123.72   165.31
   6      1.14936913    -0.51885006  -116.79572865     0.00000383    -0.00001200  0.20D-07  0.63D-08  6  6  1288.08   165.45
   7      1.14937871    -0.51884906  -116.79572765     0.00000100    -0.00000145  0.17D-08  0.86D-09  6  2  1451.05   165.36
   8      1.14938075    -0.51884894  -116.79572753     0.00000012     0.00000008  0.28D-09  0.92D-10  6  1  1614.63   165.37
   9      1.14938163    -0.51884888  -116.79572747     0.00000006    -0.00000004  0.20D-10  0.13D-10  6  3  1777.87   165.36
  10      1.14938173    -0.51884888  -116.79572747    -0.00000000     0.00000008  0.25D-11  0.16D-11  6  4  1944.54   165.77
  11      1.14938169    -0.51884888  -116.79572747    -0.00000001     0.00000006  0.45D-12  0.25D-12  6  5  2118.31   166.69
  12      1.14938167    -0.51884888  -116.79572747    -0.00000000     0.00000002  0.10D-12  0.31D-13  6  6  2287.81   167.11
  13      1.14938164    -0.51884889  -116.79572748    -0.00000000     0.00000001  0.17D-13  0.49D-14  6  2  2452.22   167.04
  14      1.14938164    -0.51884889  -116.79572748    -0.00000000     0.00000000  0.23D-14  0.11D-14  6  1  2615.56   167.00
  15      1.14938164    -0.51884889  -116.79572748    -0.00000000     0.00000000  0.25D-15  0.14D-15  6  3  2779.90   166.96
  16      1.14938163    -0.51884889  -116.79572748    -0.00000000    -0.00000000  0.33D-16  0.20D-16  6  4  2944.72   166.94
  17      1.14938164    -0.51884889  -116.79572748     0.00000000    -0.00000000  0.69D-17  0.31D-17  6  5  3109.06   166.89

 Norm of t1 vector:      0.05063302      S-energy:    -0.00000000      T1 diagnostic:  0.00895074
                                                                       D1 diagnostic:  0.02080748

   CPU time for triples:   1972.01 sec for i =  1 -  7 /  8 (~  68.8 % done)
   CPU time for triples:    927.45 sec for i =  8 -  8 /  8 (  100.0 % done)

 Total CPU time for triples:   2899.49 sec


 RESULTS
 =======

  Reference energy                   -116.276878590889
  CCSD singlet pair energy             -0.374088342362
  CCSD triplet pair energy             -0.144760543452
  CCSD correlation energy              -0.518848886064

  Triples (T) contribution             -0.016674900178
  Total correlation energy             -0.535523786241

  CCSD total energy                  -116.795727476953
  CCSD[T] energy                     -116.812946550171
  CCSD-T energy                      -116.812174092933
 !CCSD(T) total energy               -116.812402377131

 Timing summary (sec):

 STEP                 CPU(USER)    SYS     CPU(TOT)    WALL
 Transformation        308.52      6.97    315.49    316.89
 CCSD iterations      2800.65     29.31   2829.96   2837.44
 Triples              2899.49      6.34   2905.83   2909.21

 Program statistics:

 Available memory in ccsd:              1999999734
 Min. memory needed in ccsd:              17010489
 Max. memory used in ccsd:                22038113
 Max. memory used in cckext:              15155228 (17 integral passes)



 **********************************************************************************************************************************
 DATASETS  * FILE   NREC   LENGTH (MB)   RECORD NAMES
              1      19     2602.11       500      610      700      900      950      970     1000      129      960     1100   
                                          VAR    BASINP    GEOM    SYMINP    ZMAT    AOBASIS   BASIS     P2S    ABASIS      S 
                                         1400     1410     1200     1210     1080     1600     1650     1700     1380   
                                           T        V       H0       H01     AOSYM     SMH    MOLCAS    OPER     JKOP   

              2       4        6.75       700     1000      520     2100   
                                         GEOM     BASIS   MCVARS     RHF  

 PROGRAMS   *        TOTAL   CCSD(T)    HF-SCF       INT
 CPU TIMES  *      6411.69   6008.89    204.70    197.88
 REAL TIME  *      6520.92 SEC
 DISK USED  *         3.24 GB (local),       77.11 GB (total)
 SF USED    *         3.08 GB
 GA USED    *         0.00 MB       (max)       0.00 MB       (current)
 **********************************************************************************************************************************

 Running procedure: SET_MONOMER1

 Dummy atoms: C1  H41  H42  H43  H44


 Recomputing one-electron integrals since nuclear charges changed


 PROGRAM * SEWARD (Integral evaluation for generally contracted gaussian basis sets)     Author: Roland Lindh, 1990

 Geometry written to block  1 of record 700


 Point group  C1  



 ATOMIC COORDINATES

 NR  ATOM    CHARGE       X              Y              Z

   1  O19     8.00  -12.424571324    5.951692429   -0.288750152
   2  H37     1.00  -14.111151890    6.508027800   -0.711859831
   3  H38     1.00  -12.410587350    5.867599617    1.622329878
   4  C1      0.00   -6.193010455    2.801518980    2.403542658
   5  H41     0.00   -4.656285171    1.699997622    3.119937832
   6  H42     0.00   -5.973046335    4.726205038    2.982932688
   7  H43     0.00   -7.940251230    2.077186956    3.118237078
   8  H44     0.00   -6.176569838    2.685300823    0.384937212

 Bond lengths in Bohr (Angstrom)

 1-2  1.825673808  1-3  1.912980406  4-5  2.021904040  4-6  2.022002335  4-7  2.021953343
     ( 0.966104974)     ( 1.012305636)     ( 1.069945541)     ( 1.069997556)     ( 1.069971630)

 4-8  2.022015060
     ( 1.070004290)

 Bond angles

  2-1-3  104.57658282   5-4-6  109.53398059   5-4-7  109.65604535   5-4-8  108.43490854

  6-4-7  109.49436728   6-4-8  109.86987750   7-4-8  109.83468330

 NUCLEAR CHARGE:                   10
 NUMBER OF PRIMITIVE AOS:         578
 NUMBER OF SYMMETRY AOS:          474
 NUMBER OF CONTRACTIONS:          436   (  436A   )
 NUMBER OF CORE ORBITALS:           1   (    1A   )
 NUMBER OF VALENCE ORBITALS:        6   (    6A   )

 MOLECULE CHANGED: INITIALIZING OCCUPATION AND DUMP RECORDS


 NUCLEAR REPULSION ENERGY    8.90195171

 Basis set:  JKFIT                   
 Basis size:   740
 Attributes:
 Sphericals:   T
 Basis set:  MP2FIT                  
 Basis size:   816
 Attributes:
 Sphericals:   T
 Basis set:  RI                      
 Basis size:   556
 Attributes:
 Sphericals:   T
 Basis set:  TDDFT                   
 Basis size:   816
 Attributes:
 Sphericals:   T

 Eigenvalues of metric

         1 0.149E-04 0.190E-04 0.365E-04 0.380E-04 0.631E-04 0.890E-04 0.923E-04 0.953E-04


 Contracted 2-electron integrals neglected if value below      1.0D-14

 OPERATOR DM      FOR CENTER  0  COORDINATES:    0.000000    0.000000    0.000000


 **********************************************************************************************************************************
 DATASETS  * FILE   NREC   LENGTH (MB)   RECORD NAMES
              1      18       37.06       500      610      700      900      950      970     1000      129      960     1100   
                                          VAR    BASINP    GEOM    SYMINP    ZMAT    AOBASIS   BASIS     P2S    ABASIS      S 
                                         1400     1410     1200     1210     1080     1600     1650     1700   
                                           T        V       H0       H01     AOSYM     SMH    MOLCAS    OPER   

              2       5       10.59       700     1000      520     2100      200   
                                         GEOM     BASIS   MCVARS     RHF    OPTIONS    

 PROGRAMS   *        TOTAL       INT   CCSD(T)    HF-SCF       INT
 CPU TIMES  *      6412.07      0.37   6008.89    204.70    197.88
 REAL TIME  *      6522.17 SEC
 DISK USED  *         3.24 GB (local),       77.12 GB (total)
 SF USED    *         3.08 GB
 GA USED    *         0.00 MB       (max)       0.00 MB       (current)
 **********************************************************************************************************************************


 PROGRAM * RHF-SCF (CLOSED SHELL)       Authors: W. Meyer, H.-J. Werner


 NUMBER OF ELECTRONS:       5+    5-    SPACE SYMMETRY=1    SPIN SYMMETRY: Singlet 
 CONVERGENCE THRESHOLDS:    1.00E-08 (Density)    1.00E-11 (Energy)
 MAX. NUMBER OF ITERATIONS:       60
 INTERPOLATION TYPE:            DIIS
 INTERPOLATION STEPS:              2 (START)      1 (STEP)
 LEVEL SHIFTS:                  0.00 (CLOSED)  0.00 (OPEN) 



 Orbital guess generated from atomic densities. Full valence occupancy:    7

 Molecular orbital dump at record        2101.2

 Initial occupancy:   5

 ITERATION    DDIFF          GRAD             ENERGY        2-EL.EN.            DIPOLE MOMENTS         DIIS   ORB.
    1      0.000D+00      0.000D+00       -76.02188619     77.274798   -0.84871    0.23879    0.77537    0    start
    2      0.000D+00      0.468D-02       -76.04879855     73.571888   -0.49452    0.13991    0.43287    1    diag
    3      0.222D-02      0.302D-02       -76.06080323     75.224228   -0.58515    0.16538    0.51642    2    diag
    4      0.855D-03      0.282D-03       -76.06100705     75.132296   -0.58274    0.16486    0.51044    3    diag
    5      0.108D-03      0.812D-04       -76.06103057     75.147203   -0.58193    0.16470    0.50808    4    diag
    6      0.366D-04      0.166D-04       -76.06103219     75.146040   -0.58180    0.16469    0.50741    5    diag
    7      0.995D-05      0.345D-05       -76.06103227     75.146188   -0.58175    0.16468    0.50723    6    diag
    8      0.275D-05      0.621D-06       -76.06103228     75.146170   -0.58172    0.16467    0.50719    7    diag
    9      0.485D-06      0.863D-07       -76.06103228     75.146161   -0.58172    0.16467    0.50719    8    diag
   10      0.535D-07      0.214D-07       -76.06103228     75.146163   -0.58172    0.16467    0.50719    9    orth
   11      0.129D-07      0.544D-08       -76.06103228     75.146163   -0.58172    0.16467    0.50719    9    diag
   12      0.378D-08      0.103D-08       -76.06103228     75.146163   -0.58172    0.16467    0.50719    0    orth

 Final occupancy:   5

 !RHF STATE  1.1 Energy               -76.061032276346
 Nuclear energy                         8.90195171
 One-electron energy                 -122.53606556
 Two-electron energy                   37.57308158
 Virial quotient                       -1.00241556
 !RHF STATE  1.1 Dipole moment         -0.58172018     0.16467368     0.50718518
 Dipole moment /Debye                  -1.47848838     0.41853132     1.28905170

 Orbital energies:

         1.1          2.1          3.1          4.1          5.1          6.1          7.1
    -20.570079    -1.337396    -0.700962    -0.578524    -0.507990     0.020899     0.031925


 HOMO      5.1    -0.507990 =     -13.8231eV
 LUMO      6.1     0.020899 =       0.5687eV
 LUMO-HOMO         0.528889 =      14.3918eV


 **********************************************************************************************************************************
 DATASETS  * FILE   NREC   LENGTH (MB)   RECORD NAMES
              1      18       37.06       500      610      700      900      950      970     1000      129      960     1100   
                                          VAR    BASINP    GEOM    SYMINP    ZMAT    AOBASIS   BASIS     P2S    ABASIS      S 
                                         1400     1410     1200     1210     1080     1600     1650     1700   
                                           T        V       H0       H01     AOSYM     SMH    MOLCAS    OPER   

              2       6       17.39       700     1000      520     2100      200     2101   
                                         GEOM     BASIS   MCVARS     RHF    OPTIONS    RHF  

 PROGRAMS   *        TOTAL    HF-SCF       INT   CCSD(T)    HF-SCF       INT
 CPU TIMES  *      6617.68    205.61      0.37   6008.89    204.70    197.88
 REAL TIME  *      6744.29 SEC
 DISK USED  *         3.24 GB (local),       77.12 GB (total)
 SF USED    *         3.08 GB
 GA USED    *         0.00 MB       (max)       0.00 MB       (current)
 **********************************************************************************************************************************

 Basis set:  JKFIT                   
 Basis size:   740
 Attributes:
 Sphericals:   T
 Basis set:  MP2FIT                  
 Basis size:   816
 Attributes:
 Sphericals:   T
 Basis set:  RI                      
 Basis size:   556
 Attributes:
 Sphericals:   T
 Basis set:  TDDFT                   
 Basis size:   816
 Attributes:
 Sphericals:   T

 PROGRAM * CCSD (Closed-shell coupled cluster)     Authors: C. Hampel, H.-J. Werner, 1991, M. Deegan, P.J. Knowles, 1992


 Convergence thresholds:  THRVAR = 1.00D-08  THRDEN = 1.00D-10

 CCSD(T)     terms to be evaluated (factor= 1.000)


 Number of core orbitals:           1 (   1 )
 Number of closed-shell orbitals:   4 (   4 )
 Number of external orbitals:     431 ( 431 )

 Molecular orbitals read from record     2101.2  Type=RHF/CANONICAL (state 1.1)

 Number of N-1 electron functions:               4
 Number of N-2 electron functions:              10
 Number of singly external CSFs:              1724
 Number of doubly external CSFs:           1486950
 Total number of CSFs:                     1488675

 Length of J-op  integral file:               0.00 MB
 Length of K-op  integral file:              13.08 MB
 Length of 3-ext integral record:             0.00 MB

 Memory could be reduced to 526.20 Mwords without degradation in triples

 Integral transformation finished. Total CPU: 162.46 sec, npass=  1  Memory used: 214.76 MW

 Reference energy:                    -76.06103228

 MP2 singlet pair energy:              -0.18673111
 MP2 triplet pair energy:              -0.10166149
 MP2 correlation energy:               -0.28839260
 MP2 total energy:                    -76.34942488

 SCS-MP2 correlation energy:           -0.28733337   (PS=  1.200000  PT=  0.333333)
 SCS-MP2 total energy:                -76.34836565

 ITER.      SQ.NORM     CORR.ENERGY   TOTAL ENERGY   ENERGY CHANGE        DEN1      VAR(S)    VAR(P)  DIIS     TIME  TIME/IT
   1      1.06513100    -0.29004022   -76.35107249    -0.00164761     0.00435418  0.88D-03  0.11D-02  1  1   215.39    53.66
   2      1.06889536    -0.29030149   -76.35133376    -0.00026127    -0.00501382  0.15D-04  0.13D-03  2  2   269.11    54.36
   3      1.07042729    -0.29038713   -76.35141941    -0.00008564    -0.00105533  0.92D-05  0.67D-05  3  3   321.97    54.37
   4      1.07092829    -0.29038693   -76.35141921     0.00000020    -0.00023112  0.50D-06  0.78D-06  4  4   375.54    54.53
   5      1.07103608    -0.29038466   -76.35141694     0.00000227    -0.00003308  0.17D-06  0.51D-07  5  5   428.74    54.51
   6      1.07107513    -0.29038142   -76.35141370     0.00000324    -0.00000896  0.15D-07  0.37D-08  6  6   482.51    54.64
   7      1.07108239    -0.29038107   -76.35141335     0.00000035    -0.00000054  0.11D-08  0.59D-09  6  1   535.57    54.61
   8      1.07108376    -0.29038102   -76.35141329     0.00000006     0.00000024  0.17D-09  0.68D-10  6  2   589.38    54.71
   9      1.07108440    -0.29038096   -76.35141324     0.00000005    -0.00000001  0.12D-10  0.70D-11  6  3   642.11    54.64
  10      1.07108448    -0.29038096   -76.35141323     0.00000001     0.00000003  0.22D-11  0.92D-12  6  4   696.30    54.72
  11      1.07108447    -0.29038096   -76.35141324    -0.00000000     0.00000002  0.46D-12  0.16D-12  6  5   749.33    54.68
  12      1.07108446    -0.29038096   -76.35141324    -0.00000000     0.00000001  0.87D-13  0.22D-13  6  6   803.29    54.76
  13      1.07108445    -0.29038096   -76.35141324    -0.00000000     0.00000000  0.12D-13  0.40D-14  6  1   855.91    54.70
  14      1.07108444    -0.29038096   -76.35141324    -0.00000000     0.00000000  0.12D-14  0.82D-15  6  2   909.96    54.76
  15      1.07108444    -0.29038096   -76.35141324    -0.00000000     0.00000000  0.13D-15  0.10D-15  6  3   962.74    54.72
  16      1.07108444    -0.29038096   -76.35141324    -0.00000000     0.00000000  0.16D-16  0.13D-16  6  4  1016.64    54.77

 Norm of t1 vector:      0.03934938      S-energy:    -0.00000000      T1 diagnostic:  0.00983734
                                                                       D1 diagnostic:  0.02058473


 Total CPU time for triples:    431.21 sec


 RESULTS
 =======

  Reference energy                    -76.061032276346
  CCSD singlet pair energy             -0.200672560169
  CCSD triplet pair energy             -0.089708401635
  CCSD correlation energy              -0.290380961862

  Triples (T) contribution             -0.009710475694
  Total correlation energy             -0.300091437556

  CCSD total energy                   -76.351413238208
  CCSD[T] energy                      -76.361451693757
  CCSD-T energy                       -76.360964759947
 !CCSD(T) total energy                -76.361123713902

 Timing summary (sec):

 STEP                 CPU(USER)    SYS     CPU(TOT)    WALL
 Transformation        162.83      4.06    166.89    167.08
 CCSD iterations       853.90     21.57    875.47    876.45
 Triples               431.21      0.96    432.17    432.68

 Program statistics:

 Available memory in ccsd:              1999999921
 Min. memory needed in ccsd:               6768234
 Max. memory used in ccsd:                 7865440
 Max. memory used in cckext:               5182436 (16 integral passes)



 **********************************************************************************************************************************
 DATASETS  * FILE   NREC   LENGTH (MB)   RECORD NAMES
              1      19     1346.95       500      610      700      900      950      970     1000      129      960     1100   
                                          VAR    BASINP    GEOM    SYMINP    ZMAT    AOBASIS   BASIS     P2S    ABASIS      S 
                                         1400     1410     1200     1210     1080     1600     1650     1700     1380   
                                           T        V       H0       H01     AOSYM     SMH    MOLCAS    OPER     JKOP   

              2       6       17.39       700     1000      520     2100      200     2101   
                                         GEOM     BASIS   MCVARS     RHF    OPTIONS    RHF  

 PROGRAMS   *        TOTAL   CCSD(T)    HF-SCF       INT   CCSD(T)    HF-SCF       INT
 CPU TIMES  *      8065.85   1448.17    205.61      0.37   6008.89    204.70    197.88
 REAL TIME  *      8221.42 SEC
 DISK USED  *         3.24 GB (local),       77.12 GB (total)
 SF USED    *         3.08 GB
 GA USED    *         0.00 MB       (max)       0.00 MB       (current)
 **********************************************************************************************************************************

 Running procedure: SET_MONOMER2

 Dummy atoms: O19  H37  H38


 Recomputing one-electron integrals since nuclear charges changed


 PROGRAM * SEWARD (Integral evaluation for generally contracted gaussian basis sets)     Author: Roland Lindh, 1990

 Geometry written to block  1 of record 700


 Point group  C1  



 ATOMIC COORDINATES

 NR  ATOM    CHARGE       X              Y              Z

   1  O19     0.00  -12.424571324    5.951692429   -0.288750152
   2  H37     0.00  -14.111151890    6.508027800   -0.711859831
   3  H38     0.00  -12.410587350    5.867599617    1.622329878
   4  C1      6.00   -6.193010455    2.801518980    2.403542658
   5  H41     1.00   -4.656285171    1.699997622    3.119937832
   6  H42     1.00   -5.973046335    4.726205038    2.982932688
   7  H43     1.00   -7.940251230    2.077186956    3.118237078
   8  H44     1.00   -6.176569838    2.685300823    0.384937212

 Bond lengths in Bohr (Angstrom)

 1-2  1.825673808  1-3  1.912980406  4-5  2.021904040  4-6  2.022002335  4-7  2.021953343
     ( 0.966104974)     ( 1.012305636)     ( 1.069945541)     ( 1.069997556)     ( 1.069971630)

 4-8  2.022015060
     ( 1.070004290)

 Bond angles

  2-1-3  104.57658282   5-4-6  109.53398059   5-4-7  109.65604535   5-4-8  108.43490854

  6-4-7  109.49436728   6-4-8  109.86987750   7-4-8  109.83468330

 NUCLEAR CHARGE:                   10
 NUMBER OF PRIMITIVE AOS:         578
 NUMBER OF SYMMETRY AOS:          474
 NUMBER OF CONTRACTIONS:          436   (  436A   )
 NUMBER OF CORE ORBITALS:           1   (    1A   )
 NUMBER OF VALENCE ORBITALS:        8   (    8A   )

 MOLECULE CHANGED: INITIALIZING OCCUPATION AND DUMP RECORDS


 NUCLEAR REPULSION ENERGY   13.68681606

 Basis set:  JKFIT                   
 Basis size:   740
 Attributes:
 Sphericals:   T
 Basis set:  MP2FIT                  
 Basis size:   816
 Attributes:
 Sphericals:   T
 Basis set:  RI                      
 Basis size:   556
 Attributes:
 Sphericals:   T
 Basis set:  TDDFT                   
 Basis size:   816
 Attributes:
 Sphericals:   T

 Eigenvalues of metric

         1 0.149E-04 0.190E-04 0.365E-04 0.380E-04 0.631E-04 0.890E-04 0.923E-04 0.953E-04


 Contracted 2-electron integrals neglected if value below      1.0D-14

 OPERATOR DM      FOR CENTER  0  COORDINATES:    0.000000    0.000000    0.000000


 **********************************************************************************************************************************
 DATASETS  * FILE   NREC   LENGTH (MB)   RECORD NAMES
              1      18       37.06       500      610      700      900      950      970     1000      129      960     1100   
                                          VAR    BASINP    GEOM    SYMINP    ZMAT    AOBASIS   BASIS     P2S    ABASIS      S 
                                         1400     1410     1200     1210     1080     1600     1650     1700   
                                           T        V       H0       H01     AOSYM     SMH    MOLCAS    OPER   

              2       6       17.39       700     1000      520     2100      200     2101   
                                         GEOM     BASIS   MCVARS     RHF    OPTIONS    RHF  

 PROGRAMS   *        TOTAL       INT   CCSD(T)    HF-SCF       INT   CCSD(T)    HF-SCF       INT
 CPU TIMES  *      8066.25      0.39   1448.17    205.61      0.37   6008.89    204.70    197.88
 REAL TIME  *      8222.48 SEC
 DISK USED  *         3.24 GB (local),       77.12 GB (total)
 SF USED    *         3.08 GB
 GA USED    *         0.00 MB       (max)       0.00 MB       (current)
 **********************************************************************************************************************************


 PROGRAM * RHF-SCF (CLOSED SHELL)       Authors: W. Meyer, H.-J. Werner


 NUMBER OF ELECTRONS:       5+    5-    SPACE SYMMETRY=1    SPIN SYMMETRY: Singlet 
 CONVERGENCE THRESHOLDS:    1.00E-08 (Density)    1.00E-11 (Energy)
 MAX. NUMBER OF ITERATIONS:       60
 INTERPOLATION TYPE:            DIIS
 INTERPOLATION STEPS:              2 (START)      1 (STEP)
 LEVEL SHIFTS:                  0.00 (CLOSED)  0.00 (OPEN) 



 Orbital guess generated from atomic densities. Full valence occupancy:    9

 Molecular orbital dump at record        2102.2

 Initial occupancy:   5

 ITERATION    DDIFF          GRAD             ENERGY        2-EL.EN.            DIPOLE MOMENTS         DIIS   ORB.
    1      0.000D+00      0.000D+00       -40.19609625     53.506292    0.00411   -0.00276   -0.00131    0    start
    2      0.000D+00      0.257D-02       -40.21335041     52.217621    0.00128   -0.00088   -0.00039    1    diag
    3      0.159D-02      0.998D-03       -40.21562635     52.672081    0.00182   -0.00124   -0.00056    2    diag
    4      0.446D-03      0.249D-03       -40.21594581     52.617268    0.00162   -0.00110   -0.00049    3    diag
    5      0.165D-03      0.322D-04       -40.21595130     52.619416    0.00159   -0.00108   -0.00048    4    diag
    6      0.415D-04      0.264D-05       -40.21595134     52.619553    0.00159   -0.00108   -0.00048    5    diag
    7      0.571D-05      0.212D-06       -40.21595134     52.619514    0.00159   -0.00108   -0.00048    6    diag
    8      0.210D-06      0.170D-07       -40.21595134     52.619514    0.00159   -0.00108   -0.00048    7    diag
    9      0.834D-07      0.218D-08       -40.21595134     52.619514    0.00159   -0.00108   -0.00048    8    diag
   10      0.860D-08      0.595D-09       -40.21595134     52.619514    0.00159   -0.00108   -0.00048    0    orth

 Final occupancy:   5

 !RHF STATE  1.1 Energy               -40.215951338984
 Nuclear energy                        13.68681606
 One-electron energy                  -80.21252461
 Two-electron energy                   26.30975722
 Virial quotient                       -0.99838110
 !RHF STATE  1.1 Dipole moment          0.00158613    -0.00108168    -0.00047825
 Dipole moment /Debye                   0.00403128    -0.00274918    -0.00121551

 Orbital energies:

         1.1          2.1          3.1          4.1          5.1          6.1          7.1
    -11.196224    -0.950661    -0.551889    -0.549954    -0.547777     0.023705     0.035019


 HOMO      5.1    -0.547777 =     -14.9058eV
 LUMO      6.1     0.023705 =       0.6451eV
 LUMO-HOMO         0.571482 =      15.5508eV


 **********************************************************************************************************************************
 DATASETS  * FILE   NREC   LENGTH (MB)   RECORD NAMES
              1      18       37.06       500      610      700      900      950      970     1000      129      960     1100   
                                          VAR    BASINP    GEOM    SYMINP    ZMAT    AOBASIS   BASIS     P2S    ABASIS      S 
                                         1400     1410     1200     1210     1080     1600     1650     1700   
                                           T        V       H0       H01     AOSYM     SMH    MOLCAS    OPER   

              2       7       27.51       700     1000      520     2100      200     2101     2102   
                                         GEOM     BASIS   MCVARS     RHF    OPTIONS    RHF      RHF  

 PROGRAMS   *        TOTAL    HF-SCF       INT   CCSD(T)    HF-SCF       INT   CCSD(T)    HF-SCF       INT
 CPU TIMES  *      8240.22    173.97      0.39   1448.17    205.61      0.37   6008.89    204.70    197.88
 REAL TIME  *      8410.56 SEC
 DISK USED  *         3.24 GB (local),       77.12 GB (total)
 SF USED    *         3.08 GB
 GA USED    *         0.00 MB       (max)       0.00 MB       (current)
 **********************************************************************************************************************************

 Basis set:  JKFIT                   
 Basis size:   740
 Attributes:
 Sphericals:   T
 Basis set:  MP2FIT                  
 Basis size:   816
 Attributes:
 Sphericals:   T
 Basis set:  RI                      
 Basis size:   556
 Attributes:
 Sphericals:   T
 Basis set:  TDDFT                   
 Basis size:   816
 Attributes:
 Sphericals:   T

 PROGRAM * CCSD (Closed-shell coupled cluster)     Authors: C. Hampel, H.-J. Werner, 1991, M. Deegan, P.J. Knowles, 1992


 Convergence thresholds:  THRVAR = 1.00D-08  THRDEN = 1.00D-10

 CCSD(T)     terms to be evaluated (factor= 1.000)


 Number of core orbitals:           1 (   1 )
 Number of closed-shell orbitals:   4 (   4 )
 Number of external orbitals:     431 ( 431 )

 Molecular orbitals read from record     2102.2  Type=RHF/CANONICAL (state 1.1)

 Number of N-1 electron functions:               4
 Number of N-2 electron functions:              10
 Number of singly external CSFs:              1724
 Number of doubly external CSFs:           1486950
 Total number of CSFs:                     1488675

 Length of J-op  integral file:               0.00 MB
 Length of K-op  integral file:              13.08 MB
 Length of 3-ext integral record:             0.00 MB

 Memory could be reduced to 526.20 Mwords without degradation in triples

 Integral transformation finished. Total CPU: 161.62 sec, npass=  1  Memory used: 214.76 MW

 Reference energy:                    -40.21595134

 MP2 singlet pair energy:              -0.15442320
 MP2 triplet pair energy:              -0.05646240
 MP2 correlation energy:               -0.21088560
 MP2 total energy:                    -40.42683694

 SCS-MP2 correlation energy:           -0.22044000   (PS=  1.200000  PT=  0.333333)
 SCS-MP2 total energy:                -40.43639134

 ITER.      SQ.NORM     CORR.ENERGY   TOTAL ENERGY   ENERGY CHANGE        DEN1      VAR(S)    VAR(P)  DIIS     TIME  TIME/IT
   1      1.07097419    -0.22687358   -40.44282491    -0.01598798    -0.01040099  0.54D-03  0.97D-03  1  1   214.86    54.20
   2      1.07611941    -0.22797361   -40.44392495    -0.00110004    -0.00547175  0.14D-04  0.91D-04  2  2   267.66    54.19
   3      1.07764038    -0.22801285   -40.44396419    -0.00003924    -0.00107290  0.18D-05  0.58D-05  3  3   320.80    54.32
   4      1.07800006    -0.22801854   -40.44396988    -0.00000569    -0.00017104  0.12D-06  0.28D-06  4  4   373.89    54.36
   5      1.07804806    -0.22802043   -40.44397177    -0.00000189    -0.00001301  0.10D-07  0.20D-07  5  5   427.30    54.42
   6      1.07805629    -0.22801921   -40.44397054     0.00000123    -0.00000329  0.62D-09  0.14D-08  6  6   480.52    54.43
   7      1.07805731    -0.22801893   -40.44397026     0.00000028    -0.00000054  0.45D-10  0.11D-09  6  1   539.04    55.24
   8      1.07805725    -0.22801898   -40.44397032    -0.00000005     0.00000023  0.44D-11  0.59D-11  6  3   597.55    55.87
   9      1.07805737    -0.22801896   -40.44397030     0.00000002    -0.00000008  0.36D-12  0.49D-12  6  2   656.53    56.40
  10      1.07805738    -0.22801896   -40.44397030     0.00000000     0.00000000  0.44D-13  0.53D-13  6  4   714.92    56.77
  11      1.07805738    -0.22801896   -40.44397030     0.00000000     0.00000000  0.41D-14  0.54D-14  6  5   767.81    56.55
  12      1.07805738    -0.22801896   -40.44397030     0.00000000     0.00000000  0.91D-16  0.58D-15  6  6   828.83    57.05
  13      1.07805738    -0.22801896   -40.44397030    -0.00000000     0.00000000  0.70D-17  0.58D-16  6  1   881.69    56.83
  14      1.07805738    -0.22801896   -40.44397030    -0.00000000     0.00000000  0.10D-17  0.78D-17  6  3   934.17    56.62

 Norm of t1 vector:      0.03128142      S-energy:    -0.00000000      T1 diagnostic:  0.00782035
                                                                       D1 diagnostic:  0.01257105

 Total CPU time for triples:    438.71 sec


 RESULTS
 =======

  Reference energy                    -40.215951338983
  CCSD singlet pair energy             -0.173324677379
  CCSD triplet pair energy             -0.054694279797
  CCSD correlation energy              -0.228018957181

  Triples (T) contribution             -0.006881578429
  Total correlation energy             -0.234900535610

  CCSD total energy                   -40.443970296164
  CCSD[T] energy                      -40.451065020521
  CCSD-T energy                       -40.450784266472
 !CCSD(T) total energy                -40.450851874593

 Timing summary (sec):

 STEP                 CPU(USER)    SYS     CPU(TOT)    WALL
 Transformation        162.00      3.97    165.97    166.16
 CCSD iterations       772.26     19.57    791.83    792.79
 Triples               438.71      1.13    439.84    440.37

 Program statistics:

 Available memory in ccsd:              1999999916
 Min. memory needed in ccsd:               6768234
 Max. memory used in ccsd:                 7865440
 Max. memory used in cckext:               5182436 (14 integral passes)



 **********************************************************************************************************************************
 DATASETS  * FILE   NREC   LENGTH (MB)   RECORD NAMES
              1      19     1346.95       500      610      700      900      950      970     1000      129      960     1100   
                                          VAR    BASINP    GEOM    SYMINP    ZMAT    AOBASIS   BASIS     P2S    ABASIS      S 
                                         1400     1410     1200     1210     1080     1600     1650     1700     1380   
                                           T        V       H0       H01     AOSYM     SMH    MOLCAS    OPER     JKOP   

              2       7       27.51       700     1000      520     2100      200     2101     2102   
                                         GEOM     BASIS   MCVARS     RHF    OPTIONS    RHF      RHF  

 PROGRAMS   *        TOTAL   CCSD(T)    HF-SCF       INT   CCSD(T)    HF-SCF       INT   CCSD(T)    HF-SCF       INT
 CPU TIMES  *      9613.40   1373.17    173.97      0.39   1448.17    205.61      0.37   6008.89    204.70    197.88
 REAL TIME  *      9810.79 SEC
 DISK USED  *         3.24 GB (local),       77.12 GB (total)
 SF USED    *         3.08 GB
 GA USED    *         0.00 MB       (max)       0.00 MB       (current)
 **********************************************************************************************************************************
 Molecular orbitals read from record     2102.2  Type=RHF/CANONICAL (state 1.1)
 Occupation numbers read from record     2102.2  Type=RHF/RHF (state 1.1)
 Orbital energies read from record       2102.2  Type=RHF/CANONICAL (state 1.1)
 Redundancy group numbers read from rec  2102.2  Type=RHF/RHF (state 1.1)

 CCSD(T)/aug-cc-pVQZ energy=    -40.450851874593

         CCSD(T)          HF-SCF         CCSD(T)          HF-SCF         CCSD(T)          HF-SCF
    -40.45085187    -40.21595134    -76.36112371    -76.06103228   -116.81240238   -116.27687859
 **********************************************************************************************************************************
 Molpro calculation terminated
