
 Primary working directories    : /scratch/klimes/383123/molpro.wIcjK6TjSt
 Secondary working directories  : /scratch/klimes/383123/molpro.wIcjK6TjSt
 Wavefunction directory         : /scratch/klimes/383123/
 Main file repository           : /scratch/klimes/383123/molpro.wIcjK6TjSt/

 id        : karlovklimes

 Nodes                      nprocs
 nc-05.cc.karlov.mff.cuni.cz    4

 Using customized tuning parameters: mindgm=1; mindgv=20; mindgc=4; mindgr=1; noblas=0; minvec=7
 default implementation of scratch files=sf  


 Variables initialized (930), CPU time= 0.01 sec
                                                                                 !gdirect
 memory,2000,m
 gthresh,orbital=1d-10,energy=1d-10,grid=1d-8
 
 symmetry,nosym
 angstrom
 geometry={
 O20        -6.561800000000      3.004400000000      2.437800000000
 H39        -6.427800000000      2.081100000000      2.759600000000
 H40        -5.876000000000      3.542400000000      2.882400000000
 C1        -3.277200000000      1.482500000000      1.271900000000
 H41        -2.464000000000      0.899600000000      1.651000000000
 H42        -3.160800000000      2.501000000000      1.578500000000
 H43        -4.201800000000      1.099200000000      1.650100000000
 H44        -3.268500000000      1.421000000000      0.203700000000
 }
 
 nkerna=1
 nkernb=1
 
 gf=0
 sing=1
 thrdum=1d-4
 gridthr=1d-8
 
 basis={
 set,orbital
 default,avqz
 set,jkfit
 default,avqz/jkfit
 set,mp2fit
 default,avqz/mp2fit
 set,ri
 default,avqz/optri
 set,tddft
 default,avqz/mp2fit
 }
 
 proc set_monomer1
 dummy,4,5,6,7,8
 endproc
 
 proc set_monomer2
 dummy,1,2,3
 endproc
 
                                                                                 !1234 energy
 {hf,accu=1.d-16}
 ccsd(t)
 
 set_monomer1
 {hf,accu=1.d-16}
 ccsd(t)
 
 set_monomer2
 {hf,accu=1.d-16}
 ccsd(t)
 
 Commands  initialized (760), CPU time= 0.02 sec, 617 directives.
 Default parameters read. Elapsed time= 0.20 sec

 Checking input...
 Passed
1


                                         ***  PROGRAM SYSTEM MOLPRO  ***
                                       Copyright, TTI GmbH Stuttgart, 2015
                                    Version 2019.1 linked Jan 14 2019 13:09:19


 **********************************************************************************************************************************
 LABEL *                                                                                 
  64 bit mpp version                                                                     DATE: 11-Mar-20          TIME: 16:01:41  
 **********************************************************************************************************************************

 SHA1:             d688ac825633d238f2093ded1675ba87ccd55965
 **********************************************************************************************************************************

 THRESHOLDS:

 ZERO    =  1.00D-12  ONEINT  =  1.00D-12  TWOINT  =  1.00D-11  PREFAC  =  1.00D-14  XXXXXX  =  1.00D-09  EORDER  =  1.00D-04
 ENERGY  =  1.00D-10  ETEST   =  0.00D+00  EDENS   =  0.00D+00  THRDEDEF=  1.00D-06  GRADIENT=  1.00D-02  STEP    =  1.00D-03
 ORBITAL =  1.00D-10  CIVEC   =  1.00D-05  COEFF   =  1.00D-04  PRINTCI =  5.00D-02  PUNCHCI =  9.90D+01  OPTGRAD =  3.00D-04
 OPTENERG=  1.00D-06  OPTSTEP =  3.00D-04  THRGRAD =  1.00D-10  COMPRESS=  1.00D-11  VARMIN  =  1.00D-07  VARMAX  =  1.00D-03
 THRDOUB =  0.00D+00  THRDIV  =  1.00D-05  THRRED  =  1.00D-07  THRPSP  =  1.00D+00  THRDC   =  1.00D-10  THRCS   =  1.00D-10
 THRNRM  =  1.00D-08  THREQ   =  0.00D+00  THRDE   =  1.00D+00  THRREF  =  1.00D-05  SPARFAC =  1.00D+00  THRDLP  =  1.00D-07
 THRDIA  =  1.00D-10  THRDLS  =  1.00D-07  THRGPS  =  0.00D+00  THRKEX  =  0.00D+00  THRDIS  =  2.00D-01  THRVAR  =  1.00D-10
 THRLOC  =  1.00D-06  THRGAP  =  1.00D-06  THRLOCT = -1.00D+00  THRGAPT = -1.00D+00  THRORB  =  1.00D-06  THRMLTP =  0.00D+00
 THRCPQCI=  1.00D-10  KEXTA   =  0.00D+00  THRCOARS=  0.00D+00  SYMTOL  =  1.00D-06  GRADTOL =  1.00D-06  THROVL  =  1.00D-08
 THRORTH =  1.00D-08  GRID    =  1.00D-08  GRIDMAX =  1.00D-03  DTMAX   =  0.00D+00  THROCCDE=  1.00D-01  THROCCDE=  1.00D-01
 THRPRINT=  2.50D-01


 Variable memory set to 2000000000 words,  buffer space 

 ZSYMEL=NOSYM
 ZUNIT=ANG


Geometry recognized as XYZ

 SETTING NKERNA         =         1.00000000                                  
 SETTING NKERNB         =         1.00000000                                  
 SETTING GF             =     0.00000000D+00                                  
 SETTING SING           =         1.00000000                                  
 SETTING THRDUM         =     1.00000000D-04                                  
 SETTING GRIDTHR        =     1.00000000D-08                                  
 SETTING BASIS          =    AVQZ


 Recomputing integrals since basis changed


 Using spherical harmonics

 Library entry O      S aug-cc-pVQZ          selected for orbital group  1
 Library entry O      P aug-cc-pVQZ          selected for orbital group  1
 Library entry O      D aug-cc-pVQZ          selected for orbital group  1
 Library entry O      F aug-cc-pVQZ          selected for orbital group  1
 Library entry O      G aug-cc-pVQZ          selected for orbital group  1
 Library entry H      S aug-cc-pVQZ          selected for orbital group  2
 Library entry H      P aug-cc-pVQZ          selected for orbital group  2
 Library entry H      D aug-cc-pVQZ          selected for orbital group  2
 Library entry H      F aug-cc-pVQZ          selected for orbital group  2
 Library entry C      S aug-cc-pVQZ          selected for orbital group  3
 Library entry C      P aug-cc-pVQZ          selected for orbital group  3
 Library entry C      D aug-cc-pVQZ          selected for orbital group  3
 Library entry C      F aug-cc-pVQZ          selected for orbital group  3
 Library entry C      G aug-cc-pVQZ          selected for orbital group  3


 PROGRAM * SEWARD (Integral evaluation for generally contracted gaussian basis sets)     Author: Roland Lindh, 1990

 Geometry written to block  1 of record 700


 Point group  C1  



 ATOMIC COORDINATES

 NR  ATOM    CHARGE       X              Y              Z

   1  O20     8.00  -12.400004884    5.677493169    4.606774346
   2  H39     1.00  -12.146781583    3.932709038    5.214888213
   3  H40     1.00  -11.104030708    6.694165824    5.446946581
   4  C1      6.00   -6.193010455    2.801518980    2.403542658
   5  H41     1.00   -4.656285171    1.699997622    3.119937832
   6  H42     1.00   -5.973046335    4.726205038    2.982932688
   7  H43     1.00   -7.940251230    2.077186956    3.118237078
   8  H44     1.00   -6.176569838    2.685300823    0.384937212

 Bond lengths in Bohr (Angstrom)

 1-2  1.864992273  1-3  1.849070506  4-5  2.021904040  4-6  2.022002335  4-7  2.021953343
     ( 0.986911409)     ( 0.978485973)     ( 1.069945541)     ( 1.069997556)     ( 1.069971630)

 4-8  2.022015060
     ( 1.070004290)

 Bond angles

  2-1-3  105.72790617   5-4-6  109.53398059   5-4-7  109.65604535   5-4-8  108.43490854

  6-4-7  109.49436728   6-4-8  109.86987750   7-4-8  109.83468330

 NUCLEAR CHARGE:                   20
 NUMBER OF PRIMITIVE AOS:         578
 NUMBER OF SYMMETRY AOS:          474
 NUMBER OF CONTRACTIONS:          436   (  436A   )
 NUMBER OF CORE ORBITALS:           2   (    2A   )
 NUMBER OF VALENCE ORBITALS:       14   (   14A   )


 NUCLEAR REPULSION ENERGY   36.69183171


 Basis set:  JKFIT                   
 Basis size:   740
 Attributes:
 Sphericals:   T
 Basis set:  MP2FIT                  
 Basis size:   816
 Attributes:
 Sphericals:   T
 Basis set:  RI                      
 Basis size:   556
 Attributes:
 Sphericals:   T
 Basis set:  TDDFT                   
 Basis size:   816
 Attributes:
 Sphericals:   T

 **********************************************************************************************************************************


 Eigenvalues of metric

         1 0.158E-04 0.271E-04 0.337E-04 0.353E-04 0.659E-04 0.911E-04 0.963E-04 0.106E-03


 Contracted 2-electron integrals neglected if value below      1.0D-14
 AO integral compression algorithm  1   Integral accuracy      1.0D-14

     24040.440 MB (compressed) written to integral file ( 60.0%)

     Node minimum: 5673.583 MB, node maximum: 6379.274 MB


 NUMBER OF SORTED TWO-ELECTRON INTEGRALS: 1134451344.     BUFFER LENGTH:  32768
 NUMBER OF SEGMENTS:  36  SEGMENT LENGTH:   31999984      RECORD LENGTH: 524288

 Memory used in sort:      32.56 MW

 SORT1 READ  5012305700. AND WROTE   987306262. INTEGRALS IN   2841 RECORDS. CPU TIME:    96.61 SEC, REAL TIME:   112.33 SEC
 SORT2 READ  3948989475. AND WROTE  4537853011. INTEGRALS IN  97340 RECORDS. CPU TIME:    21.17 SEC, REAL TIME:    29.56 SEC

 Node minimum:  1134427528.  Node maximum:  1134498978. integrals

 OPERATOR DM      FOR CENTER  0  COORDINATES:    0.000000    0.000000    0.000000


 **********************************************************************************************************************************
 DATASETS  * FILE   NREC   LENGTH (MB)   RECORD NAMES
              1      18       37.06       500      610      700      900      950      970     1000      129      960     1100   
                                          VAR    BASINP    GEOM    SYMINP    ZMAT    AOBASIS   BASIS     P2S    ABASIS      S 
                                         1400     1410     1200     1210     1080     1600     1650     1700   
                                           T        V       H0       H01     AOSYM     SMH    MOLCAS    OPER   

 PROGRAMS   *        TOTAL       INT
 CPU TIMES  *       184.75    184.53
 REAL TIME  *       221.05 SEC
 DISK USED  *        37.58 MB (local),       71.28 GB (total)
 GA USED    *         0.00 MB       (max)       0.00 MB       (current)
 **********************************************************************************************************************************


 PROGRAM * RHF-SCF (CLOSED SHELL)       Authors: W. Meyer, H.-J. Werner


 NUMBER OF ELECTRONS:      10+   10-    SPACE SYMMETRY=1    SPIN SYMMETRY: Singlet 
 CONVERGENCE THRESHOLDS:    1.00E-08 (Density)    1.00E-11 (Energy)
 MAX. NUMBER OF ITERATIONS:       60
 INTERPOLATION TYPE:            DIIS
 INTERPOLATION STEPS:              2 (START)      1 (STEP)
 LEVEL SHIFTS:                  0.00 (CLOSED)  0.00 (OPEN) 



 Orbital guess generated from atomic densities. Full valence occupancy:   16

 Molecular orbital dump at record        2100.2

 Initial occupancy:  10

 ITERATION    DDIFF          GRAD             ENERGY        2-EL.EN.            DIPOLE MOMENTS         DIIS   ORB.
    1      0.000D+00      0.000D+00      -116.21958934    158.815108    0.79897   -0.37770    0.73996    0    start
    2      0.000D+00      0.379D-02      -116.26380746    153.968704    0.47202   -0.21001    0.38280    1    diag
    3      0.272D-02      0.223D-02      -116.27747988    156.001832    0.55486   -0.25178    0.47549    2    diag
    4      0.949D-03      0.333D-03      -116.27814841    155.889579    0.54665   -0.24781    0.46946    3    diag
    5      0.204D-03      0.976D-04      -116.27821853    155.884082    0.54648   -0.24770    0.46890    4    diag
    6      0.819D-04      0.237D-04      -116.27822244    155.889817    0.54595   -0.24752    0.46835    5    diag
    7      0.220D-04      0.474D-05      -116.27822267    155.888133    0.54596   -0.24754    0.46837    6    diag
    8      0.640D-05      0.121D-05      -116.27822269    155.888310    0.54591   -0.24752    0.46831    7    diag
    9      0.141D-05      0.284D-06      -116.27822269    155.888282    0.54590   -0.24752    0.46830    8    diag
   10      0.411D-06      0.343D-07      -116.27822269    155.888284    0.54590   -0.24751    0.46830    9    orth
   11      0.437D-07      0.864D-08      -116.27822269    155.888285    0.54590   -0.24751    0.46830    9    diag
   12      0.940D-08      0.241D-08      -116.27822269    155.888285    0.54590   -0.24751    0.46830    0    orth

 Final occupancy:  10

 !RHF STATE  1.1 Energy              -116.278222692640
 Nuclear energy                        36.69183171
 One-electron energy                 -230.91419693
 Two-electron energy                   77.94414252
 Virial quotient                       -1.00083999
 !RHF STATE  1.1 Dipole moment          0.54589725    -0.24751478     0.46829514
 Dipole moment /Debye                   1.38744153    -0.62907863     1.19020957

 Orbital energies:

         1.1          2.1          3.1          4.1          5.1          6.1          7.1          8.1          9.1         10.1
    -20.567600   -11.200260    -1.338603    -0.954580    -0.705709    -0.577851    -0.556118    -0.554320    -0.551210    -0.506704

        11.1         12.1
      0.023591     0.038554


 HOMO     10.1    -0.506704 =     -13.7881eV
 LUMO     11.1     0.023591 =       0.6419eV
 LUMO-HOMO         0.530295 =      14.4301eV


 **********************************************************************************************************************************
 DATASETS  * FILE   NREC   LENGTH (MB)   RECORD NAMES
              1      18       37.06       500      610      700      900      950      970     1000      129      960     1100   
                                          VAR    BASINP    GEOM    SYMINP    ZMAT    AOBASIS   BASIS     P2S    ABASIS      S 
                                         1400     1410     1200     1210     1080     1600     1650     1700   
                                           T        V       H0       H01     AOSYM     SMH    MOLCAS    OPER   

              2       4        6.75       700     1000      520     2100   
                                         GEOM     BASIS   MCVARS     RHF  

 PROGRAMS   *        TOTAL    HF-SCF       INT
 CPU TIMES  *       427.39    242.64    184.53
 REAL TIME  *       484.42 SEC
 DISK USED  *        57.63 MB (local),       71.36 GB (total)
 SF USED    *         0.76 MB
 GA USED    *         0.00 MB       (max)       0.00 MB       (current)
 **********************************************************************************************************************************

 Basis set:  JKFIT                   
 Basis size:   740
 Attributes:
 Sphericals:   T
 Basis set:  MP2FIT                  
 Basis size:   816
 Attributes:
 Sphericals:   T
 Basis set:  RI                      
 Basis size:   556
 Attributes:
 Sphericals:   T
 Basis set:  TDDFT                   
 Basis size:   816
 Attributes:
 Sphericals:   T

 PROGRAM * CCSD (Closed-shell coupled cluster)     Authors: C. Hampel, H.-J. Werner, 1991, M. Deegan, P.J. Knowles, 1992


 Convergence thresholds:  THRVAR = 1.00D-08  THRDEN = 1.00D-10

 CCSD(T)     terms to be evaluated (factor= 1.000)


 Number of core orbitals:           2 (   2 )
 Number of closed-shell orbitals:   8 (   8 )
 Number of external orbitals:     426 ( 426 )

 Molecular orbitals read from record     2100.2  Type=RHF/CANONICAL (state 1.1)

 Number of N-1 electron functions:               8
 Number of N-2 electron functions:              36
 Number of singly external CSFs:              3408
 Number of doubly external CSFs:           5808936
 Total number of CSFs:                     5812345

 Length of J-op  integral file:               0.00 MB
 Length of K-op  integral file:              13.08 MB
 Length of 3-ext integral record:             0.00 MB

 Memory could be reduced to 828.85 Mwords without degradation in triples

 Integral transformation finished. Total CPU: 300.71 sec, npass=  1  Memory used: 389.48 MW

 Reference energy:                   -116.27822269

 MP2 singlet pair energy:              -0.34102567
 MP2 triplet pair energy:              -0.15849598
 MP2 correlation energy:               -0.49952165
 MP2 total energy:                   -116.77774434

 SCS-MP2 correlation energy:           -0.50785052   (PS=  1.200000  PT=  0.333333)
 SCS-MP2 total energy:               -116.78607321

 ITER.      SQ.NORM     CORR.ENERGY   TOTAL ENERGY   ENERGY CHANGE        DEN1      VAR(S)    VAR(P)  DIIS     TIME  TIME/IT
   1      1.13593593    -0.51721991  -116.79544260    -0.01769826    -0.00618553  0.14D-02  0.20D-02  1  1   461.98   161.58
   2      1.14457131    -0.51857713  -116.79679982    -0.00135722    -0.01025515  0.27D-04  0.25D-03  2  2   623.34   162.44
   3      1.14780472    -0.51869997  -116.79692266    -0.00012283    -0.00226311  0.12D-04  0.13D-04  3  3   784.39   162.61
   4      1.14867082    -0.51870230  -116.79692499    -0.00000233    -0.00041148  0.59D-06  0.12D-05  4  4   946.39   162.92
   5      1.14883018    -0.51870203  -116.79692472     0.00000027    -0.00004694  0.21D-06  0.87D-07  5  5  1108.05   163.08
   6      1.14887933    -0.51869831  -116.79692100     0.00000373    -0.00001185  0.20D-07  0.67D-08  6  6  1269.74   163.14
   7      1.14888876    -0.51869731  -116.79692000     0.00000099    -0.00000153  0.19D-08  0.10D-08  6  2  1431.82   163.28
   8      1.14889084    -0.51869716  -116.79691985     0.00000015    -0.00000006  0.38D-09  0.12D-09  6  1  1593.23   163.28
   9      1.14889175    -0.51869711  -116.79691980     0.00000005     0.00000003  0.31D-10  0.15D-10  6  3  1754.25   163.27
  10      1.14889192    -0.51869710  -116.79691980     0.00000001     0.00000006  0.34D-11  0.23D-11  6  4  1915.39   163.25
  11      1.14889188    -0.51869711  -116.79691980    -0.00000001     0.00000007  0.64D-12  0.31D-12  6  5  2077.18   163.29
  12      1.14889186    -0.51869711  -116.79691981    -0.00000000     0.00000002  0.12D-12  0.40D-13  6  6  2238.31   163.30
  13      1.14889184    -0.51869711  -116.79691981    -0.00000000     0.00000001  0.21D-13  0.66D-14  6  2  2399.56   163.28
  14      1.14889183    -0.51869711  -116.79691981    -0.00000000     0.00000000  0.28D-14  0.13D-14  6  1  2560.41   163.26
  15      1.14889183    -0.51869711  -116.79691981    -0.00000000     0.00000000  0.29D-15  0.19D-15  6  3  2721.07   163.21
  16      1.14889183    -0.51869711  -116.79691981    -0.00000000    -0.00000000  0.44D-16  0.26D-16  6  4  2882.10   163.21
  17      1.14889183    -0.51869711  -116.79691981     0.00000000    -0.00000000  0.75D-17  0.36D-17  6  5  3042.30   163.16

 Norm of t1 vector:      0.05047960      S-energy:    -0.00000000      T1 diagnostic:  0.00892362
                                                                       D1 diagnostic:  0.02080026

   CPU time for triples:   2032.67 sec for i =  1 -  7 /  8 (~  68.8 % done)
   CPU time for triples:    828.58 sec for i =  8 -  8 /  8 (  100.0 % done)

 Total CPU time for triples:   2864.42 sec


 RESULTS
 =======

  Reference energy                   -116.278222692642
  CCSD singlet pair energy             -0.373716190344
  CCSD triplet pair energy             -0.144980924264
  CCSD correlation energy              -0.518697114982

  Triples (T) contribution             -0.016669204505
  Total correlation energy             -0.535366319487

  CCSD total energy                  -116.796919807624
  CCSD[T] energy                     -116.814128678498
  CCSD-T energy                      -116.813362483751
 !CCSD(T) total energy               -116.813589012129

 Timing summary (sec):

 STEP                 CPU(USER)    SYS     CPU(TOT)    WALL
 Transformation        301.90      5.81    307.71    308.80
 CCSD iterations      2740.51     29.27   2769.78   2773.90
 Triples              2864.42      6.23   2870.65   2875.01

 Program statistics:

 Available memory in ccsd:              1999999734
 Min. memory needed in ccsd:              17010489
 Max. memory used in ccsd:                22038113
 Max. memory used in cckext:              15155228 (17 integral passes)



 **********************************************************************************************************************************
 DATASETS  * FILE   NREC   LENGTH (MB)   RECORD NAMES
              1      19     2602.11       500      610      700      900      950      970     1000      129      960     1100   
                                          VAR    BASINP    GEOM    SYMINP    ZMAT    AOBASIS   BASIS     P2S    ABASIS      S 
                                         1400     1410     1200     1210     1080     1600     1650     1700     1380   
                                           T        V       H0       H01     AOSYM     SMH    MOLCAS    OPER     JKOP   

              2       4        6.75       700     1000      520     2100   
                                         GEOM     BASIS   MCVARS     RHF  

 PROGRAMS   *        TOTAL   CCSD(T)    HF-SCF       INT
 CPU TIMES  *      6334.45   5907.06    242.64    184.53
 REAL TIME  *      6443.23 SEC
 DISK USED  *         3.24 GB (local),       82.20 GB (total)
 SF USED    *         3.08 GB
 GA USED    *         0.00 MB       (max)       0.00 MB       (current)
 **********************************************************************************************************************************

 Running procedure: SET_MONOMER1

 Dummy atoms: C1  H41  H42  H43  H44


 Recomputing one-electron integrals since nuclear charges changed


 PROGRAM * SEWARD (Integral evaluation for generally contracted gaussian basis sets)     Author: Roland Lindh, 1990

 Geometry written to block  1 of record 700


 Point group  C1  



 ATOMIC COORDINATES

 NR  ATOM    CHARGE       X              Y              Z

   1  O20     8.00  -12.400004884    5.677493169    4.606774346
   2  H39     1.00  -12.146781583    3.932709038    5.214888213
   3  H40     1.00  -11.104030708    6.694165824    5.446946581
   4  C1      0.00   -6.193010455    2.801518980    2.403542658
   5  H41     0.00   -4.656285171    1.699997622    3.119937832
   6  H42     0.00   -5.973046335    4.726205038    2.982932688
   7  H43     0.00   -7.940251230    2.077186956    3.118237078
   8  H44     0.00   -6.176569838    2.685300823    0.384937212

 Bond lengths in Bohr (Angstrom)

 1-2  1.864992273  1-3  1.849070506  4-5  2.021904040  4-6  2.022002335  4-7  2.021953343
     ( 0.986911409)     ( 0.978485973)     ( 1.069945541)     ( 1.069997556)     ( 1.069971630)

 4-8  2.022015060
     ( 1.070004290)

 Bond angles

  2-1-3  105.72790617   5-4-6  109.53398059   5-4-7  109.65604535   5-4-8  108.43490854

  6-4-7  109.49436728   6-4-8  109.86987750   7-4-8  109.83468330

 NUCLEAR CHARGE:                   10
 NUMBER OF PRIMITIVE AOS:         578
 NUMBER OF SYMMETRY AOS:          474
 NUMBER OF CONTRACTIONS:          436   (  436A   )
 NUMBER OF CORE ORBITALS:           1   (    1A   )
 NUMBER OF VALENCE ORBITALS:        6   (    6A   )

 MOLECULE CHANGED: INITIALIZING OCCUPATION AND DUMP RECORDS


 NUCLEAR REPULSION ENERGY    8.95379726

 Basis set:  JKFIT                   
 Basis size:   740
 Attributes:
 Sphericals:   T
 Basis set:  MP2FIT                  
 Basis size:   816
 Attributes:
 Sphericals:   T
 Basis set:  RI                      
 Basis size:   556
 Attributes:
 Sphericals:   T
 Basis set:  TDDFT                   
 Basis size:   816
 Attributes:
 Sphericals:   T

 Eigenvalues of metric

         1 0.158E-04 0.271E-04 0.337E-04 0.353E-04 0.659E-04 0.911E-04 0.963E-04 0.106E-03


 Contracted 2-electron integrals neglected if value below      1.0D-14

 OPERATOR DM      FOR CENTER  0  COORDINATES:    0.000000    0.000000    0.000000


 **********************************************************************************************************************************
 DATASETS  * FILE   NREC   LENGTH (MB)   RECORD NAMES
              1      18       37.06       500      610      700      900      950      970     1000      129      960     1100   
                                          VAR    BASINP    GEOM    SYMINP    ZMAT    AOBASIS   BASIS     P2S    ABASIS      S 
                                         1400     1410     1200     1210     1080     1600     1650     1700   
                                           T        V       H0       H01     AOSYM     SMH    MOLCAS    OPER   

              2       5       10.59       700     1000      520     2100      200   
                                         GEOM     BASIS   MCVARS     RHF    OPTIONS    

 PROGRAMS   *        TOTAL       INT   CCSD(T)    HF-SCF       INT
 CPU TIMES  *      6334.82      0.36   5907.06    242.64    184.53
 REAL TIME  *      6444.44 SEC
 DISK USED  *         3.24 GB (local),       82.21 GB (total)
 SF USED    *         3.08 GB
 GA USED    *         0.00 MB       (max)       0.00 MB       (current)
 **********************************************************************************************************************************


 PROGRAM * RHF-SCF (CLOSED SHELL)       Authors: W. Meyer, H.-J. Werner


 NUMBER OF ELECTRONS:       5+    5-    SPACE SYMMETRY=1    SPIN SYMMETRY: Singlet 
 CONVERGENCE THRESHOLDS:    1.00E-08 (Density)    1.00E-11 (Energy)
 MAX. NUMBER OF ITERATIONS:       60
 INTERPOLATION TYPE:            DIIS
 INTERPOLATION STEPS:              2 (START)      1 (STEP)
 LEVEL SHIFTS:                  0.00 (CLOSED)  0.00 (OPEN) 



 Orbital guess generated from atomic densities. Full valence occupancy:    7

 Molecular orbital dump at record        2101.2

 Initial occupancy:   5

 ITERATION    DDIFF          GRAD             ENERGY        2-EL.EN.            DIPOLE MOMENTS         DIIS   ORB.
    1      0.000D+00      0.000D+00       -76.02435678     77.350125    0.79416   -0.37640    0.74315    0    start
    2      0.000D+00      0.467D-02       -76.05108072     73.680799    0.46049   -0.21541    0.43027    1    diag
    3      0.221D-02      0.299D-02       -76.06275492     75.311929    0.54382   -0.25501    0.50827    2    diag
    4      0.844D-03      0.279D-03       -76.06295153     75.220440    0.54048   -0.25286    0.50502    3    diag
    5      0.105D-03      0.786D-04       -76.06297304     75.234839    0.53924   -0.25203    0.50380    4    diag
    6      0.333D-04      0.157D-04       -76.06297446     75.233777    0.53896   -0.25182    0.50353    5    diag
    7      0.864D-05      0.320D-05       -76.06297453     75.233926    0.53887   -0.25176    0.50343    6    diag
    8      0.246D-05      0.602D-06       -76.06297453     75.233910    0.53884   -0.25174    0.50341    7    diag
    9      0.445D-06      0.821D-07       -76.06297453     75.233902    0.53884   -0.25174    0.50340    8    diag
   10      0.498D-07      0.188D-07       -76.06297453     75.233905    0.53884   -0.25174    0.50340    9    orth
   11      0.130D-07      0.322D-08       -76.06297453     75.233904    0.53884   -0.25174    0.50340    9    diag
   12      0.246D-08      0.552D-09       -76.06297453     75.233904    0.53884   -0.25174    0.50340    0    orth

 Final occupancy:   5

 !RHF STATE  1.1 Energy               -76.062974531658
 Nuclear energy                         8.95379726
 One-electron energy                 -122.63372395
 Two-electron energy                   37.61695216
 Virial quotient                       -1.00220545
 !RHF STATE  1.1 Dipole moment          0.53883529    -0.25173675     0.50340370
 Dipole moment /Debye                   1.36949299    -0.63980908     1.27944079

 Orbital energies:

         1.1          2.1          3.1          4.1          5.1          6.1          7.1
    -20.568547    -1.339268    -0.706277    -0.577740    -0.508078     0.017733     0.036657


 HOMO      5.1    -0.508078 =     -13.8255eV
 LUMO      6.1     0.017733 =       0.4825eV
 LUMO-HOMO         0.525811 =      14.3081eV


 **********************************************************************************************************************************
 DATASETS  * FILE   NREC   LENGTH (MB)   RECORD NAMES
              1      18       37.06       500      610      700      900      950      970     1000      129      960     1100   
                                          VAR    BASINP    GEOM    SYMINP    ZMAT    AOBASIS   BASIS     P2S    ABASIS      S 
                                         1400     1410     1200     1210     1080     1600     1650     1700   
                                           T        V       H0       H01     AOSYM     SMH    MOLCAS    OPER   

              2       6       17.39       700     1000      520     2100      200     2101   
                                         GEOM     BASIS   MCVARS     RHF    OPTIONS    RHF  

 PROGRAMS   *        TOTAL    HF-SCF       INT   CCSD(T)    HF-SCF       INT
 CPU TIMES  *      6559.57    224.75      0.36   5907.06    242.64    184.53
 REAL TIME  *      6687.16 SEC
 DISK USED  *         3.24 GB (local),       82.21 GB (total)
 SF USED    *         3.08 GB
 GA USED    *         0.00 MB       (max)       0.00 MB       (current)
 **********************************************************************************************************************************

 Basis set:  JKFIT                   
 Basis size:   740
 Attributes:
 Sphericals:   T
 Basis set:  MP2FIT                  
 Basis size:   816
 Attributes:
 Sphericals:   T
 Basis set:  RI                      
 Basis size:   556
 Attributes:
 Sphericals:   T
 Basis set:  TDDFT                   
 Basis size:   816
 Attributes:
 Sphericals:   T

 PROGRAM * CCSD (Closed-shell coupled cluster)     Authors: C. Hampel, H.-J. Werner, 1991, M. Deegan, P.J. Knowles, 1992


 Convergence thresholds:  THRVAR = 1.00D-08  THRDEN = 1.00D-10

 CCSD(T)     terms to be evaluated (factor= 1.000)


 Number of core orbitals:           1 (   1 )
 Number of closed-shell orbitals:   4 (   4 )
 Number of external orbitals:     431 ( 431 )

 Molecular orbitals read from record     2101.2  Type=RHF/CANONICAL (state 1.1)

 Number of N-1 electron functions:               4
 Number of N-2 electron functions:              10
 Number of singly external CSFs:              1724
 Number of doubly external CSFs:           1486950
 Total number of CSFs:                     1488675

 Length of J-op  integral file:               0.00 MB
 Length of K-op  integral file:              13.08 MB
 Length of 3-ext integral record:             0.00 MB

 Memory could be reduced to 526.20 Mwords without degradation in triples

 Integral transformation finished. Total CPU: 162.46 sec, npass=  1  Memory used: 214.76 MW

 Reference energy:                    -76.06297453

 MP2 singlet pair energy:              -0.18637344
 MP2 triplet pair energy:              -0.10146697
 MP2 correlation energy:               -0.28784042
 MP2 total energy:                    -76.35081495

 SCS-MP2 correlation energy:           -0.28678314   (PS=  1.200000  PT=  0.333333)
 SCS-MP2 total energy:                -76.34975767

 ITER.      SQ.NORM     CORR.ENERGY   TOTAL ENERGY   ENERGY CHANGE        DEN1      VAR(S)    VAR(P)  DIIS     TIME  TIME/IT
   1      1.06465083    -0.28955600   -76.35253053    -0.00171559     0.00419015  0.85D-03  0.11D-02  1  1   212.10    50.46
   2      1.06833305    -0.28981331   -76.35278784    -0.00025731    -0.00494510  0.14D-04  0.12D-03  2  2   262.03    50.91
   3      1.06980796    -0.28989424   -76.35286877    -0.00008093    -0.00102791  0.89D-05  0.64D-05  3  3   311.65    50.97
   4      1.07028619    -0.28989366   -76.35286819     0.00000058    -0.00022274  0.49D-06  0.77D-06  4  4   361.24    51.02
   5      1.07039108    -0.28989137   -76.35286590     0.00000229    -0.00003275  0.17D-06  0.52D-07  5  5   411.23    51.07
   6      1.07042841    -0.28988831   -76.35286284     0.00000306    -0.00000852  0.18D-07  0.43D-08  6  6   460.77    51.08
   7      1.07043599    -0.28988791   -76.35286244     0.00000040    -0.00000058  0.15D-08  0.84D-09  6  1   510.51    51.08
   8      1.07043777    -0.28988781   -76.35286234     0.00000010    -0.00000006  0.26D-09  0.98D-10  6  2   558.98    50.96
   9      1.07043845    -0.28988776   -76.35286230     0.00000004     0.00000011  0.20D-10  0.88D-11  6  3   608.40    50.94
  10      1.07043860    -0.28988775   -76.35286228     0.00000001     0.00000001  0.24D-11  0.13D-11  6  4   656.98    50.86
  11      1.07043860    -0.28988775   -76.35286229    -0.00000000     0.00000002  0.55D-12  0.17D-12  6  5   706.30    50.84
  12      1.07043860    -0.28988775   -76.35286229    -0.00000000     0.00000001  0.96D-13  0.29D-13  6  6   755.14    50.80
  13      1.07043859    -0.28988776   -76.35286229    -0.00000000     0.00000000  0.17D-13  0.55D-14  6  1   804.12    50.75
  14      1.07043859    -0.28988776   -76.35286229    -0.00000000     0.00000000  0.17D-14  0.78D-15  6  2   853.02    50.72
  15      1.07043859    -0.28988776   -76.35286229    -0.00000000     0.00000000  0.19D-15  0.13D-15  6  3   901.57    50.67
  16      1.07043859    -0.28988776   -76.35286229    -0.00000000    -0.00000000  0.42D-16  0.20D-16  6  4   953.89    50.88

 Norm of t1 vector:      0.03876730      S-energy:    -0.00000000      T1 diagnostic:  0.00969183
                                                                       D1 diagnostic:  0.02024453


 Total CPU time for triples:    435.51 sec


 RESULTS
 =======

  Reference energy                    -76.062974531658
  CCSD singlet pair energy             -0.200221363922
  CCSD triplet pair energy             -0.089666392066
  CCSD correlation energy              -0.289887756079

  Triples (T) contribution             -0.009634173799
  Total correlation energy             -0.299521929877

  CCSD total energy                   -76.352862287737
  CCSD[T] energy                      -76.362817408861
  CCSD-T energy                       -76.362341270883
 !CCSD(T) total energy                -76.362496461535

 Timing summary (sec):

 STEP                 CPU(USER)    SYS     CPU(TOT)    WALL
 Transformation        162.82      3.81    166.63    166.86
 CCSD iterations       791.16     22.12    813.28    814.31
 Triples               435.51      1.16    436.67    437.37

 Program statistics:

 Available memory in ccsd:              1999999921
 Min. memory needed in ccsd:               6768234
 Max. memory used in ccsd:                 7865440
 Max. memory used in cckext:               5182436 (16 integral passes)



 **********************************************************************************************************************************
 DATASETS  * FILE   NREC   LENGTH (MB)   RECORD NAMES
              1      19     1346.95       500      610      700      900      950      970     1000      129      960     1100   
                                          VAR    BASINP    GEOM    SYMINP    ZMAT    AOBASIS   BASIS     P2S    ABASIS      S 
                                         1400     1410     1200     1210     1080     1600     1650     1700     1380   
                                           T        V       H0       H01     AOSYM     SMH    MOLCAS    OPER     JKOP   

              2       6       17.39       700     1000      520     2100      200     2101   
                                         GEOM     BASIS   MCVARS     RHF    OPTIONS    RHF  

 PROGRAMS   *        TOTAL   CCSD(T)    HF-SCF       INT   CCSD(T)    HF-SCF       INT
 CPU TIMES  *      7949.30   1389.72    224.75      0.36   5907.06    242.64    184.53
 REAL TIME  *      8106.61 SEC
 DISK USED  *         3.24 GB (local),       82.21 GB (total)
 SF USED    *         3.08 GB
 GA USED    *         0.00 MB       (max)       0.00 MB       (current)
 **********************************************************************************************************************************

 Running procedure: SET_MONOMER2

 Dummy atoms: O20  H39  H40


 Recomputing one-electron integrals since nuclear charges changed


 PROGRAM * SEWARD (Integral evaluation for generally contracted gaussian basis sets)     Author: Roland Lindh, 1990

 Geometry written to block  1 of record 700


 Point group  C1  



 ATOMIC COORDINATES

 NR  ATOM    CHARGE       X              Y              Z

   1  O20     0.00  -12.400004884    5.677493169    4.606774346
   2  H39     0.00  -12.146781583    3.932709038    5.214888213
   3  H40     0.00  -11.104030708    6.694165824    5.446946581
   4  C1      6.00   -6.193010455    2.801518980    2.403542658
   5  H41     1.00   -4.656285171    1.699997622    3.119937832
   6  H42     1.00   -5.973046335    4.726205038    2.982932688
   7  H43     1.00   -7.940251230    2.077186956    3.118237078
   8  H44     1.00   -6.176569838    2.685300823    0.384937212

 Bond lengths in Bohr (Angstrom)

 1-2  1.864992273  1-3  1.849070506  4-5  2.021904040  4-6  2.022002335  4-7  2.021953343
     ( 0.986911409)     ( 0.978485973)     ( 1.069945541)     ( 1.069997556)     ( 1.069971630)

 4-8  2.022015060
     ( 1.070004290)

 Bond angles

  2-1-3  105.72790617   5-4-6  109.53398059   5-4-7  109.65604535   5-4-8  108.43490854

  6-4-7  109.49436728   6-4-8  109.86987750   7-4-8  109.83468330

 NUCLEAR CHARGE:                   10
 NUMBER OF PRIMITIVE AOS:         578
 NUMBER OF SYMMETRY AOS:          474
 NUMBER OF CONTRACTIONS:          436   (  436A   )
 NUMBER OF CORE ORBITALS:           1   (    1A   )
 NUMBER OF VALENCE ORBITALS:        8   (    8A   )

 MOLECULE CHANGED: INITIALIZING OCCUPATION AND DUMP RECORDS


 NUCLEAR REPULSION ENERGY   13.68681606

 Basis set:  JKFIT                   
 Basis size:   740
 Attributes:
 Sphericals:   T
 Basis set:  MP2FIT                  
 Basis size:   816
 Attributes:
 Sphericals:   T
 Basis set:  RI                      
 Basis size:   556
 Attributes:
 Sphericals:   T
 Basis set:  TDDFT                   
 Basis size:   816
 Attributes:
 Sphericals:   T

 Eigenvalues of metric

         1 0.158E-04 0.271E-04 0.337E-04 0.353E-04 0.659E-04 0.911E-04 0.963E-04 0.106E-03


 Contracted 2-electron integrals neglected if value below      1.0D-14

 OPERATOR DM      FOR CENTER  0  COORDINATES:    0.000000    0.000000    0.000000


 **********************************************************************************************************************************
 DATASETS  * FILE   NREC   LENGTH (MB)   RECORD NAMES
              1      18       37.06       500      610      700      900      950      970     1000      129      960     1100   
                                          VAR    BASINP    GEOM    SYMINP    ZMAT    AOBASIS   BASIS     P2S    ABASIS      S 
                                         1400     1410     1200     1210     1080     1600     1650     1700   
                                           T        V       H0       H01     AOSYM     SMH    MOLCAS    OPER   

              2       6       17.39       700     1000      520     2100      200     2101   
                                         GEOM     BASIS   MCVARS     RHF    OPTIONS    RHF  

 PROGRAMS   *        TOTAL       INT   CCSD(T)    HF-SCF       INT   CCSD(T)    HF-SCF       INT
 CPU TIMES  *      7949.68      0.37   1389.72    224.75      0.36   5907.06    242.64    184.53
 REAL TIME  *      8107.64 SEC
 DISK USED  *         3.24 GB (local),       82.21 GB (total)
 SF USED    *         3.08 GB
 GA USED    *         0.00 MB       (max)       0.00 MB       (current)
 **********************************************************************************************************************************


 PROGRAM * RHF-SCF (CLOSED SHELL)       Authors: W. Meyer, H.-J. Werner


 NUMBER OF ELECTRONS:       5+    5-    SPACE SYMMETRY=1    SPIN SYMMETRY: Singlet 
 CONVERGENCE THRESHOLDS:    1.00E-08 (Density)    1.00E-11 (Energy)
 MAX. NUMBER OF ITERATIONS:       60
 INTERPOLATION TYPE:            DIIS
 INTERPOLATION STEPS:              2 (START)      1 (STEP)
 LEVEL SHIFTS:                  0.00 (CLOSED)  0.00 (OPEN) 



 Orbital guess generated from atomic densities. Full valence occupancy:    9

 Molecular orbital dump at record        2102.2

 Initial occupancy:   5

 ITERATION    DDIFF          GRAD             ENERGY        2-EL.EN.            DIPOLE MOMENTS         DIIS   ORB.
    1      0.000D+00      0.000D+00       -40.19609551     53.506289    0.00412   -0.00276   -0.00132    0    start
    2      0.000D+00      0.257D-02       -40.21334955     52.217622    0.00129   -0.00087   -0.00040    1    diag
    3      0.158D-02      0.998D-03       -40.21562546     52.672082    0.00183   -0.00123   -0.00057    2    diag
    4      0.442D-03      0.249D-03       -40.21594492     52.617269    0.00163   -0.00110   -0.00050    3    diag
    5      0.166D-03      0.322D-04       -40.21595041     52.619416    0.00160   -0.00108   -0.00049    4    diag
    6      0.411D-04      0.264D-05       -40.21595045     52.619553    0.00160   -0.00108   -0.00049    5    diag
    7      0.545D-05      0.212D-06       -40.21595045     52.619514    0.00160   -0.00108   -0.00049    6    diag
    8      0.218D-06      0.170D-07       -40.21595045     52.619515    0.00160   -0.00108   -0.00049    7    diag
    9      0.827D-07      0.218D-08       -40.21595045     52.619515    0.00160   -0.00108   -0.00049    8    diag
   10      0.827D-08      0.596D-09       -40.21595045     52.619515    0.00160   -0.00108   -0.00049    0    orth

 Final occupancy:   5

 !RHF STATE  1.1 Energy               -40.215950450246
 Nuclear energy                        13.68681606
 One-electron energy                  -80.21252390
 Two-electron energy                   26.30975739
 Virial quotient                       -0.99838095
 !RHF STATE  1.1 Dipole moment          0.00159822    -0.00107814    -0.00048993
 Dipole moment /Debye                   0.00406200    -0.00274017    -0.00124519

 Orbital energies:

         1.1          2.1          3.1          4.1          5.1          6.1          7.1
    -11.196224    -0.950661    -0.551889    -0.549954    -0.547776     0.024946     0.038403


 HOMO      5.1    -0.547776 =     -14.9057eV
 LUMO      6.1     0.024946 =       0.6788eV
 LUMO-HOMO         0.572722 =      15.5846eV


 **********************************************************************************************************************************
 DATASETS  * FILE   NREC   LENGTH (MB)   RECORD NAMES
              1      18       37.06       500      610      700      900      950      970     1000      129      960     1100   
                                          VAR    BASINP    GEOM    SYMINP    ZMAT    AOBASIS   BASIS     P2S    ABASIS      S 
                                         1400     1410     1200     1210     1080     1600     1650     1700   
                                           T        V       H0       H01     AOSYM     SMH    MOLCAS    OPER   

              2       7       27.51       700     1000      520     2100      200     2101     2102   
                                         GEOM     BASIS   MCVARS     RHF    OPTIONS    RHF      RHF  

 PROGRAMS   *        TOTAL    HF-SCF       INT   CCSD(T)    HF-SCF       INT   CCSD(T)    HF-SCF       INT
 CPU TIMES  *      8139.76    190.08      0.37   1389.72    224.75      0.36   5907.06    242.64    184.53
 REAL TIME  *      8312.97 SEC
 DISK USED  *         3.24 GB (local),       82.21 GB (total)
 SF USED    *         3.08 GB
 GA USED    *         0.00 MB       (max)       0.00 MB       (current)
 **********************************************************************************************************************************

 Basis set:  JKFIT                   
 Basis size:   740
 Attributes:
 Sphericals:   T
 Basis set:  MP2FIT                  
 Basis size:   816
 Attributes:
 Sphericals:   T
 Basis set:  RI                      
 Basis size:   556
 Attributes:
 Sphericals:   T
 Basis set:  TDDFT                   
 Basis size:   816
 Attributes:
 Sphericals:   T

 PROGRAM * CCSD (Closed-shell coupled cluster)     Authors: C. Hampel, H.-J. Werner, 1991, M. Deegan, P.J. Knowles, 1992


 Convergence thresholds:  THRVAR = 1.00D-08  THRDEN = 1.00D-10

 CCSD(T)     terms to be evaluated (factor= 1.000)


 Number of core orbitals:           1 (   1 )
 Number of closed-shell orbitals:   4 (   4 )
 Number of external orbitals:     431 ( 431 )

 Molecular orbitals read from record     2102.2  Type=RHF/CANONICAL (state 1.1)

 Number of N-1 electron functions:               4
 Number of N-2 electron functions:              10
 Number of singly external CSFs:              1724
 Number of doubly external CSFs:           1486950
 Total number of CSFs:                     1488675

 Length of J-op  integral file:               0.00 MB
 Length of K-op  integral file:              13.08 MB
 Length of 3-ext integral record:             0.00 MB

 Memory could be reduced to 526.20 Mwords without degradation in triples

 Integral transformation finished. Total CPU: 161.82 sec, npass=  1  Memory used: 214.76 MW

 Reference energy:                    -40.21595045

 MP2 singlet pair energy:              -0.15443210
 MP2 triplet pair energy:              -0.05646386
 MP2 correlation energy:               -0.21089596
 MP2 total energy:                    -40.42684641

 SCS-MP2 correlation energy:           -0.22045159   (PS=  1.200000  PT=  0.333333)
 SCS-MP2 total energy:                -40.43640204

 ITER.      SQ.NORM     CORR.ENERGY   TOTAL ENERGY   ENERGY CHANGE        DEN1      VAR(S)    VAR(P)  DIIS     TIME  TIME/IT
   1      1.07097406    -0.22688040   -40.44283085    -0.01598444    -0.01039720  0.55D-03  0.97D-03  1  1   211.15    50.13
   2      1.07611909    -0.22798048   -40.44393093    -0.00110008    -0.00547155  0.14D-04  0.91D-04  2  2   260.55    50.55
   3      1.07764040    -0.22801969   -40.44397014    -0.00003921    -0.00107329  0.18D-05  0.58D-05  3  3   310.06    50.71
   4      1.07800012    -0.22802538   -40.44397583    -0.00000569    -0.00017109  0.12D-06  0.28D-06  4  4   359.32    50.75
   5      1.07804817    -0.22802727   -40.44397772    -0.00000189    -0.00001303  0.10D-07  0.20D-07  5  5   407.97    50.62
   6      1.07805642    -0.22802605   -40.44397650     0.00000122    -0.00000328  0.64D-09  0.14D-08  6  6   457.12    50.63
   7      1.07805746    -0.22802576   -40.44397621     0.00000029    -0.00000055  0.46D-10  0.11D-09  6  1   505.82    50.56
   8      1.07805741    -0.22802581   -40.44397626    -0.00000005     0.00000022  0.46D-11  0.65D-11  6  3   554.85    50.57
   9      1.07805753    -0.22802580   -40.44397625     0.00000002    -0.00000008  0.39D-12  0.54D-12  6  2   603.53    50.53
  10      1.07805753    -0.22802580   -40.44397625     0.00000000     0.00000000  0.46D-13  0.56D-13  6  4   652.70    50.52
  11      1.07805754    -0.22802579   -40.44397624     0.00000000     0.00000000  0.42D-14  0.56D-14  6  5   701.61    50.49
  12      1.07805753    -0.22802579   -40.44397624     0.00000000     0.00000000  0.99D-16  0.61D-15  6  6   750.17    50.45
  13      1.07805753    -0.22802579   -40.44397624    -0.00000000     0.00000000  0.74D-17  0.59D-16  6  1   799.40    50.48
  14      1.07805753    -0.22802579   -40.44397624    -0.00000000     0.00000000  0.10D-17  0.76D-17  6  3   848.29    50.47

 Norm of t1 vector:      0.03128336      S-energy:    -0.00000000      T1 diagnostic:  0.00782084
                                                                       D1 diagnostic:  0.01257208

 Total CPU time for triples:    438.10 sec


 RESULTS
 =======

  Reference energy                    -40.215950450247
  CCSD singlet pair energy             -0.173330206787
  CCSD triplet pair energy             -0.054695587487
  CCSD correlation energy              -0.228025794279

  Triples (T) contribution             -0.006882257642
  Total correlation energy             -0.234908051921

  CCSD total energy                   -40.443976244526
  CCSD[T] energy                      -40.451071652454
  CCSD-T energy                       -40.450790894394
 !CCSD(T) total energy                -40.450858502168

 Timing summary (sec):

 STEP                 CPU(USER)    SYS     CPU(TOT)    WALL
 Transformation        162.19      4.02    166.21    166.62
 CCSD iterations       686.18     19.70    705.88    706.78
 Triples               438.10      1.12    439.22    439.91

 Program statistics:

 Available memory in ccsd:              1999999916
 Min. memory needed in ccsd:               6768234
 Max. memory used in ccsd:                 7865440
 Max. memory used in cckext:               5182436 (14 integral passes)



 **********************************************************************************************************************************
 DATASETS  * FILE   NREC   LENGTH (MB)   RECORD NAMES
              1      19     1346.95       500      610      700      900      950      970     1000      129      960     1100   
                                          VAR    BASINP    GEOM    SYMINP    ZMAT    AOBASIS   BASIS     P2S    ABASIS      S 
                                         1400     1410     1200     1210     1080     1600     1650     1700     1380   
                                           T        V       H0       H01     AOSYM     SMH    MOLCAS    OPER     JKOP   

              2       7       27.51       700     1000      520     2100      200     2101     2102   
                                         GEOM     BASIS   MCVARS     RHF    OPTIONS    RHF      RHF  

 PROGRAMS   *        TOTAL   CCSD(T)    HF-SCF       INT   CCSD(T)    HF-SCF       INT   CCSD(T)    HF-SCF       INT
 CPU TIMES  *      9426.46   1286.70    190.08      0.37   1389.72    224.75      0.36   5907.06    242.64    184.53
 REAL TIME  *      9627.19 SEC
 DISK USED  *         3.24 GB (local),       82.21 GB (total)
 SF USED    *         3.08 GB
 GA USED    *         0.00 MB       (max)       0.00 MB       (current)
 **********************************************************************************************************************************
 Molecular orbitals read from record     2102.2  Type=RHF/CANONICAL (state 1.1)
 Occupation numbers read from record     2102.2  Type=RHF/RHF (state 1.1)
 Orbital energies read from record       2102.2  Type=RHF/CANONICAL (state 1.1)
 Redundancy group numbers read from rec  2102.2  Type=RHF/RHF (state 1.1)

 CCSD(T)/aug-cc-pVQZ energy=    -40.450858502168

         CCSD(T)          HF-SCF         CCSD(T)          HF-SCF         CCSD(T)          HF-SCF
    -40.45085850    -40.21595045    -76.36249646    -76.06297453   -116.81358901   -116.27822269
 **********************************************************************************************************************************
 Molpro calculation terminated
