
 Primary working directories    : /scratch/klimes/383146/molpro.utiVW7E21B
 Secondary working directories  : /scratch/klimes/383146/molpro.utiVW7E21B
 Wavefunction directory         : /scratch/klimes/383146/
 Main file repository           : /scratch/klimes/383146/molpro.utiVW7E21B/

 id        : karlovklimes

 Nodes                      nprocs
 nc-20.cc.karlov.mff.cuni.cz    4

 Using customized tuning parameters: mindgm=1; mindgv=20; mindgc=4; mindgr=1; noblas=0; minvec=7
 default implementation of scratch files=sf  


 Variables initialized (930), CPU time= 0.01 sec
                                                                                 !gdirect
 memory,2000,m
 gthresh,orbital=1d-10,energy=1d-10,grid=1d-8
 
 symmetry,nosym
 angstrom
 geometry={
 O1         0.000000000000      0.000000000000      0.000000000000
 H1         0.000000000000      0.000000000000      0.974900000000
 H2         0.000000000000      0.942300000000     -0.261200000000
 C1        -3.277200000000      1.482500000000      1.271900000000
 H41        -2.464000000000      0.899600000000      1.651000000000
 H42        -3.160800000000      2.501000000000      1.578500000000
 H43        -4.201800000000      1.099200000000      1.650100000000
 H44        -3.268500000000      1.421000000000      0.203700000000
 }
 
 nkerna=1
 nkernb=1
 
 gf=0
 sing=1
 thrdum=1d-4
 gridthr=1d-8
 
 basis={
 set,orbital
 default,avtz
 set,jkfit
 default,avqz/jkfit
 set,mp2fit
 default,avqz/mp2fit
 set,ri
 default,avqz/optri
 set,tddft
 default,avqz/mp2fit
 }
 
 proc set_monomer1
 dummy,4,5,6,7,8
 endproc
 
 proc set_monomer2
 dummy,1,2,3
 endproc
 
                                                                                 !12 energy
 {hf,accu=1.d-16}
 {ccsd(t)-f12,df_basis=mp2fit,df_basis_exch=jkfit,ri_basis=ri,scale_trip=1,THRAOF12=1d-10}
 
 set_monomer1
 {hf,accu=1.d-16}
 {ccsd(t)-f12,df_basis=mp2fit,df_basis_exch=jkfit,ri_basis=ri,scale_trip=1,THRAOF12=1d-10}
 
 set_monomer2
 {hf,accu=1.d-16}
 {ccsd(t)-f12,df_basis=mp2fit,df_basis_exch=jkfit,ri_basis=ri,scale_trip=1,THRAOF12=1d-10}
 
 Commands  initialized (760), CPU time= 0.01 sec, 617 directives.
 Default parameters read. Elapsed time= 0.21 sec

 Checking input...
 Passed
1


                                         ***  PROGRAM SYSTEM MOLPRO  ***
                                       Copyright, TTI GmbH Stuttgart, 2015
                                    Version 2019.1 linked Jan 14 2019 13:09:19


 **********************************************************************************************************************************
 LABEL *                                                                                 
  64 bit mpp version                                                                     DATE: 11-Mar-20          TIME: 16:03:18  
 **********************************************************************************************************************************

 SHA1:             d688ac825633d238f2093ded1675ba87ccd55965
 **********************************************************************************************************************************

 THRESHOLDS:

 ZERO    =  1.00D-12  ONEINT  =  1.00D-12  TWOINT  =  1.00D-11  PREFAC  =  1.00D-14  XXXXXX  =  1.00D-09  EORDER  =  1.00D-04
 ENERGY  =  1.00D-10  ETEST   =  0.00D+00  EDENS   =  0.00D+00  THRDEDEF=  1.00D-06  GRADIENT=  1.00D-02  STEP    =  1.00D-03
 ORBITAL =  1.00D-10  CIVEC   =  1.00D-05  COEFF   =  1.00D-04  PRINTCI =  5.00D-02  PUNCHCI =  9.90D+01  OPTGRAD =  3.00D-04
 OPTENERG=  1.00D-06  OPTSTEP =  3.00D-04  THRGRAD =  1.00D-10  COMPRESS=  1.00D-11  VARMIN  =  1.00D-07  VARMAX  =  1.00D-03
 THRDOUB =  0.00D+00  THRDIV  =  1.00D-05  THRRED  =  1.00D-07  THRPSP  =  1.00D+00  THRDC   =  1.00D-10  THRCS   =  1.00D-10
 THRNRM  =  1.00D-08  THREQ   =  0.00D+00  THRDE   =  1.00D+00  THRREF  =  1.00D-05  SPARFAC =  1.00D+00  THRDLP  =  1.00D-07
 THRDIA  =  1.00D-10  THRDLS  =  1.00D-07  THRGPS  =  0.00D+00  THRKEX  =  0.00D+00  THRDIS  =  2.00D-01  THRVAR  =  1.00D-10
 THRLOC  =  1.00D-06  THRGAP  =  1.00D-06  THRLOCT = -1.00D+00  THRGAPT = -1.00D+00  THRORB  =  1.00D-06  THRMLTP =  0.00D+00
 THRCPQCI=  1.00D-10  KEXTA   =  0.00D+00  THRCOARS=  0.00D+00  SYMTOL  =  1.00D-06  GRADTOL =  1.00D-06  THROVL  =  1.00D-08
 THRORTH =  1.00D-08  GRID    =  1.00D-08  GRIDMAX =  1.00D-03  DTMAX   =  0.00D+00  THROCCDE=  1.00D-01  THROCCDE=  1.00D-01
 THRPRINT=  2.50D-01


 Variable memory set to 2000000000 words,  buffer space 

 ZSYMEL=NOSYM
 ZUNIT=ANG


Geometry recognized as XYZ

 SETTING NKERNA         =         1.00000000                                  
 SETTING NKERNB         =         1.00000000                                  
 SETTING GF             =     0.00000000D+00                                  
 SETTING SING           =         1.00000000                                  
 SETTING THRDUM         =     1.00000000D-04                                  
 SETTING GRIDTHR        =     1.00000000D-08                                  
 SETTING BASIS          =    AVTZ


 Recomputing integrals since basis changed


 Using spherical harmonics

 Library entry O      S aug-cc-pVTZ          selected for orbital group  1
 Library entry O      P aug-cc-pVTZ          selected for orbital group  1
 Library entry O      D aug-cc-pVTZ          selected for orbital group  1
 Library entry O      F aug-cc-pVTZ          selected for orbital group  1
 Library entry H      S aug-cc-pVTZ          selected for orbital group  2
 Library entry H      P aug-cc-pVTZ          selected for orbital group  2
 Library entry H      D aug-cc-pVTZ          selected for orbital group  2
 Library entry C      S aug-cc-pVTZ          selected for orbital group  3
 Library entry C      P aug-cc-pVTZ          selected for orbital group  3
 Library entry C      D aug-cc-pVTZ          selected for orbital group  3
 Library entry C      F aug-cc-pVTZ          selected for orbital group  3


 PROGRAM * SEWARD (Integral evaluation for generally contracted gaussian basis sets)     Author: Roland Lindh, 1990

 Geometry written to block  1 of record 700


 Point group  C1  



 ATOMIC COORDINATES

 NR  ATOM    CHARGE       X              Y              Z

   1  O1      8.00    0.000000000    0.000000000    0.000000000
   2  H1      1.00    0.000000000    0.000000000    1.842293999
   3  H2      1.00    0.000000000    1.780688927   -0.493596464
   4  C1      6.00   -6.193010455    2.801518980    2.403542658
   5  H41     1.00   -4.656285171    1.699997622    3.119937832
   6  H42     1.00   -5.973046335    4.726205038    2.982932688
   7  H43     1.00   -7.940251230    2.077186956    3.118237078
   8  H44     1.00   -6.176569838    2.685300823    0.384937212

 Bond lengths in Bohr (Angstrom)

 1-2  1.842293999  1-3  1.847834009  4-5  2.021904040  4-6  2.022002335  4-7  2.021953343
     ( 0.974900000)     ( 0.977831647)     ( 1.069945541)     ( 1.069997556)     ( 1.069971630)

 4-8  2.022015060
     ( 1.070004290)

 Bond angles

  2-1-3  105.49305961   5-4-6  109.53398059   5-4-7  109.65604535   5-4-8  108.43490854

  6-4-7  109.49436728   6-4-8  109.86987750   7-4-8  109.83468330

 NUCLEAR CHARGE:                   20
 NUMBER OF PRIMITIVE AOS:         296
 NUMBER OF SYMMETRY AOS:          266
 NUMBER OF CONTRACTIONS:          230   (  230A   )
 NUMBER OF CORE ORBITALS:           2   (    2A   )
 NUMBER OF VALENCE ORBITALS:       14   (   14A   )


 NUCLEAR REPULSION ENERGY   36.71209306


 Basis set:  JKFIT                   
 Basis size:   740
 Attributes:
 Sphericals:   T
 Basis set:  MP2FIT                  
 Basis size:   816
 Attributes:
 Sphericals:   T
 Basis set:  RI                      
 Basis size:   556
 Attributes:
 Sphericals:   T
 Basis set:  TDDFT                   
 Basis size:   816
 Attributes:
 Sphericals:   T

 **********************************************************************************************************************************


 Eigenvalues of metric

         1 0.627E-04 0.796E-04 0.896E-04 0.102E-03 0.333E-03 0.375E-03 0.624E-03 0.703E-03


 Contracted 2-electron integrals neglected if value below      1.0D-14
 AO integral compression algorithm  1   Integral accuracy      1.0D-14

     2197.815 MB (compressed) written to integral file ( 68.5%)

     Node minimum: 526.647 MB, node maximum: 568.066 MB


 NUMBER OF SORTED TWO-ELECTRON INTEGRALS:   88219044.     BUFFER LENGTH:  32768
 NUMBER OF SEGMENTS:   6  SEGMENT LENGTH:   15998348      RECORD LENGTH: 524288

 Memory used in sort:      16.56 MW

 SORT1 READ   400769927. AND WROTE    81750773. INTEGRALS IN    237 RECORDS. CPU TIME:     7.78 SEC, REAL TIME:     8.97 SEC
 SORT2 READ   327143994. AND WROTE   352862895. INTEGRALS IN   8036 RECORDS. CPU TIME:     2.11 SEC, REAL TIME:     3.20 SEC

 Node minimum:    88205762.  Node maximum:    88225686. integrals

 OPERATOR DM      FOR CENTER  0  COORDINATES:    0.000000    0.000000    0.000000


 **********************************************************************************************************************************
 DATASETS  * FILE   NREC   LENGTH (MB)   RECORD NAMES
              1      18       32.04       500      610      700      900      950      970     1000      129      960     1100   
                                          VAR    BASINP    GEOM    SYMINP    ZMAT    AOBASIS   BASIS     P2S    ABASIS      S 
                                         1400     1410     1200     1210     1080     1600     1650     1700   
                                           T        V       H0       H01     AOSYM     SMH    MOLCAS    OPER   

 PROGRAMS   *        TOTAL       INT
 CPU TIMES  *        14.96     14.73
 REAL TIME  *        20.75 SEC
 DISK USED  *        32.49 MB (local),        6.21 GB (total)
 GA USED    *         0.00 MB       (max)       0.00 MB       (current)
 **********************************************************************************************************************************


 PROGRAM * RHF-SCF (CLOSED SHELL)       Authors: W. Meyer, H.-J. Werner


 NUMBER OF ELECTRONS:      10+   10-    SPACE SYMMETRY=1    SPIN SYMMETRY: Singlet 
 CONVERGENCE THRESHOLDS:    1.00E-08 (Density)    1.00E-11 (Energy)
 MAX. NUMBER OF ITERATIONS:       60
 INTERPOLATION TYPE:            DIIS
 INTERPOLATION STEPS:              2 (START)      1 (STEP)
 LEVEL SHIFTS:                  0.00 (CLOSED)  0.00 (OPEN) 



 Orbital guess generated from atomic densities. Full valence occupancy:   16

 Molecular orbital dump at record        2100.2

 Initial occupancy:  10

 ITERATION    DDIFF          GRAD             ENERGY        2-EL.EN.            DIPOLE MOMENTS         DIIS   ORB.
    1      0.000D+00      0.000D+00      -116.21362009    158.783859    0.00443    0.91024    0.68735    0    start
    2      0.000D+00      0.522D-02      -116.25741981    153.996103   -0.03173    0.51361    0.38001    1    diag
    3      0.550D-02      0.305D-02      -116.27065134    155.992690   -0.02114    0.61407    0.45775    2    diag
    4      0.182D-02      0.453D-03      -116.27130256    155.881957   -0.02000    0.60548    0.45185    3    diag
    5      0.399D-03      0.132D-03      -116.27136894    155.876258   -0.02057    0.60511    0.45181    4    diag
    6      0.143D-03      0.323D-04      -116.27137267    155.882167   -0.02068    0.60443    0.45146    5    diag
    7      0.403D-04      0.622D-05      -116.27137289    155.880605   -0.02070    0.60445    0.45152    6    diag
    8      0.111D-04      0.157D-05      -116.27137290    155.880751   -0.02073    0.60439    0.45149    7    diag
    9      0.244D-05      0.354D-06      -116.27137290    155.880725   -0.02073    0.60437    0.45148    8    diag
   10      0.778D-06      0.423D-07      -116.27137290    155.880727   -0.02073    0.60437    0.45148    9    orth
   11      0.589D-07      0.111D-07      -116.27137290    155.880728   -0.02073    0.60437    0.45148    9    diag
   12      0.233D-07      0.301D-08      -116.27137290    155.880728   -0.02073    0.60437    0.45148    9    diag
   13      0.437D-08      0.802D-09      -116.27137290    155.880728   -0.02073    0.60437    0.45148    0    orth

 Final occupancy:  10

 !RHF STATE  1.1 Energy              -116.271372903873
 Nuclear energy                        36.71209306
 One-electron energy                 -230.92383005
 Two-electron energy                   77.94036408
 Virial quotient                       -1.00101969
 !RHF STATE  1.1 Dipole moment         -0.02073225     0.60436935     0.45147795
 Dipole moment /Debye                  -0.05269268     1.53605304     1.14746732

 Orbital energies:

         1.1          2.1          3.1          4.1          5.1          6.1          7.1          8.1          9.1         10.1
    -20.569385   -11.200349    -1.342857    -0.953984    -0.708942    -0.579522    -0.555157    -0.553106    -0.550943    -0.507304

        11.1         12.1
      0.026259     0.042241


 HOMO     10.1    -0.507304 =     -13.8044eV
 LUMO     11.1     0.026259 =       0.7145eV
 LUMO-HOMO         0.533563 =      14.5190eV


 **********************************************************************************************************************************
 DATASETS  * FILE   NREC   LENGTH (MB)   RECORD NAMES
              1      18       32.04       500      610      700      900      950      970     1000      129      960     1100   
                                          VAR    BASINP    GEOM    SYMINP    ZMAT    AOBASIS   BASIS     P2S    ABASIS      S 
                                         1400     1410     1200     1210     1080     1600     1650     1700   
                                           T        V       H0       H01     AOSYM     SMH    MOLCAS    OPER   

              2       4        3.96       700     1000      520     2100   
                                         GEOM     BASIS   MCVARS     RHF  

 PROGRAMS   *        TOTAL    HF-SCF       INT
 CPU TIMES  *        29.38     14.42     14.73
 REAL TIME  *        36.94 SEC
 DISK USED  *        39.90 MB (local),        6.24 GB (total)
 SF USED    *         0.21 MB
 GA USED    *         0.00 MB       (max)       0.00 MB       (current)
 **********************************************************************************************************************************

 Basis set:  JKFIT                   
 Basis size:   740
 Attributes:
 Sphericals:   T
 Basis set:  MP2FIT                  
 Basis size:   816
 Attributes:
 Sphericals:   T
 Basis set:  RI                      
 Basis size:   556
 Attributes:
 Sphericals:   T
 Basis set:  TDDFT                   
 Basis size:   816
 Attributes:
 Sphericals:   T

 PROGRAM * CCSD (Closed-shell coupled cluster)     Authors: C. Hampel, H.-J. Werner, 1991, M. Deegan, P.J. Knowles, 1992

                                  CCSD-F12 implementation by  H.-J. Werner, 2007

                   Density fitting integral evaluation by F.R. Manby, 2003,2007, G. Knizia, 2010



 Convergence thresholds:  THRVAR = 1.00D-08  THRDEN = 1.00D-10

 CCSD(T)     terms to be evaluated (factor= 1.000)


 Number of core orbitals:           2 (   2 )
 Number of closed-shell orbitals:   8 (   8 )
 Number of external orbitals:     220 ( 220 )

 Molecular orbitals read from record     2100.2  Type=RHF/CANONICAL (state 1.1)

 MP2-F12 correlation treatment (H.-J. Werner, 2006)
 ==================================================

 Using MP2-F12 with ansatz 3C(FIX)

 Using projected zeroth-order Hamiltonian (+Z)

 FOCKRIB=T FOCKRIC=T FOCKRIP=T CABSP=T CABSA=T CABSK=T CABSF=T GBC=F EBC=F DMAT=T NOFIK=T NOPAO=1 SOLVE=-1  USEPAO=0
 EXCH_A= T EXCH_B= F EXCH_C= F EXCH_P= F

 Geminal basis:    OPTFULL  GEM_TYPE=SLATER  BETA=1.0  NGEM=6

 Optimizing Gaussian exponents for each gem_beta

 Geminal optimization for beta= 1.0000
 Weight function:   m=0, omega= 1.4646

 Augmented Hessian optimization of geminal fit. Trust ratio= 0.40000
 Convergence reached after   2 iterations. Final gradient= 7.85D-16, Step= 4.26D-06, Delta= 1.28D-09

 Alpha:                 0.19532     0.81920     2.85917     9.50073    35.69989   197.79328
 Coeff:                 0.27070     0.30552     0.18297     0.10986     0.06810     0.04224


 All pairs explicitly correlated. Number of r12-pairs:           36

 Excluding core orbitals from MO domains

 AO(A)-basis ORBITAL           loaded. Number of functions:     230
 RI(R)-basis RI                loaded. Number of functions:     556
 DF-basis JKFIT                loaded. Number of functions:     740

 Screening thresholds:   THRAO=  1.00D-10  THRMO=  1.00D-09  THRPROD=  1.00D-09
                         THRSW=  1.00D-05  THROV=  1.00D-12  THRAOF12= 1.00D-10

 CPU time for Fock operators                      3.83 sec

 Construction of ABS:
 Smallest eigenvalue of S          1.17E-04  (threshold= 1.00E-08)
 Ratio eigmin/eigmax               1.66E-05  (threshold= 1.00E-09)
 Smallest eigenvalue of S kept     1.17E-04  (threshold= 1.17E-04, 0 functions deleted, 556 kept)

 Construction of CABS:
 Smallest eigenvalue of S          6.64E-07  (threshold= 1.00E-08)
 Ratio eigmin/eigmax               6.64E-07  (threshold= 1.00E-09)
 Smallest eigenvalue of S kept     6.64E-07  (threshold= 6.64E-07, 0 functions deleted, 556 kept)

 CPU time for CABS singles                        0.70 sec

 CABS-singles contribution of  -0.00238870 patched into reference energy.
 New reference energy        -116.27376161

 AO(A)-basis ORBITAL           loaded. Number of functions:     230
 RI(R)-basis RI                loaded. Number of functions:     556
 DF-basis MP2FIT               loaded. Number of functions:     816

 Screening thresholds:   THRAO=  1.00D-10  THRMO=  1.00D-09  THRPROD=  1.00D-09
                         THRSW=  1.00D-05  THROV=  1.00D-12  THRAOF12= 1.00D-10

 CPU time for 3-index integral evaluation         5.38 sec
 CPU time for first  half transformation          1.06 sec ( 2510.3 MFLOP/sec)
 CPU time for second half transformation          0.02 sec ( 2657.0 MFLOP/sec)
 CPU time for sorting                             0.05 sec
 CPU time for fitting                             0.56 sec ( 3881.0 MFLOP/sec)
 CPU time for tilde quantities                    0.63 sec ( 4379.9 MFLOP/sec)
 CPU time for assembly                            4.66 sec ( 4250.2 MFLOP/sec)
 CPU time for tranop_f12                          4.43 sec ( 4309.2 MFLOP/sec)
 CPU time for f12 integrals (total)              23.84 sec, Elapsed time:     25.17 sec
 F12-matrices built in  4 passes.
 F12-matrices built in  4 passes.
 F12-matrices built in  4 passes.
 F12-matrices built in  4 passes.
 FC-matrix built in  4 passes.
 CPU time for f12 matrices (total)                1.09 sec, Elapsed time:      1.17 sec

 Diagonal F12 approximation with fixed coefficients:  TSING= 0.500,  TTRIP= 0.250 (scaled by -1/beta)

 DF-MP2-F12 energy corrections:
 ==============================
 Approx.                                    Singlet             Triplet             Total
 DF-MP2-F12/3*C(DX,FIX)                -0.046229281778     -0.006810282340     -0.053039564118
 DF-MP2-F12/3*C(FIX)                   -0.039910909902     -0.005617580489     -0.045528490391
 DF-MP2-F12/3C(FIX)                    -0.040028951884     -0.005583509167     -0.045612461051

 DF-MP2-F12 correlation energies:
 ================================
 Approx.                                    Singlet             Triplet             Ecorr            Total Energy
 DF-MP2                                -0.317337984852     -0.153849615480     -0.471187600331   -116.744949206978
 DF-MP2-F12/3*C(DX,FIX)                -0.363567266630     -0.160659897820     -0.524227164450   -116.797988771096
 DF-MP2-F12/3*C(FIX)                   -0.357248894753     -0.159467195969     -0.516716090723   -116.790477697369
 DF-MP2-F12/3C(FIX)                    -0.357366936735     -0.159433124647     -0.516800061382   -116.790561668029

 SCS-DF-MP2 energies (F_SING= 1.20000  F_TRIP= 0.62222  F_PARALLEL= 0.33333):
 ============================================================================
 SCS-DF-MP2                            -0.476534231454   -116.750295838100
 SCS-DF-MP2-F12/3*C(DX,FIX)            -0.536246878599   -116.810008485246
 SCS-DF-MP2-F12/3*C(FIX)               -0.527922706752   -116.801684313398
 SCS-DF-MP2-F12/3C(FIX)                -0.528043157196   -116.801804763843
 Symmetry transformation completed.

 Number of N-1 electron functions:               8
 Number of N-2 electron functions:              36
 Number of singly external CSFs:              1760
 Number of doubly external CSFs:           1549680
 Total number of CSFs:                     1551441

 Pair and operator lists are different

 Length of J-op  integral file:             315.61 MB
 Length of K-op  integral file:             368.50 MB
 Length of 3-ext integral record:             0.00 MB

 Memory could be reduced to 116.32 Mwords without degradation in triples

 Integral transformation finished. Total CPU:  23.65 sec, npass=  1  Memory used:  59.34 MW

 Reference energy:                   -116.27376161

 Adding F12 terms to K(Cij), methodcc=6,  factor= 1.0

 ITER.      SQ.NORM     CORR.ENERGY   TOTAL ENERGY   ENERGY CHANGE        DEN1      VAR(S)    VAR(P)  DIIS     TIME  TIME/IT
   1      1.13196054    -0.48587409  -116.75963570    -0.01466921    -0.00306251  0.15D-02  0.20D-02  1  1    69.71    14.60
   2      1.14018857    -0.48613971  -116.75990132    -0.00026562    -0.00968811  0.28D-04  0.23D-03  2  2    84.60    14.90
   3      1.14305392    -0.48639719  -116.76015879    -0.00025747    -0.00196005  0.12D-04  0.12D-04  3  3    99.50    15.00
   4      1.14392276    -0.48645155  -116.76021315    -0.00005436    -0.00047908  0.52D-06  0.11D-05  4  4   114.35    15.04
   5      1.14406752    -0.48644627  -116.76020788     0.00000528    -0.00003923  0.20D-06  0.76D-07  5  5   129.17    15.06
   6      1.14410771    -0.48644333  -116.76020494     0.00000294    -0.00000606  0.19D-07  0.60D-08  6  6   144.13    15.10
   7      1.14411723    -0.48644261  -116.76020422     0.00000072    -0.00000251  0.18D-08  0.96D-09  6  2   158.75    15.08
   8      1.14411939    -0.48644248  -116.76020409     0.00000013    -0.00000029  0.35D-09  0.10D-09  6  1   173.29    15.06
   9      1.14412018    -0.48644256  -116.76020417    -0.00000008     0.00000000  0.32D-10  0.16D-10  6  3   188.37    15.09
  10      1.14412037    -0.48644255  -116.76020416     0.00000001     0.00000003  0.39D-11  0.22D-11  6  4   203.63    15.12
  11      1.14412031    -0.48644256  -116.76020417    -0.00000001     0.00000008  0.70D-12  0.30D-12  6  5   218.90    15.16
  12      1.14412028    -0.48644256  -116.76020417    -0.00000000     0.00000002  0.14D-12  0.43D-13  6  6   234.13    15.19
  13      1.14412026    -0.48644256  -116.76020417     0.00000000     0.00000001  0.22D-13  0.66D-14  6  2   248.87    15.17
  14      1.14412025    -0.48644256  -116.76020417    -0.00000000     0.00000000  0.30D-14  0.13D-14  6  1   263.45    15.14
  15      1.14412025    -0.48644256  -116.76020417    -0.00000000    -0.00000000  0.35D-15  0.17D-15  6  3   278.54    15.16
  16      1.14412025    -0.48644256  -116.76020417     0.00000000    -0.00000000  0.65D-16  0.25D-16  6  4   293.78    15.18
  17      1.14412025    -0.48644256  -116.76020417     0.00000000    -0.00000000  0.17D-16  0.49D-17  6  5   308.97    15.20

 Norm of t1 vector:      0.05050967      S-energy:     0.00000000      T1 diagnostic:  0.00892893
                                                                       D1 diagnostic:  0.01896699

 Adding energy correction from Wij-K(Fij), methodcc=6  factor= 1.0

  CCSD correlation energy              -0.486442560898
  MP2-F12 correction (uncoupled)       -0.045355751301
  C*T doubles correction               -0.000608177485
  f12b correction                       0.008419867134


 Total CPU time for triples:    231.64 sec

  Ecorr(MP2)                           -0.471204874888
  Ecorr(MP2-F12)                       -0.516817335939
  Scale factor for triples energy       1.096799637444


 RESULTS
 =======

  Reference energy                   -116.271372903871
  F12 singles correction               -0.002388702775

 F12 singles corrections added to reference energy

  New reference energy               -116.273761606646

  F12a singlet correction              -0.040284982095
  F12a triplet correction              -0.005678946692
  F12a total correction                -0.045963928786

 F12a corrections for ansatz F12/3C(FIX) added to CCSD energy

  CCSD-F12a singlet pair energy        -0.385961282068
  CCSD-F12a triplet pair energy        -0.146445207719
  CCSD-F12a correlation energy         -0.532406489685

  Triples (T) contribution (scaled)    -0.016480870495
  Total correlation energy             -0.548887360180

  CCSD-F12a total energy             -116.806168096331
  CCSD[T]-F12a energy                -116.823239467191
  CCSD-T-F12a energy                 -116.822429522540
 !CCSD(T)-F12a total energy          -116.822648966826

 F12b corrections for ansatz F12/3C(FIX) added to CCSD(T)-F12a energy

  CCSD-F12b singlet pair energy        -0.378072869562
  CCSD-F12b triplet pair energy        -0.145913753091
  CCSD-F12b correlation energy         -0.523986622550

  Triples (T) contribution (scaled)    -0.016480870495
  Total correlation energy             -0.540467493045

  CCSD-F12b total energy             -116.797748229197
  CCSD[T]-F12b energy                -116.814819600056
  CCSD-T-F12b energy                 -116.814009655406
 !CCSD(T)-F12b total energy          -116.814229099692

 Timing summary (sec):

 STEP                 CPU(USER)    SYS     CPU(TOT)    WALL
 Transformation         23.82      1.20     25.02     25.14
 CCSD iterations       253.68      4.31    257.99    258.47
 Triples               231.64      0.94    232.58    232.92
 MP2-F12                31.49      1.31     32.80     33.10
 F12b energy            11.71      0.10     11.81     11.82

 Program statistics:

 Available memory in ccsd:              1999999554
 Min. memory needed in ccsd:               4597329
 Max. memory used in ccsd:                 5918289
 Max. memory used in cckext:               4231061 (18 integral passes)



 **********************************************************************************************************************************
 DATASETS  * FILE   NREC   LENGTH (MB)   RECORD NAMES
              1      19      398.06       500      610      700      900      950      970     1000      129      960     1100   
                                          VAR    BASINP    GEOM    SYMINP    ZMAT    AOBASIS   BASIS     P2S    ABASIS      S 
                                         1400     1410     1200     1210     1080     1600     1650     1700     1380   
                                           T        V       H0       H01     AOSYM     SMH    MOLCAS    OPER     JKOP   

              2       6        5.03       700     1000      520     2100     7360     7350   
                                         GEOM     BASIS   MCVARS     RHF    F12ABS    EF12   

 PROGRAMS   *        TOTAL   CCSD(T)    HF-SCF       INT
 CPU TIMES  *       581.94    552.55     14.42     14.73
 REAL TIME  *       599.30 SEC
 DISK USED  *       570.60 MB (local),        7.86 GB (total)
 SF USED    *         1.36 GB
 GA USED    *         4.87 MB       (max)       0.00 MB       (current)
 **********************************************************************************************************************************

 Running procedure: SET_MONOMER1

 Dummy atoms: C1  H41  H42  H43  H44


 Recomputing one-electron integrals since nuclear charges changed


 PROGRAM * SEWARD (Integral evaluation for generally contracted gaussian basis sets)     Author: Roland Lindh, 1990

 Geometry written to block  1 of record 700


 Point group  C1  



 ATOMIC COORDINATES

 NR  ATOM    CHARGE       X              Y              Z

   1  O1      8.00    0.000000000    0.000000000    0.000000000
   2  H1      1.00    0.000000000    0.000000000    1.842293999
   3  H2      1.00    0.000000000    1.780688927   -0.493596464
   4  C1      0.00   -6.193010455    2.801518980    2.403542658
   5  H41     0.00   -4.656285171    1.699997622    3.119937832
   6  H42     0.00   -5.973046335    4.726205038    2.982932688
   7  H43     0.00   -7.940251230    2.077186956    3.118237078
   8  H44     0.00   -6.176569838    2.685300823    0.384937212

 Bond lengths in Bohr (Angstrom)

 1-2  1.842293999  1-3  1.847834009  4-5  2.021904040  4-6  2.022002335  4-7  2.021953343
     ( 0.974900000)     ( 0.977831647)     ( 1.069945541)     ( 1.069997556)     ( 1.069971630)

 4-8  2.022015060
     ( 1.070004290)

 Bond angles

  2-1-3  105.49305961   5-4-6  109.53398059   5-4-7  109.65604535   5-4-8  108.43490854

  6-4-7  109.49436728   6-4-8  109.86987750   7-4-8  109.83468330

 NUCLEAR CHARGE:                   10
 NUMBER OF PRIMITIVE AOS:         296
 NUMBER OF SYMMETRY AOS:          266
 NUMBER OF CONTRACTIONS:          230   (  230A   )
 NUMBER OF CORE ORBITALS:           1   (    1A   )
 NUMBER OF VALENCE ORBITALS:        6   (    6A   )

 MOLECULE CHANGED: INITIALIZING OCCUPATION AND DUMP RECORDS


 NUCLEAR REPULSION ENERGY    9.01226390

 Basis set:  JKFIT                   
 Basis size:   740
 Attributes:
 Sphericals:   T
 Basis set:  MP2FIT                  
 Basis size:   816
 Attributes:
 Sphericals:   T
 Basis set:  RI                      
 Basis size:   556
 Attributes:
 Sphericals:   T
 Basis set:  TDDFT                   
 Basis size:   816
 Attributes:
 Sphericals:   T

 Eigenvalues of metric

         1 0.627E-04 0.796E-04 0.896E-04 0.102E-03 0.333E-03 0.375E-03 0.624E-03 0.703E-03


 Contracted 2-electron integrals neglected if value below      1.0D-14

 OPERATOR DM      FOR CENTER  0  COORDINATES:    0.000000    0.000000    0.000000


 **********************************************************************************************************************************
 DATASETS  * FILE   NREC   LENGTH (MB)   RECORD NAMES
              1      18       32.04       500      610      700      900      950      970     1000      129      960     1100   
                                          VAR    BASINP    GEOM    SYMINP    ZMAT    AOBASIS   BASIS     P2S    ABASIS      S 
                                         1400     1410     1200     1210     1080     1600     1650     1700   
                                           T        V       H0       H01     AOSYM     SMH    MOLCAS    OPER   

              2       7        5.05       700     1000      520     2100     7360     7350      200   
                                         GEOM     BASIS   MCVARS     RHF    F12ABS    EF12    OPTIONS    

 PROGRAMS   *        TOTAL       INT   CCSD(T)    HF-SCF       INT
 CPU TIMES  *       582.18      0.23    552.55     14.42     14.73
 REAL TIME  *       600.16 SEC
 DISK USED  *       570.60 MB (local),        7.86 GB (total)
 SF USED    *         1.36 GB
 GA USED    *         4.87 MB       (max)       0.00 MB       (current)
 **********************************************************************************************************************************


 PROGRAM * RHF-SCF (CLOSED SHELL)       Authors: W. Meyer, H.-J. Werner


 NUMBER OF ELECTRONS:       5+    5-    SPACE SYMMETRY=1    SPIN SYMMETRY: Singlet 
 CONVERGENCE THRESHOLDS:    1.00E-08 (Density)    1.00E-11 (Energy)
 MAX. NUMBER OF ITERATIONS:       60
 INTERPOLATION TYPE:            DIIS
 INTERPOLATION STEPS:              2 (START)      1 (STEP)
 LEVEL SHIFTS:                  0.00 (CLOSED)  0.00 (OPEN) 



 Orbital guess generated from atomic densities. Full valence occupancy:    7

 Molecular orbital dump at record        2101.2

 Initial occupancy:   5

 ITERATION    DDIFF          GRAD             ENERGY        2-EL.EN.            DIPOLE MOMENTS         DIIS   ORB.
    1      0.000D+00      0.000D+00       -76.02057578     77.398610    0.00021    0.91371    0.69091    0    start
    2      0.000D+00      0.640D-02       -76.04718705     73.775794    0.00035    0.53236    0.40378    1    diag
    3      0.445D-02      0.407D-02       -76.05848652     75.376099    0.00030    0.62660    0.47497    2    diag
    4      0.161D-02      0.375D-03       -76.05867639     75.286815    0.00030    0.62293    0.47242    3    diag
    5      0.206D-03      0.104D-03       -76.05869611     75.300851    0.00030    0.62153    0.47146    4    diag
    6      0.647D-04      0.202D-04       -76.05869732     75.299991    0.00030    0.62127    0.47128    5    diag
    7      0.170D-04      0.398D-05       -76.05869738     75.300118    0.00030    0.62116    0.47121    6    diag
    8      0.470D-05      0.740D-06       -76.05869738     75.300103    0.00030    0.62113    0.47119    7    diag
    9      0.788D-06      0.942D-07       -76.05869738     75.300094    0.00030    0.62113    0.47119    8    diag
   10      0.884D-07      0.231D-07       -76.05869738     75.300098    0.00030    0.62113    0.47119    9    orth
   11      0.225D-07      0.414D-08       -76.05869738     75.300097    0.00030    0.62113    0.47119    9    diag
   12      0.451D-08      0.603D-09       -76.05869738     75.300097    0.00030    0.62113    0.47119    0    orth

 Final occupancy:   5

 !RHF STATE  1.1 Energy               -76.058697380005
 Nuclear energy                         9.01226390
 One-electron energy                 -122.72100987
 Two-electron energy                   37.65004860
 Virial quotient                       -1.00231306
 !RHF STATE  1.1 Dipole moment          0.00030295     0.62112796     0.47118734
 Dipole moment /Debye                   0.00076998     1.57864639     1.19756033

 Orbital energies:

         1.1          2.1          3.1          4.1          5.1          6.1          7.1
    -20.570065    -1.343240    -0.709280    -0.579361    -0.508510     0.019643     0.039677


 HOMO      5.1    -0.508510 =     -13.8373eV
 LUMO      6.1     0.019643 =       0.5345eV
 LUMO-HOMO         0.528153 =      14.3718eV


 **********************************************************************************************************************************
 DATASETS  * FILE   NREC   LENGTH (MB)   RECORD NAMES
              1      18       32.04       500      610      700      900      950      970     1000      129      960     1100   
                                          VAR    BASINP    GEOM    SYMINP    ZMAT    AOBASIS   BASIS     P2S    ABASIS      S 
                                         1400     1410     1200     1210     1080     1600     1650     1700   
                                           T        V       H0       H01     AOSYM     SMH    MOLCAS    OPER   

              2       8        9.09       700     1000      520     2100     7360     7350      200     2101   
                                         GEOM     BASIS   MCVARS     RHF    F12ABS    EF12    OPTIONS    RHF  

 PROGRAMS   *        TOTAL    HF-SCF       INT   CCSD(T)    HF-SCF       INT
 CPU TIMES  *       595.40     13.21      0.23    552.55     14.42     14.73
 REAL TIME  *       615.08 SEC
 DISK USED  *       570.60 MB (local),        7.86 GB (total)
 SF USED    *         1.36 GB
 GA USED    *         4.87 MB       (max)       0.00 MB       (current)
 **********************************************************************************************************************************

 Basis set:  JKFIT                   
 Basis size:   740
 Attributes:
 Sphericals:   T
 Basis set:  MP2FIT                  
 Basis size:   816
 Attributes:
 Sphericals:   T
 Basis set:  RI                      
 Basis size:   556
 Attributes:
 Sphericals:   T
 Basis set:  TDDFT                   
 Basis size:   816
 Attributes:
 Sphericals:   T

 PROGRAM * CCSD (Closed-shell coupled cluster)     Authors: C. Hampel, H.-J. Werner, 1991, M. Deegan, P.J. Knowles, 1992

                                  CCSD-F12 implementation by  H.-J. Werner, 2007

                   Density fitting integral evaluation by F.R. Manby, 2003,2007, G. Knizia, 2010



 Convergence thresholds:  THRVAR = 1.00D-08  THRDEN = 1.00D-10

 CCSD(T)     terms to be evaluated (factor= 1.000)


 Number of core orbitals:           1 (   1 )
 Number of closed-shell orbitals:   4 (   4 )
 Number of external orbitals:     225 ( 225 )

 Molecular orbitals read from record     2101.2  Type=RHF/CANONICAL (state 1.1)

 MP2-F12 correlation treatment (H.-J. Werner, 2006)
 ==================================================

 Using MP2-F12 with ansatz 3C(FIX)

 Using projected zeroth-order Hamiltonian (+Z)

 FOCKRIB=T FOCKRIC=T FOCKRIP=T CABSP=T CABSA=T CABSK=T CABSF=T GBC=F EBC=F DMAT=T NOFIK=T NOPAO=1 SOLVE=-1  USEPAO=0
 EXCH_A= T EXCH_B= F EXCH_C= F EXCH_P= F

 Geminal basis:    OPTFULL  GEM_TYPE=SLATER  BETA=1.0  NGEM=6

 Optimizing Gaussian exponents for each gem_beta

 Geminal optimization for beta= 1.0000
 Weight function:   m=0, omega= 1.4646

 Augmented Hessian optimization of geminal fit. Trust ratio= 0.40000
 Convergence reached after   2 iterations. Final gradient= 8.31D-16, Step= 4.24D-06, Delta= 1.28D-09

 Alpha:                 0.19532     0.81920     2.85917     9.50073    35.69989   197.79328
 Coeff:                 0.27070     0.30552     0.18297     0.10986     0.06810     0.04224


 All pairs explicitly correlated. Number of r12-pairs:           10

 Excluding core orbitals from MO domains

 AO(A)-basis ORBITAL           loaded. Number of functions:     230
 RI(R)-basis RI                loaded. Number of functions:     556
 DF-basis JKFIT                loaded. Number of functions:     740

 Screening thresholds:   THRAO=  1.00D-10  THRMO=  1.00D-09  THRPROD=  1.00D-09
                         THRSW=  1.00D-05  THROV=  1.00D-12  THRAOF12= 1.00D-10

 CPU time for Fock operators                      3.08 sec

 Construction of ABS:
 Smallest eigenvalue of S          1.17E-04  (threshold= 1.00E-08)
 Ratio eigmin/eigmax               1.66E-05  (threshold= 1.00E-09)
 Smallest eigenvalue of S kept     1.17E-04  (threshold= 1.17E-04, 0 functions deleted, 556 kept)

 Construction of CABS:
 Smallest eigenvalue of S          6.64E-07  (threshold= 1.00E-08)
 Ratio eigmin/eigmax               6.64E-07  (threshold= 1.00E-09)
 Smallest eigenvalue of S kept     6.64E-07  (threshold= 6.64E-07, 0 functions deleted, 556 kept)

 CPU time for CABS singles                        0.69 sec

 CABS-singles contribution of  -0.00147850 patched into reference energy.
 New reference energy         -76.06017588

 AO(A)-basis ORBITAL           loaded. Number of functions:     230
 RI(R)-basis RI                loaded. Number of functions:     556
 DF-basis MP2FIT               loaded. Number of functions:     816

 Screening thresholds:   THRAO=  1.00D-10  THRMO=  1.00D-09  THRPROD=  1.00D-09
                         THRSW=  1.00D-05  THROV=  1.00D-12  THRAOF12= 1.00D-10

 CPU time for 3-index integral evaluation         5.40 sec
 CPU time for first  half transformation          0.64 sec ( 2265.5 MFLOP/sec)
 CPU time for sorting                             0.03 sec
 CPU time for fitting                             0.32 sec (  957.2 MFLOP/sec)
 CPU time for tilde quantities                    0.40 sec ( 1564.8 MFLOP/sec)
 CPU time for assembly                            1.37 sec ( 4198.5 MFLOP/sec)
 CPU time for tranop_f12                          1.23 sec ( 3558.2 MFLOP/sec)
 CPU time for f12 integrals (total)              11.74 sec, Elapsed time:     12.08 sec
 F12-matrices built in  4 passes.
 F12-matrices built in  4 passes.
 F12-matrices built in  4 passes.
 F12-matrices built in  4 passes.
 FC-matrix built in  4 passes.
 CPU time for f12 matrices (total)                0.28 sec, Elapsed time:      0.29 sec

 Diagonal F12 approximation with fixed coefficients:  TSING= 0.500,  TTRIP= 0.250 (scaled by -1/beta)

 DF-MP2-F12 energy corrections:
 ==============================
 Approx.                                    Singlet             Triplet             Total
 DF-MP2-F12/3*C(DX,FIX)                -0.029506243350     -0.004869953348     -0.034376196697
 DF-MP2-F12/3*C(FIX)                   -0.024428114460     -0.003815066124     -0.028243180584
 DF-MP2-F12/3C(FIX)                    -0.024558933606     -0.003788321382     -0.028347254987

 DF-MP2-F12 correlation energies:
 ================================
 Approx.                                    Singlet             Triplet             Ecorr            Total Energy
 DF-MP2                                -0.171695496596     -0.098220401351     -0.269915897948    -76.330091777987
 DF-MP2-F12/3*C(DX,FIX)                -0.201201739946     -0.103090354699     -0.304292094645    -76.364467974685
 DF-MP2-F12/3*C(FIX)                   -0.196123611056     -0.102035467476     -0.298159078532    -76.358334958571
 DF-MP2-F12/3C(FIX)                    -0.196254430202     -0.102008722733     -0.298263152935    -76.358439032975

 SCS-DF-MP2 energies (F_SING= 1.20000  F_TRIP= 0.62222  F_PARALLEL= 0.33333):
 ============================================================================
 SCS-DF-MP2                            -0.267149512312    -76.327325392352
 SCS-DF-MP2-F12/3*C(DX,FIX)            -0.305587197526    -76.365763077565
 SCS-DF-MP2-F12/3*C(FIX)               -0.298837068585    -76.359012948625
 SCS-DF-MP2-F12/3C(FIX)                -0.298977410388    -76.359153290427
 Symmetry transformation completed.

 Number of N-1 electron functions:               4
 Number of N-2 electron functions:              10
 Number of singly external CSFs:               900
 Number of doubly external CSFs:            405450
 Total number of CSFs:                      406351

 Pair and operator lists are different

 Length of J-op  integral file:              81.60 MB
 Length of K-op  integral file:             128.10 MB
 Length of 3-ext integral record:             0.00 MB

 Memory could be reduced to 75.63 Mwords without degradation in triples

 Integral transformation finished. Total CPU:  12.24 sec, npass=  1  Memory used:  32.52 MW

 Reference energy:                    -76.06017588

 Adding F12 terms to K(Cij), methodcc=6,  factor= 1.0

 ITER.      SQ.NORM     CORR.ENERGY   TOTAL ENERGY   ENERGY CHANGE        DEN1      VAR(S)    VAR(P)  DIIS     TIME  TIME/IT
   1      1.06220973    -0.26954413   -76.32972001     0.00037925     0.00629954  0.78D-03  0.10D-02  1  1    33.57     3.99
   2      1.06561736    -0.26921980   -76.32939568     0.00032433    -0.00461716  0.13D-04  0.11D-03  2  2    37.55     4.08
   3      1.06684585    -0.26934054   -76.32951642    -0.00012074    -0.00082223  0.92D-05  0.59D-05  3  3    41.42     4.08
   4      1.06733211    -0.26937735   -76.32955323    -0.00003680    -0.00027450  0.42D-06  0.65D-06  4  4    45.42     4.10
   5      1.06742417    -0.26937449   -76.32955037     0.00000285    -0.00002847  0.16D-06  0.46D-07  5  5    49.38     4.11
   6      1.06745535    -0.26937239   -76.32954827     0.00000210    -0.00000435  0.17D-07  0.37D-08  6  6    53.35     4.13
   7      1.06746318    -0.26937211   -76.32954799     0.00000029    -0.00000157  0.14D-08  0.84D-09  6  2    57.33     4.13
   8      1.06746479    -0.26937199   -76.32954787     0.00000012    -0.00000005  0.25D-09  0.87D-10  6  1    61.25     4.13
   9      1.06746522    -0.26937205   -76.32954793    -0.00000006     0.00000010  0.48D-10  0.22D-10  6  2    65.14     4.13
  10      1.06746555    -0.26937204   -76.32954792     0.00000001    -0.00000002  0.34D-11  0.13D-11  6  3    69.02     4.12
  11      1.06746554    -0.26937205   -76.32954793    -0.00000000     0.00000003  0.70D-12  0.23D-12  6  4    72.90     4.11
  12      1.06746553    -0.26937205   -76.32954793    -0.00000000     0.00000000  0.12D-12  0.33D-13  6  5    76.84     4.11
  13      1.06746553    -0.26937205   -76.32954793     0.00000000     0.00000000  0.18D-13  0.49D-14  6  6    80.74     4.11
  14      1.06746552    -0.26937205   -76.32954793    -0.00000000     0.00000000  0.25D-14  0.10D-14  6  2    84.70     4.11
  15      1.06746552    -0.26937205   -76.32954793    -0.00000000     0.00000000  0.44D-15  0.18D-15  6  1    88.63     4.11
  16      1.06746552    -0.26937205   -76.32954793    -0.00000000     0.00000000  0.35D-16  0.15D-16  6  3    92.60     4.11
  17      1.06746552    -0.26937205   -76.32954793    -0.00000000     0.00000000  0.22D-17  0.29D-17  6  4    96.54     4.11

 Norm of t1 vector:      0.03689818      S-energy:     0.00000000      T1 diagnostic:  0.00922454
                                                                       D1 diagnostic:  0.01834115

 Adding energy correction from Wij-K(Fij), methodcc=6  factor= 1.0

  CCSD correlation energy              -0.269372046115
  MP2-F12 correction (uncoupled)       -0.028082966171
  C*T doubles correction               -0.000412426482
  f12b correction                       0.004756462857


 Total CPU time for triples:     35.62 sec

  Ecorr(MP2)                           -0.269923377128
  Ecorr(MP2-F12)                       -0.298270632115
  Scale factor for triples energy       1.105019636643


 RESULTS
 =======

  Reference energy                    -76.058697380004
  F12 singles correction               -0.001478500036

 F12 singles corrections added to reference energy

  New reference energy                -76.060175880039

  F12a singlet correction              -0.024636510328
  F12a triplet correction              -0.003858882326
  F12a total correction                -0.028495392654

 F12a corrections for ansatz F12/3C(FIX) added to CCSD energy

  CCSD-F12a singlet pair energy        -0.207275930905
  CCSD-F12a triplet pair energy        -0.090591507887
  CCSD-F12a correlation energy         -0.297867438768

  Triples (T) contribution (scaled)    -0.009525682772
  Total correlation energy             -0.307393121540

  CCSD-F12a total energy              -76.358043318808
  CCSD[T]-F12a energy                 -76.367914938034
  CCSD-T-F12a energy                  -76.367426931149
 !CCSD(T)-F12a total energy           -76.367569001580

 F12b corrections for ansatz F12/3C(FIX) added to CCSD(T)-F12a energy

  CCSD-F12b singlet pair energy        -0.202878021643
  CCSD-F12b triplet pair energy        -0.090232954292
  CCSD-F12b correlation energy         -0.293110975911

  Triples (T) contribution (scaled)    -0.009525682772
  Total correlation energy             -0.302636658683

  CCSD-F12b total energy              -76.353286855951
  CCSD[T]-F12b energy                 -76.363158475176
  CCSD-T-F12b energy                  -76.362670468292
 !CCSD(T)-F12b total energy           -76.362812538723

 Timing summary (sec):

 STEP                 CPU(USER)    SYS     CPU(TOT)    WALL
 Transformation         12.29      0.50     12.79     12.81
 CCSD iterations        66.86      2.98     69.84     69.93
 Triples                35.62      0.16     35.78     35.83
 MP2-F12                17.41      0.46     17.87     17.89
 F12b energy             3.30      0.17      3.47      3.48

 Program statistics:

 Available memory in ccsd:              1999999871
 Min. memory needed in ccsd:               1862772
 Max. memory used in ccsd:                 2158322
 Max. memory used in cckext:               1445635 (18 integral passes)



 **********************************************************************************************************************************
 DATASETS  * FILE   NREC   LENGTH (MB)   RECORD NAMES
              1      19      222.31       500      610      700      900      950      970     1000      129      960     1100   
                                          VAR    BASINP    GEOM    SYMINP    ZMAT    AOBASIS   BASIS     P2S    ABASIS      S 
                                         1400     1410     1200     1210     1080     1600     1650     1700     1380   
                                           T        V       H0       H01     AOSYM     SMH    MOLCAS    OPER     JKOP   

              2       8        9.09       700     1000      520     2100     7360     7350      200     2101   
                                         GEOM     BASIS   MCVARS     RHF    F12ABS    EF12    OPTIONS    RHF  

 PROGRAMS   *        TOTAL   CCSD(T)    HF-SCF       INT   CCSD(T)    HF-SCF       INT
 CPU TIMES  *       731.11    135.71     13.21      0.23    552.55     14.42     14.73
 REAL TIME  *       755.79 SEC
 DISK USED  *       570.60 MB (local),        7.86 GB (total)
 SF USED    *         1.36 GB
 GA USED    *         4.87 MB       (max)       0.00 MB       (current)
 **********************************************************************************************************************************

 Running procedure: SET_MONOMER2

 Dummy atoms: O1  H1  H2


 Recomputing one-electron integrals since nuclear charges changed


 PROGRAM * SEWARD (Integral evaluation for generally contracted gaussian basis sets)     Author: Roland Lindh, 1990

 Geometry written to block  1 of record 700


 Point group  C1  



 ATOMIC COORDINATES

 NR  ATOM    CHARGE       X              Y              Z

   1  O1      0.00    0.000000000    0.000000000    0.000000000
   2  H1      0.00    0.000000000    0.000000000    1.842293999
   3  H2      0.00    0.000000000    1.780688927   -0.493596464
   4  C1      6.00   -6.193010455    2.801518980    2.403542658
   5  H41     1.00   -4.656285171    1.699997622    3.119937832
   6  H42     1.00   -5.973046335    4.726205038    2.982932688
   7  H43     1.00   -7.940251230    2.077186956    3.118237078
   8  H44     1.00   -6.176569838    2.685300823    0.384937212

 Bond lengths in Bohr (Angstrom)

 1-2  1.842293999  1-3  1.847834009  4-5  2.021904040  4-6  2.022002335  4-7  2.021953343
     ( 0.974900000)     ( 0.977831647)     ( 1.069945541)     ( 1.069997556)     ( 1.069971630)

 4-8  2.022015060
     ( 1.070004290)

 Bond angles

  2-1-3  105.49305961   5-4-6  109.53398059   5-4-7  109.65604535   5-4-8  108.43490854

  6-4-7  109.49436728   6-4-8  109.86987750   7-4-8  109.83468330

 NUCLEAR CHARGE:                   10
 NUMBER OF PRIMITIVE AOS:         296
 NUMBER OF SYMMETRY AOS:          266
 NUMBER OF CONTRACTIONS:          230   (  230A   )
 NUMBER OF CORE ORBITALS:           1   (    1A   )
 NUMBER OF VALENCE ORBITALS:        8   (    8A   )

 MOLECULE CHANGED: INITIALIZING OCCUPATION AND DUMP RECORDS


 NUCLEAR REPULSION ENERGY   13.68681606

 Basis set:  JKFIT                   
 Basis size:   740
 Attributes:
 Sphericals:   T
 Basis set:  MP2FIT                  
 Basis size:   816
 Attributes:
 Sphericals:   T
 Basis set:  RI                      
 Basis size:   556
 Attributes:
 Sphericals:   T
 Basis set:  TDDFT                   
 Basis size:   816
 Attributes:
 Sphericals:   T

 Eigenvalues of metric

         1 0.627E-04 0.796E-04 0.896E-04 0.102E-03 0.333E-03 0.375E-03 0.624E-03 0.703E-03


 Contracted 2-electron integrals neglected if value below      1.0D-14

 OPERATOR DM      FOR CENTER  0  COORDINATES:    0.000000    0.000000    0.000000


 **********************************************************************************************************************************
 DATASETS  * FILE   NREC   LENGTH (MB)   RECORD NAMES
              1      18       32.04       500      610      700      900      950      970     1000      129      960     1100   
                                          VAR    BASINP    GEOM    SYMINP    ZMAT    AOBASIS   BASIS     P2S    ABASIS      S 
                                         1400     1410     1200     1210     1080     1600     1650     1700   
                                           T        V       H0       H01     AOSYM     SMH    MOLCAS    OPER   

              2       8        9.09       700     1000      520     2100     7360     7350      200     2101   
                                         GEOM     BASIS   MCVARS     RHF    F12ABS    EF12    OPTIONS    RHF  

 PROGRAMS   *        TOTAL       INT   CCSD(T)    HF-SCF       INT   CCSD(T)    HF-SCF       INT
 CPU TIMES  *       731.32      0.21    135.71     13.21      0.23    552.55     14.42     14.73
 REAL TIME  *       756.57 SEC
 DISK USED  *       570.60 MB (local),        7.86 GB (total)
 SF USED    *         1.36 GB
 GA USED    *         4.87 MB       (max)       0.00 MB       (current)
 **********************************************************************************************************************************


 PROGRAM * RHF-SCF (CLOSED SHELL)       Authors: W. Meyer, H.-J. Werner


 NUMBER OF ELECTRONS:       5+    5-    SPACE SYMMETRY=1    SPIN SYMMETRY: Singlet 
 CONVERGENCE THRESHOLDS:    1.00E-08 (Density)    1.00E-11 (Energy)
 MAX. NUMBER OF ITERATIONS:       60
 INTERPOLATION TYPE:            DIIS
 INTERPOLATION STEPS:              2 (START)      1 (STEP)
 LEVEL SHIFTS:                  0.00 (CLOSED)  0.00 (OPEN) 



 Orbital guess generated from atomic densities. Full valence occupancy:    9

 Molecular orbital dump at record        2102.2

 Initial occupancy:   5

 ITERATION    DDIFF          GRAD             ENERGY        2-EL.EN.            DIPOLE MOMENTS         DIIS   ORB.
    1      0.000D+00      0.000D+00       -40.19358787     53.494047    0.00410   -0.00276   -0.00129    0    start
    2      0.000D+00      0.353D-02       -40.21070537     52.213686    0.00129   -0.00088   -0.00037    1    diag
    3      0.324D-02      0.137D-02       -40.21295383     52.664858    0.00182   -0.00124   -0.00054    2    diag
    4      0.903D-03      0.342D-03       -40.21326929     52.609832    0.00162   -0.00110   -0.00047    3    diag
    5      0.299D-03      0.444D-04       -40.21327469     52.612170    0.00159   -0.00108   -0.00046    4    diag
    6      0.819D-04      0.345D-05       -40.21327473     52.612268    0.00159   -0.00108   -0.00046    5    diag
    7      0.681D-05      0.264D-06       -40.21327473     52.612233    0.00159   -0.00108   -0.00046    6    diag
    8      0.997D-06      0.221D-07       -40.21327473     52.612234    0.00159   -0.00108   -0.00046    7    diag
    9      0.188D-06      0.283D-08       -40.21327473     52.612234    0.00159   -0.00108   -0.00046    8    diag
   10      0.105D-07      0.791D-09       -40.21327473     52.612234    0.00159   -0.00108   -0.00046    9    orth
   11      0.121D-08      0.106D-09       -40.21327473     52.612234    0.00159   -0.00108   -0.00046    0    orth

 Final occupancy:   5

 !RHF STATE  1.1 Energy               -40.213274727345
 Nuclear energy                        13.68681606
 One-electron energy                  -80.20620774
 Two-electron energy                   26.30611695
 Virial quotient                       -0.99870092
 !RHF STATE  1.1 Dipole moment          0.00159242    -0.00108110    -0.00046336
 Dipole moment /Debye                   0.00404726    -0.00274769    -0.00117766

 Orbital energies:

         1.1          2.1          3.1          4.1          5.1          6.1          7.1
    -11.197210    -0.950741    -0.551695    -0.549760    -0.547582     0.027559     0.041725


 HOMO      5.1    -0.547582 =     -14.9005eV
 LUMO      6.1     0.027559 =       0.7499eV
 LUMO-HOMO         0.575140 =      15.6504eV


 **********************************************************************************************************************************
 DATASETS  * FILE   NREC   LENGTH (MB)   RECORD NAMES
              1      18       32.04       500      610      700      900      950      970     1000      129      960     1100   
                                          VAR    BASINP    GEOM    SYMINP    ZMAT    AOBASIS   BASIS     P2S    ABASIS      S 
                                         1400     1410     1200     1210     1080     1600     1650     1700   
                                           T        V       H0       H01     AOSYM     SMH    MOLCAS    OPER   

              2       9       13.71       700     1000      520     2100     7360     7350      200     2101     2102   
                                         GEOM     BASIS   MCVARS     RHF    F12ABS    EF12    OPTIONS    RHF      RHF  

 PROGRAMS   *        TOTAL    HF-SCF       INT   CCSD(T)    HF-SCF       INT   CCSD(T)    HF-SCF       INT
 CPU TIMES  *       743.49     12.17      0.21    135.71     13.21      0.23    552.55     14.42     14.73
 REAL TIME  *       770.28 SEC
 DISK USED  *       570.60 MB (local),        7.86 GB (total)
 SF USED    *         1.36 GB
 GA USED    *         4.87 MB       (max)       0.00 MB       (current)
 **********************************************************************************************************************************

 Basis set:  JKFIT                   
 Basis size:   740
 Attributes:
 Sphericals:   T
 Basis set:  MP2FIT                  
 Basis size:   816
 Attributes:
 Sphericals:   T
 Basis set:  RI                      
 Basis size:   556
 Attributes:
 Sphericals:   T
 Basis set:  TDDFT                   
 Basis size:   816
 Attributes:
 Sphericals:   T

 PROGRAM * CCSD (Closed-shell coupled cluster)     Authors: C. Hampel, H.-J. Werner, 1991, M. Deegan, P.J. Knowles, 1992

                                  CCSD-F12 implementation by  H.-J. Werner, 2007

                   Density fitting integral evaluation by F.R. Manby, 2003,2007, G. Knizia, 2010



 Convergence thresholds:  THRVAR = 1.00D-08  THRDEN = 1.00D-10

 CCSD(T)     terms to be evaluated (factor= 1.000)


 Number of core orbitals:           1 (   1 )
 Number of closed-shell orbitals:   4 (   4 )
 Number of external orbitals:     225 ( 225 )

 Molecular orbitals read from record     2102.2  Type=RHF/CANONICAL (state 1.1)

 MP2-F12 correlation treatment (H.-J. Werner, 2006)
 ==================================================

 Using MP2-F12 with ansatz 3C(FIX)

 Using projected zeroth-order Hamiltonian (+Z)

 FOCKRIB=T FOCKRIC=T FOCKRIP=T CABSP=T CABSA=T CABSK=T CABSF=T GBC=F EBC=F DMAT=T NOFIK=T NOPAO=1 SOLVE=-1  USEPAO=0
 EXCH_A= T EXCH_B= F EXCH_C= F EXCH_P= F

 Geminal basis:    OPTFULL  GEM_TYPE=SLATER  BETA=1.0  NGEM=6

 Optimizing Gaussian exponents for each gem_beta

 Geminal optimization for beta= 1.0000
 Weight function:   m=0, omega= 1.4646

 Augmented Hessian optimization of geminal fit. Trust ratio= 0.40000
 Convergence reached after   2 iterations. Final gradient= 7.85D-16, Step= 4.26D-06, Delta= 1.28D-09

 Alpha:                 0.19532     0.81920     2.85917     9.50073    35.69989   197.79328
 Coeff:                 0.27070     0.30552     0.18297     0.10986     0.06810     0.04224


 All pairs explicitly correlated. Number of r12-pairs:           10

 Excluding core orbitals from MO domains

 AO(A)-basis ORBITAL           loaded. Number of functions:     230
 RI(R)-basis RI                loaded. Number of functions:     556
 DF-basis JKFIT                loaded. Number of functions:     740

 Screening thresholds:   THRAO=  1.00D-10  THRMO=  1.00D-09  THRPROD=  1.00D-09
                         THRSW=  1.00D-05  THROV=  1.00D-12  THRAOF12= 1.00D-10

 CPU time for Fock operators                      3.15 sec

 Construction of ABS:
 Smallest eigenvalue of S          1.17E-04  (threshold= 1.00E-08)
 Ratio eigmin/eigmax               1.66E-05  (threshold= 1.00E-09)
 Smallest eigenvalue of S kept     1.17E-04  (threshold= 1.17E-04, 0 functions deleted, 556 kept)

 Construction of CABS:
 Smallest eigenvalue of S          6.64E-07  (threshold= 1.00E-08)
 Ratio eigmin/eigmax               6.64E-07  (threshold= 1.00E-09)
 Smallest eigenvalue of S kept     6.64E-07  (threshold= 6.64E-07, 0 functions deleted, 556 kept)

 CPU time for CABS singles                        0.70 sec

 CABS-singles contribution of  -0.00091062 patched into reference energy.
 New reference energy         -40.21418534

 AO(A)-basis ORBITAL           loaded. Number of functions:     230
 RI(R)-basis RI                loaded. Number of functions:     556
 DF-basis MP2FIT               loaded. Number of functions:     816

 Screening thresholds:   THRAO=  1.00D-10  THRMO=  1.00D-09  THRPROD=  1.00D-09
                         THRSW=  1.00D-05  THROV=  1.00D-12  THRAOF12= 1.00D-10

 CPU time for 3-index integral evaluation         5.34 sec
 CPU time for first  half transformation          0.76 sec ( 1915.6 MFLOP/sec)
 CPU time for second half transformation          0.02 sec (  631.1 MFLOP/sec)
 CPU time for sorting                             0.01 sec
 CPU time for fitting                             0.40 sec ( 3768.7 MFLOP/sec)
 CPU time for tilde quantities                    0.43 sec ( 1471.1 MFLOP/sec)
 CPU time for assembly                            1.40 sec ( 4170.1 MFLOP/sec)
 CPU time for tranop_f12                          1.33 sec ( 3893.3 MFLOP/sec)
 CPU time for f12 integrals (total)              12.00 sec, Elapsed time:     12.39 sec
 F12-matrices built in  4 passes.
 F12-matrices built in  4 passes.
 F12-matrices built in  4 passes.
 F12-matrices built in  4 passes.
 FC-matrix built in  4 passes.
 CPU time for f12 matrices (total)                0.29 sec, Elapsed time:      0.29 sec

 Diagonal F12 approximation with fixed coefficients:  TSING= 0.500,  TTRIP= 0.250 (scaled by -1/beta)

 DF-MP2-F12 energy corrections:
 ==============================
 Approx.                                    Singlet             Triplet             Total
 DF-MP2-F12/3*C(DX,FIX)                -0.016698435981     -0.001926828484     -0.018625264465
 DF-MP2-F12/3*C(FIX)                   -0.015458879430     -0.001784697235     -0.017243576665
 DF-MP2-F12/3C(FIX)                    -0.015445756843     -0.001776036142     -0.017221792985

 DF-MP2-F12 correlation energies:
 ================================
 Approx.                                    Singlet             Triplet             Ecorr            Total Energy
 DF-MP2                                -0.145448395605     -0.055066874060     -0.200515269666    -40.414700614663
 DF-MP2-F12/3*C(DX,FIX)                -0.162146831587     -0.056993702544     -0.219140534131    -40.433325879128
 DF-MP2-F12/3*C(FIX)                   -0.160907275036     -0.056851571295     -0.217758846331    -40.431944191328
 DF-MP2-F12/3C(FIX)                    -0.160894152448     -0.056842910203     -0.217737062651    -40.431922407648

 SCS-DF-MP2 energies (F_SING= 1.20000  F_TRIP= 0.62222  F_PARALLEL= 0.33333):
 ============================================================================
 SCS-DF-MP2                            -0.208801907475    -40.422987252472
 SCS-DF-MP2-F12/3*C(DX,FIX)            -0.230038946154    -40.444224291151
 SCS-DF-MP2-F12/3*C(FIX)               -0.228463041071    -40.442648386068
 SCS-DF-MP2-F12/3C(FIX)                -0.228441904842    -40.442627249839
 Symmetry transformation completed.

 Number of N-1 electron functions:               4
 Number of N-2 electron functions:              10
 Number of singly external CSFs:               900
 Number of doubly external CSFs:            405450
 Total number of CSFs:                      406351

 Pair and operator lists are different

 Length of J-op  integral file:              81.60 MB
 Length of K-op  integral file:             128.10 MB
 Length of 3-ext integral record:             0.00 MB

 Memory could be reduced to 75.63 Mwords without degradation in triples

 Integral transformation finished. Total CPU:  12.77 sec, npass=  1  Memory used:  32.52 MW

 Reference energy:                    -40.21418534

 Adding F12 terms to K(Cij), methodcc=6,  factor= 1.0

 ITER.      SQ.NORM     CORR.ENERGY   TOTAL ENERGY   ENERGY CHANGE        DEN1      VAR(S)    VAR(P)  DIIS     TIME  TIME/IT
   1      1.06946271    -0.21558424   -40.42976959    -0.01505914    -0.00938254  0.67D-03  0.94D-03  1  1    34.46     3.94
   2      1.07448952    -0.21615228   -40.43033763    -0.00056804    -0.00524326  0.16D-04  0.83D-04  2  2    38.43     4.01
   3      1.07589754    -0.21630721   -40.43049255    -0.00015492    -0.00097974  0.20D-05  0.51D-05  3  3    42.37     4.04
   4      1.07623570    -0.21631953   -40.43050488    -0.00001233    -0.00017408  0.10D-06  0.25D-06  4  4    46.30     4.06
   5      1.07628044    -0.21631827   -40.43050362     0.00000126    -0.00000983  0.77D-08  0.17D-07  5  5    50.32     4.07
   6      1.07628631    -0.21631729   -40.43050264     0.00000098    -0.00000185  0.59D-09  0.12D-08  6  6    54.33     4.09
   7      1.07628746    -0.21631697   -40.43050232     0.00000032    -0.00000073  0.40D-10  0.99D-10  6  1    58.30     4.10
   8      1.07628748    -0.21631708   -40.43050242    -0.00000010     0.00000012  0.40D-11  0.60D-11  6  3    62.20     4.11
   9      1.07628759    -0.21631706   -40.43050241     0.00000001    -0.00000007  0.34D-12  0.50D-12  6  2    66.11     4.11
  10      1.07628760    -0.21631706   -40.43050240     0.00000000     0.00000001  0.36D-13  0.49D-13  6  4    70.10     4.11
  11      1.07628760    -0.21631706   -40.43050240     0.00000000     0.00000000  0.27D-14  0.51D-14  6  5    74.10     4.12
  12      1.07628760    -0.21631706   -40.43050240     0.00000000     0.00000000  0.57D-16  0.60D-15  6  6    78.11     4.12
  13      1.07628759    -0.21631706   -40.43050240    -0.00000000     0.00000000  0.79D-17  0.65D-16  6  1    82.10     4.13
  14      1.07628759    -0.21631706   -40.43050240    -0.00000000     0.00000000  0.15D-17  0.78D-17  6  3    86.06     4.12

 Norm of t1 vector:      0.03361804      S-energy:     0.00000000      T1 diagnostic:  0.00840451
                                                                       D1 diagnostic:  0.01339624

 Adding energy correction from Wij-K(Fij), methodcc=6  factor= 1.0

  CCSD correlation energy              -0.216317057671
  MP2-F12 correction (uncoupled)       -0.017232479805
  C*T doubles correction               -0.000193772211
  f12b correction                       0.003653433291

 Total CPU time for triples:     35.92 sec

  Ecorr(MP2)                           -0.200525099540
  Ecorr(MP2-F12)                       -0.217746892525
  Scale factor for triples energy       1.085883478053


 RESULTS
 =======

  Reference energy                    -40.213274727344
  F12 singles correction               -0.000910617653

 F12 singles corrections added to reference energy

  New reference energy                -40.214185344997

  F12a singlet correction              -0.015624518607
  F12a triplet correction              -0.001801733409
  F12a total correction                -0.017426252016

 F12a corrections for ansatz F12/3C(FIX) added to CCSD energy

  CCSD-F12a singlet pair energy        -0.178526177831
  CCSD-F12a triplet pair energy        -0.055217131882
  CCSD-F12a correlation energy         -0.233743309687

  Triples (T) contribution (scaled)    -0.006801816000
  Total correlation energy             -0.240545125686

  CCSD-F12a total energy              -40.447928654684
  CCSD[T]-F12a energy                 -40.454969624406
  CCSD-T-F12a energy                  -40.454655713599
 !CCSD(T)-F12a total energy           -40.454730470684

 F12b corrections for ansatz F12/3C(FIX) added to CCSD(T)-F12a energy

  CCSD-F12b singlet pair energy        -0.175043542853
  CCSD-F12b triplet pair energy        -0.055046333570
  CCSD-F12b correlation energy         -0.230089876396

  Triples (T) contribution (scaled)    -0.006801816000
  Total correlation energy             -0.236891692396

  CCSD-F12b total energy              -40.444275221393
  CCSD[T]-F12b energy                 -40.451316191116
  CCSD-T-F12b energy                  -40.451002280309
 !CCSD(T)-F12b total energy           -40.451077037393

 Timing summary (sec):

 STEP                 CPU(USER)    SYS     CPU(TOT)    WALL
 Transformation         12.81      0.52     13.33     13.34
 CCSD iterations        55.52      2.12     57.64     57.74
 Triples                35.92      0.14     36.06     36.11
 MP2-F12                17.74      0.48     18.22     18.25
 F12b energy             3.32      0.15      3.47      3.47

 Program statistics:

 Available memory in ccsd:              1999999866
 Min. memory needed in ccsd:               1862772
 Max. memory used in ccsd:                 2158322
 Max. memory used in cckext:               1445635 (15 integral passes)



 **********************************************************************************************************************************
 DATASETS  * FILE   NREC   LENGTH (MB)   RECORD NAMES
              1      19      222.31       500      610      700      900      950      970     1000      129      960     1100   
                                          VAR    BASINP    GEOM    SYMINP    ZMAT    AOBASIS   BASIS     P2S    ABASIS      S 
                                         1400     1410     1200     1210     1080     1600     1650     1700     1380   
                                           T        V       H0       H01     AOSYM     SMH    MOLCAS    OPER     JKOP   

              2       9       13.71       700     1000      520     2100     7360     7350      200     2101     2102   
                                         GEOM     BASIS   MCVARS     RHF    F12ABS    EF12    OPTIONS    RHF      RHF  

 PROGRAMS   *        TOTAL   CCSD(T)    HF-SCF       INT   CCSD(T)    HF-SCF       INT   CCSD(T)    HF-SCF       INT
 CPU TIMES  *       869.04    125.55     12.17      0.21    135.71     13.21      0.23    552.55     14.42     14.73
 REAL TIME  *       899.99 SEC
 DISK USED  *       570.60 MB (local),        7.86 GB (total)
 SF USED    *         1.36 GB
 GA USED    *         4.87 MB       (max)       0.00 MB       (current)
 **********************************************************************************************************************************
 Molecular orbitals read from record     2102.2  Type=RHF/CANONICAL (state 1.1)
 Occupation numbers read from record     2102.2  Type=RHF/RHF (state 1.1)
 Orbital energies read from record       2102.2  Type=RHF/CANONICAL (state 1.1)
 Redundancy group numbers read from rec  2102.2  Type=RHF/RHF (state 1.1)

 CCSD(T)-F12/aug-cc-pVTZ energy=    -40.451077037393

     CCSD(T)-F12          HF-SCF     CCSD(T)-F12          HF-SCF     CCSD(T)-F12          HF-SCF
    -40.45107704    -40.21327473    -76.36281254    -76.05869738   -116.81422910   -116.27137290
 **********************************************************************************************************************************
 Molpro calculation terminated
