
 Primary working directories    : /scratch/klimes/383147/molpro.n79N6eQx8z
 Secondary working directories  : /scratch/klimes/383147/molpro.n79N6eQx8z
 Wavefunction directory         : /scratch/klimes/383147/
 Main file repository           : /scratch/klimes/383147/molpro.n79N6eQx8z/

 id        : karlovklimes

 Nodes                      nprocs
 nc-05.cc.karlov.mff.cuni.cz    4

 Using customized tuning parameters: mindgm=1; mindgv=20; mindgc=4; mindgr=1; noblas=0; minvec=7
 default implementation of scratch files=sf  


 Variables initialized (930), CPU time= 0.01 sec
                                                                                 !gdirect
 memory,2000,m
 gthresh,orbital=1d-10,energy=1d-10,grid=1d-8
 
 symmetry,nosym
 angstrom
 geometry={
 O2        -0.069900000000     -0.226200000000      2.872700000000
 H3         0.635400000000     -0.815900000000      3.168900000000
 H4        -0.918500000000     -0.721300000000      3.072500000000
 C1        -3.277200000000      1.482500000000      1.271900000000
 H41        -2.464000000000      0.899600000000      1.651000000000
 H42        -3.160800000000      2.501000000000      1.578500000000
 H43        -4.201800000000      1.099200000000      1.650100000000
 H44        -3.268500000000      1.421000000000      0.203700000000
 }
 
 nkerna=1
 nkernb=1
 
 gf=0
 sing=1
 thrdum=1d-4
 gridthr=1d-8
 
 basis={
 set,orbital
 default,avtz
 set,jkfit
 default,avqz/jkfit
 set,mp2fit
 default,avqz/mp2fit
 set,ri
 default,avqz/optri
 set,tddft
 default,avqz/mp2fit
 }
 
 proc set_monomer1
 dummy,4,5,6,7,8
 endproc
 
 proc set_monomer2
 dummy,1,2,3
 endproc
 
                                                                                 !12 energy
 {hf,accu=1.d-16}
 {ccsd(t)-f12,df_basis=mp2fit,df_basis_exch=jkfit,ri_basis=ri,scale_trip=1,THRAOF12=1d-10}
 
 set_monomer1
 {hf,accu=1.d-16}
 {ccsd(t)-f12,df_basis=mp2fit,df_basis_exch=jkfit,ri_basis=ri,scale_trip=1,THRAOF12=1d-10}
 
 set_monomer2
 {hf,accu=1.d-16}
 {ccsd(t)-f12,df_basis=mp2fit,df_basis_exch=jkfit,ri_basis=ri,scale_trip=1,THRAOF12=1d-10}
 
 Commands  initialized (760), CPU time= 0.01 sec, 617 directives.
 Default parameters read. Elapsed time= 0.21 sec

 Checking input...
 Passed
1


                                         ***  PROGRAM SYSTEM MOLPRO  ***
                                       Copyright, TTI GmbH Stuttgart, 2015
                                    Version 2019.1 linked Jan 14 2019 13:09:19


 **********************************************************************************************************************************
 LABEL *                                                                                 
  64 bit mpp version                                                                     DATE: 11-Mar-20          TIME: 16:04:20  
 **********************************************************************************************************************************

 SHA1:             d688ac825633d238f2093ded1675ba87ccd55965
 **********************************************************************************************************************************

 THRESHOLDS:

 ZERO    =  1.00D-12  ONEINT  =  1.00D-12  TWOINT  =  1.00D-11  PREFAC  =  1.00D-14  XXXXXX  =  1.00D-09  EORDER  =  1.00D-04
 ENERGY  =  1.00D-10  ETEST   =  0.00D+00  EDENS   =  0.00D+00  THRDEDEF=  1.00D-06  GRADIENT=  1.00D-02  STEP    =  1.00D-03
 ORBITAL =  1.00D-10  CIVEC   =  1.00D-05  COEFF   =  1.00D-04  PRINTCI =  5.00D-02  PUNCHCI =  9.90D+01  OPTGRAD =  3.00D-04
 OPTENERG=  1.00D-06  OPTSTEP =  3.00D-04  THRGRAD =  1.00D-10  COMPRESS=  1.00D-11  VARMIN  =  1.00D-07  VARMAX  =  1.00D-03
 THRDOUB =  0.00D+00  THRDIV  =  1.00D-05  THRRED  =  1.00D-07  THRPSP  =  1.00D+00  THRDC   =  1.00D-10  THRCS   =  1.00D-10
 THRNRM  =  1.00D-08  THREQ   =  0.00D+00  THRDE   =  1.00D+00  THRREF  =  1.00D-05  SPARFAC =  1.00D+00  THRDLP  =  1.00D-07
 THRDIA  =  1.00D-10  THRDLS  =  1.00D-07  THRGPS  =  0.00D+00  THRKEX  =  0.00D+00  THRDIS  =  2.00D-01  THRVAR  =  1.00D-10
 THRLOC  =  1.00D-06  THRGAP  =  1.00D-06  THRLOCT = -1.00D+00  THRGAPT = -1.00D+00  THRORB  =  1.00D-06  THRMLTP =  0.00D+00
 THRCPQCI=  1.00D-10  KEXTA   =  0.00D+00  THRCOARS=  0.00D+00  SYMTOL  =  1.00D-06  GRADTOL =  1.00D-06  THROVL  =  1.00D-08
 THRORTH =  1.00D-08  GRID    =  1.00D-08  GRIDMAX =  1.00D-03  DTMAX   =  0.00D+00  THROCCDE=  1.00D-01  THROCCDE=  1.00D-01
 THRPRINT=  2.50D-01


 Variable memory set to 2000000000 words,  buffer space 

 ZSYMEL=NOSYM
 ZUNIT=ANG


Geometry recognized as XYZ

 SETTING NKERNA         =         1.00000000                                  
 SETTING NKERNB         =         1.00000000                                  
 SETTING GF             =     0.00000000D+00                                  
 SETTING SING           =         1.00000000                                  
 SETTING THRDUM         =     1.00000000D-04                                  
 SETTING GRIDTHR        =     1.00000000D-08                                  
 SETTING BASIS          =    AVTZ


 Recomputing integrals since basis changed


 Using spherical harmonics

 Library entry O      S aug-cc-pVTZ          selected for orbital group  1
 Library entry O      P aug-cc-pVTZ          selected for orbital group  1
 Library entry O      D aug-cc-pVTZ          selected for orbital group  1
 Library entry O      F aug-cc-pVTZ          selected for orbital group  1
 Library entry H      S aug-cc-pVTZ          selected for orbital group  2
 Library entry H      P aug-cc-pVTZ          selected for orbital group  2
 Library entry H      D aug-cc-pVTZ          selected for orbital group  2
 Library entry C      S aug-cc-pVTZ          selected for orbital group  3
 Library entry C      P aug-cc-pVTZ          selected for orbital group  3
 Library entry C      D aug-cc-pVTZ          selected for orbital group  3
 Library entry C      F aug-cc-pVTZ          selected for orbital group  3


 PROGRAM * SEWARD (Integral evaluation for generally contracted gaussian basis sets)     Author: Roland Lindh, 1990

 Geometry written to block  1 of record 700


 Point group  C1  



 ATOMIC COORDINATES

 NR  ATOM    CHARGE       X              Y              Z

   1  O2      8.00   -0.132091856   -0.427456049    5.428616238
   2  H3      1.00    1.200731980   -1.541827545    5.988353116
   3  H4      1.00   -1.735713445   -1.363059454    5.806183518
   4  C1      6.00   -6.193010455    2.801518980    2.403542658
   5  H41     1.00   -4.656285171    1.699997622    3.119937832
   6  H42     1.00   -5.973046335    4.726205038    2.982932688
   7  H43     1.00   -7.940251230    2.077186956    3.118237078
   8  H44     1.00   -6.176569838    2.685300823    0.384937212

 Bond lengths in Bohr (Angstrom)

 1-2  1.825253018  1-3  1.894601009  4-5  2.021904040  4-6  2.022002335  4-7  2.021953343
     ( 0.965882301)     ( 1.002579678)     ( 1.069945541)     ( 1.069997556)     ( 1.069971630)

 4-8  2.022015060
     ( 1.070004290)

 Bond angles

  2-1-3  104.80057086   5-4-6  109.53398059   5-4-7  109.65604535   5-4-8  108.43490854

  6-4-7  109.49436728   6-4-8  109.86987750   7-4-8  109.83468330

 NUCLEAR CHARGE:                   20
 NUMBER OF PRIMITIVE AOS:         296
 NUMBER OF SYMMETRY AOS:          266
 NUMBER OF CONTRACTIONS:          230   (  230A   )
 NUMBER OF CORE ORBITALS:           2   (    2A   )
 NUMBER OF VALENCE ORBITALS:       14   (   14A   )


 NUCLEAR REPULSION ENERGY   35.86337232


 Basis set:  JKFIT                   
 Basis size:   740
 Attributes:
 Sphericals:   T
 Basis set:  MP2FIT                  
 Basis size:   816
 Attributes:
 Sphericals:   T
 Basis set:  RI                      
 Basis size:   556
 Attributes:
 Sphericals:   T
 Basis set:  TDDFT                   
 Basis size:   816
 Attributes:
 Sphericals:   T

 **********************************************************************************************************************************


 Eigenvalues of metric

         1 0.373E-04 0.777E-04 0.103E-03 0.106E-03 0.330E-03 0.341E-03 0.510E-03 0.682E-03


 Contracted 2-electron integrals neglected if value below      1.0D-14
 AO integral compression algorithm  1   Integral accuracy      1.0D-14

     2119.434 MB (compressed) written to integral file ( 66.1%)

     Node minimum: 474.218 MB, node maximum: 576.455 MB


 NUMBER OF SORTED TWO-ELECTRON INTEGRALS:   88219044.     BUFFER LENGTH:  32768
 NUMBER OF SEGMENTS:   6  SEGMENT LENGTH:   15998348      RECORD LENGTH: 524288

 Memory used in sort:      16.56 MW

 SORT1 READ   400769927. AND WROTE    79941339. INTEGRALS IN    231 RECORDS. CPU TIME:     7.54 SEC, REAL TIME:     8.65 SEC
 SORT2 READ   320179048. AND WROTE   352862895. INTEGRALS IN   7236 RECORDS. CPU TIME:     2.05 SEC, REAL TIME:     2.73 SEC

 Node minimum:    88205762.  Node maximum:    88225686. integrals

 OPERATOR DM      FOR CENTER  0  COORDINATES:    0.000000    0.000000    0.000000


 **********************************************************************************************************************************
 DATASETS  * FILE   NREC   LENGTH (MB)   RECORD NAMES
              1      18       32.04       500      610      700      900      950      970     1000      129      960     1100   
                                          VAR    BASINP    GEOM    SYMINP    ZMAT    AOBASIS   BASIS     P2S    ABASIS      S 
                                         1400     1410     1200     1210     1080     1600     1650     1700   
                                           T        V       H0       H01     AOSYM     SMH    MOLCAS    OPER   

 PROGRAMS   *        TOTAL       INT
 CPU TIMES  *        14.91     14.68
 REAL TIME  *        20.43 SEC
 DISK USED  *        32.49 MB (local),        6.05 GB (total)
 GA USED    *         0.00 MB       (max)       0.00 MB       (current)
 **********************************************************************************************************************************


 PROGRAM * RHF-SCF (CLOSED SHELL)       Authors: W. Meyer, H.-J. Werner


 NUMBER OF ELECTRONS:      10+   10-    SPACE SYMMETRY=1    SPIN SYMMETRY: Singlet 
 CONVERGENCE THRESHOLDS:    1.00E-08 (Density)    1.00E-11 (Energy)
 MAX. NUMBER OF ITERATIONS:       60
 INTERPOLATION TYPE:            DIIS
 INTERPOLATION STEPS:              2 (START)      1 (STEP)
 LEVEL SHIFTS:                  0.00 (CLOSED)  0.00 (OPEN) 



 Orbital guess generated from atomic densities. Full valence occupancy:   16

 Molecular orbital dump at record        2100.2

 Initial occupancy:  10

 ITERATION    DDIFF          GRAD             ENERGY        2-EL.EN.            DIPOLE MOMENTS         DIIS   ORB.
    1      0.000D+00      0.000D+00      -116.21195242    157.362078   -0.14324   -1.05316    0.47927    0    start
    2      0.000D+00      0.522D-02      -116.25576336    152.384473   -0.02222   -0.59486    0.27909    1    diag
    3      0.550D-02      0.308D-02      -116.26929265    154.450030   -0.05164   -0.71229    0.32951    2    diag
    4      0.185D-02      0.456D-03      -116.26995015    154.337984   -0.04904   -0.70254    0.32467    3    diag
    5      0.409D-03      0.134D-03      -116.27001858    154.333362   -0.04823   -0.70210    0.32446    4    diag
    6      0.149D-03      0.328D-04      -116.27002246    154.339252   -0.04797   -0.70136    0.32409    5    diag
    7      0.412D-04      0.644D-05      -116.27002269    154.337776   -0.04795   -0.70137    0.32408    6    diag
    8      0.115D-04      0.164D-05      -116.27002271    154.337933   -0.04791   -0.70130    0.32405    7    diag
    9      0.242D-05      0.371D-06      -116.27002271    154.337906   -0.04790   -0.70128    0.32404    8    diag
   10      0.778D-06      0.418D-07      -116.27002271    154.337907   -0.04790   -0.70128    0.32404    9    orth
   11      0.661D-07      0.103D-07      -116.27002271    154.337909   -0.04790   -0.70128    0.32404    9    diag
   12      0.235D-07      0.268D-08      -116.27002271    154.337908   -0.04790   -0.70128    0.32404    9    diag
   13      0.403D-08      0.700D-09      -116.27002271    154.337909   -0.04790   -0.70128    0.32404    0    orth

 Final occupancy:  10

 !RHF STATE  1.1 Energy              -116.270022711979
 Nuclear energy                        35.86337232
 One-electron energy                 -229.30234933
 Two-electron energy                   77.16895430
 Virial quotient                       -1.00123652
 !RHF STATE  1.1 Dipole moment         -0.04789565    -0.70127819     0.32403781
 Dipole moment /Debye                  -0.12173063    -1.78235462     0.82356803

 Orbital energies:

         1.1          2.1          3.1          4.1          5.1          6.1          7.1          8.1          9.1         10.1
    -20.572735   -11.192254    -1.341454    -0.945986    -0.705556    -0.580651    -0.546829    -0.545190    -0.542300    -0.509264

        11.1         12.1
      0.025961     0.039759


 HOMO     10.1    -0.509264 =     -13.8578eV
 LUMO     11.1     0.025961 =       0.7064eV
 LUMO-HOMO         0.535225 =      14.5642eV


 **********************************************************************************************************************************
 DATASETS  * FILE   NREC   LENGTH (MB)   RECORD NAMES
              1      18       32.04       500      610      700      900      950      970     1000      129      960     1100   
                                          VAR    BASINP    GEOM    SYMINP    ZMAT    AOBASIS   BASIS     P2S    ABASIS      S 
                                         1400     1410     1200     1210     1080     1600     1650     1700   
                                           T        V       H0       H01     AOSYM     SMH    MOLCAS    OPER   

              2       4        3.96       700     1000      520     2100   
                                         GEOM     BASIS   MCVARS     RHF  

 PROGRAMS   *        TOTAL    HF-SCF       INT
 CPU TIMES  *        28.79     13.88     14.68
 REAL TIME  *        35.37 SEC
 DISK USED  *        39.90 MB (local),        6.08 GB (total)
 SF USED    *         0.21 MB
 GA USED    *         0.00 MB       (max)       0.00 MB       (current)
 **********************************************************************************************************************************

 Basis set:  JKFIT                   
 Basis size:   740
 Attributes:
 Sphericals:   T
 Basis set:  MP2FIT                  
 Basis size:   816
 Attributes:
 Sphericals:   T
 Basis set:  RI                      
 Basis size:   556
 Attributes:
 Sphericals:   T
 Basis set:  TDDFT                   
 Basis size:   816
 Attributes:
 Sphericals:   T

 PROGRAM * CCSD (Closed-shell coupled cluster)     Authors: C. Hampel, H.-J. Werner, 1991, M. Deegan, P.J. Knowles, 1992

                                  CCSD-F12 implementation by  H.-J. Werner, 2007

                   Density fitting integral evaluation by F.R. Manby, 2003,2007, G. Knizia, 2010



 Convergence thresholds:  THRVAR = 1.00D-08  THRDEN = 1.00D-10

 CCSD(T)     terms to be evaluated (factor= 1.000)


 Number of core orbitals:           2 (   2 )
 Number of closed-shell orbitals:   8 (   8 )
 Number of external orbitals:     220 ( 220 )

 Molecular orbitals read from record     2100.2  Type=RHF/CANONICAL (state 1.1)

 MP2-F12 correlation treatment (H.-J. Werner, 2006)
 ==================================================

 Using MP2-F12 with ansatz 3C(FIX)

 Using projected zeroth-order Hamiltonian (+Z)

 FOCKRIB=T FOCKRIC=T FOCKRIP=T CABSP=T CABSA=T CABSK=T CABSF=T GBC=F EBC=F DMAT=T NOFIK=T NOPAO=1 SOLVE=-1  USEPAO=0
 EXCH_A= T EXCH_B= F EXCH_C= F EXCH_P= F

 Geminal basis:    OPTFULL  GEM_TYPE=SLATER  BETA=1.0  NGEM=6

 Optimizing Gaussian exponents for each gem_beta

 Geminal optimization for beta= 1.0000
 Weight function:   m=0, omega= 1.4646

 Augmented Hessian optimization of geminal fit. Trust ratio= 0.40000
 Convergence reached after   2 iterations. Final gradient= 7.85D-16, Step= 4.26D-06, Delta= 1.28D-09

 Alpha:                 0.19532     0.81920     2.85917     9.50073    35.69989   197.79328
 Coeff:                 0.27070     0.30552     0.18297     0.10986     0.06810     0.04224


 All pairs explicitly correlated. Number of r12-pairs:           36

 Excluding core orbitals from MO domains

 AO(A)-basis ORBITAL           loaded. Number of functions:     230
 RI(R)-basis RI                loaded. Number of functions:     556
 DF-basis JKFIT                loaded. Number of functions:     740

 Screening thresholds:   THRAO=  1.00D-10  THRMO=  1.00D-09  THRPROD=  1.00D-09
                         THRSW=  1.00D-05  THROV=  1.00D-12  THRAOF12= 1.00D-10

 CPU time for Fock operators                      3.62 sec

 Construction of ABS:
 Smallest eigenvalue of S          1.12E-04  (threshold= 1.00E-08)
 Ratio eigmin/eigmax               1.59E-05  (threshold= 1.00E-09)
 Smallest eigenvalue of S kept     1.12E-04  (threshold= 1.12E-04, 0 functions deleted, 556 kept)

 Construction of CABS:
 Smallest eigenvalue of S          4.43E-07  (threshold= 1.00E-08)
 Ratio eigmin/eigmax               4.43E-07  (threshold= 1.00E-09)
 Smallest eigenvalue of S kept     4.43E-07  (threshold= 4.43E-07, 0 functions deleted, 556 kept)

 CPU time for CABS singles                        0.67 sec

 CABS-singles contribution of  -0.00235842 patched into reference energy.
 New reference energy        -116.27238113

 AO(A)-basis ORBITAL           loaded. Number of functions:     230
 RI(R)-basis RI                loaded. Number of functions:     556
 DF-basis MP2FIT               loaded. Number of functions:     816

 Screening thresholds:   THRAO=  1.00D-10  THRMO=  1.00D-09  THRPROD=  1.00D-09
                         THRSW=  1.00D-05  THROV=  1.00D-12  THRAOF12= 1.00D-10

 CPU time for 3-index integral evaluation         5.45 sec
 CPU time for first  half transformation          1.05 sec ( 2756.8 MFLOP/sec)
 CPU time for second half transformation          0.02 sec ( 2572.3 MFLOP/sec)
 CPU time for sorting                             0.09 sec
 CPU time for fitting                             0.54 sec ( 4024.7 MFLOP/sec)
 CPU time for tilde quantities                    0.60 sec ( 4598.8 MFLOP/sec)
 CPU time for assembly                            4.56 sec ( 4343.4 MFLOP/sec)
 CPU time for tranop_f12                          4.34 sec ( 4398.6 MFLOP/sec)
 CPU time for f12 integrals (total)              23.61 sec, Elapsed time:     24.62 sec
 F12-matrices built in  4 passes.
 F12-matrices built in  4 passes.
 F12-matrices built in  4 passes.
 F12-matrices built in  4 passes.
 FC-matrix built in  4 passes.
 CPU time for f12 matrices (total)                1.18 sec, Elapsed time:      1.21 sec

 Diagonal F12 approximation with fixed coefficients:  TSING= 0.500,  TTRIP= 0.250 (scaled by -1/beta)

 DF-MP2-F12 energy corrections:
 ==============================
 Approx.                                    Singlet             Triplet             Total
 DF-MP2-F12/3*C(DX,FIX)                -0.046181591871     -0.006794091378     -0.052975683249
 DF-MP2-F12/3*C(FIX)                   -0.039877630743     -0.005603721931     -0.045481352673
 DF-MP2-F12/3C(FIX)                    -0.039998954301     -0.005569203908     -0.045568158209

 DF-MP2-F12 correlation energies:
 ================================
 Approx.                                    Singlet             Triplet             Ecorr            Total Energy
 DF-MP2                                -0.317758280788     -0.154037644415     -0.471795925203   -116.744177058646
 DF-MP2-F12/3*C(DX,FIX)                -0.363939872659     -0.160831735793     -0.524771608452   -116.797152741895
 DF-MP2-F12/3*C(FIX)                   -0.357635911530     -0.159641366346     -0.517277277876   -116.789658411319
 DF-MP2-F12/3C(FIX)                    -0.357757235089     -0.159606848323     -0.517364083412   -116.789745216855

 SCS-DF-MP2 energies (F_SING= 1.20000  F_TRIP= 0.62222  F_PARALLEL= 0.33333):
 ============================================================================
 SCS-DF-MP2                            -0.477155582359   -116.749536715802
 SCS-DF-MP2-F12/3*C(DX,FIX)            -0.536800927239   -116.809182060683
 SCS-DF-MP2-F12/3*C(FIX)               -0.528495499563   -116.800876633006
 SCS-DF-MP2-F12/3C(FIX)                -0.528619609952   -116.801000743395
 Symmetry transformation completed.

 Number of N-1 electron functions:               8
 Number of N-2 electron functions:              36
 Number of singly external CSFs:              1760
 Number of doubly external CSFs:           1549680
 Total number of CSFs:                     1551441

 Pair and operator lists are different

 Length of J-op  integral file:             315.61 MB
 Length of K-op  integral file:             368.50 MB
 Length of 3-ext integral record:             0.00 MB

 Memory could be reduced to 116.32 Mwords without degradation in triples

 Integral transformation finished. Total CPU:  24.51 sec, npass=  1  Memory used:  59.34 MW

 Reference energy:                   -116.27238113

 Adding F12 terms to K(Cij), methodcc=6,  factor= 1.0

 ITER.      SQ.NORM     CORR.ENERGY   TOTAL ENERGY   ENERGY CHANGE        DEN1      VAR(S)    VAR(P)  DIIS     TIME  TIME/IT
   1      1.13244129    -0.48635743  -116.75873856    -0.01454396    -0.00285050  0.15D-02  0.20D-02  1  1    69.96    14.41
   2      1.14073661    -0.48662326  -116.75900439    -0.00026583    -0.00975415  0.28D-04  0.23D-03  2  2    84.14    14.43
   3      1.14363797    -0.48688425  -116.75926538    -0.00026098    -0.00197973  0.12D-04  0.12D-04  3  3    98.51    14.47
   4      1.14452273    -0.48694060  -116.75932174    -0.00005636    -0.00048561  0.53D-06  0.11D-05  4  4   113.10    14.56
   5      1.14466874    -0.48693508  -116.75931621     0.00000552    -0.00003922  0.19D-06  0.75D-07  5  5   127.68    14.61
   6      1.14470936    -0.48693224  -116.75931338     0.00000284    -0.00000625  0.17D-07  0.54D-08  6  6   142.24    14.65
   7      1.14471884    -0.48693151  -116.75931264     0.00000073    -0.00000257  0.14D-08  0.74D-09  6  2   156.53    14.64
   8      1.14472080    -0.48693148  -116.75931261     0.00000003    -0.00000012  0.23D-09  0.73D-10  6  1   170.57    14.60
   9      1.14472151    -0.48693150  -116.75931264    -0.00000003    -0.00000006  0.21D-10  0.13D-10  6  3   184.95    14.60
  10      1.14472160    -0.48693150  -116.75931263     0.00000000     0.00000007  0.32D-11  0.16D-11  6  4   199.54    14.62
  11      1.14472154    -0.48693151  -116.75931264    -0.00000001     0.00000007  0.57D-12  0.25D-12  6  5   214.25    14.65
  12      1.14472151    -0.48693151  -116.75931264    -0.00000000     0.00000002  0.11D-12  0.34D-13  6  6   228.83    14.67
  13      1.14472149    -0.48693151  -116.75931264    -0.00000000     0.00000001  0.17D-13  0.50D-14  6  2   243.04    14.65
  14      1.14472148    -0.48693151  -116.75931264    -0.00000000     0.00000000  0.21D-14  0.10D-14  6  1   257.15    14.63
  15      1.14472148    -0.48693151  -116.75931264    -0.00000000    -0.00000000  0.27D-15  0.11D-15  6  3   271.31    14.61
  16      1.14472148    -0.48693151  -116.75931264     0.00000000    -0.00000000  0.46D-16  0.18D-16  6  4   285.74    14.62

 Norm of t1 vector:      0.05059642      S-energy:     0.00000000      T1 diagnostic:  0.00894427
                                                                       D1 diagnostic:  0.01896158

 Adding energy correction from Wij-K(Fij), methodcc=6  factor= 1.0

  CCSD correlation energy              -0.486931508260
  MP2-F12 correction (uncoupled)       -0.045299972136
  C*T doubles correction               -0.000610601452
  f12b correction                       0.008423063801


 Total CPU time for triples:    219.63 sec

  Ecorr(MP2)                           -0.471813470111
  Ecorr(MP2-F12)                       -0.517381628320
  Scale factor for triples energy       1.096580875909


 RESULTS
 =======

  Reference energy                   -116.270022711977
  F12 singles correction               -0.002358421466

 F12 singles corrections added to reference energy

  New reference energy               -116.272381133443

  F12a singlet correction              -0.040246606133
  F12a triplet correction              -0.005663967455
  F12a total correction                -0.045910573588

 F12a corrections for ansatz F12/3C(FIX) added to CCSD energy

  CCSD-F12a singlet pair energy        -0.386431668709
  CCSD-F12a triplet pair energy        -0.146410413302
  CCSD-F12a correlation energy         -0.532842081848

  Triples (T) contribution (scaled)    -0.016536293646
  Total correlation energy             -0.549378375494

  CCSD-F12a total energy             -116.805223215291
  CCSD[T]-F12a energy                -116.822355208291
  CCSD-T-F12a energy                 -116.821537583095
 !CCSD(T)-F12a total energy          -116.821759508937

 F12b corrections for ansatz F12/3C(FIX) added to CCSD(T)-F12a energy

  CCSD-F12b singlet pair energy        -0.378539427989
  CCSD-F12b triplet pair energy        -0.145879590221
  CCSD-F12b correlation energy         -0.524419018047

  Triples (T) contribution (scaled)    -0.016536293646
  Total correlation energy             -0.540955311693

  CCSD-F12b total energy             -116.796800151490
  CCSD[T]-F12b energy                -116.813932144491
  CCSD-T-F12b energy                 -116.813114519294
 !CCSD(T)-F12b total energy          -116.813336445136

 Timing summary (sec):

 STEP                 CPU(USER)    SYS     CPU(TOT)    WALL
 Transformation         24.69      0.74     25.43     25.47
 CCSD iterations       230.08      3.52    233.60    234.01
 Triples               219.63      0.84    220.47    220.80
 MP2-F12                31.00      1.23     32.23     32.37
 F12b energy            11.20      0.09     11.29     11.30

 Program statistics:

 Available memory in ccsd:              1999999554
 Min. memory needed in ccsd:               4597329
 Max. memory used in ccsd:                 5918289
 Max. memory used in cckext:               4231061 (17 integral passes)



 **********************************************************************************************************************************
 DATASETS  * FILE   NREC   LENGTH (MB)   RECORD NAMES
              1      19      398.06       500      610      700      900      950      970     1000      129      960     1100   
                                          VAR    BASINP    GEOM    SYMINP    ZMAT    AOBASIS   BASIS     P2S    ABASIS      S 
                                         1400     1410     1200     1210     1080     1600     1650     1700     1380   
                                           T        V       H0       H01     AOSYM     SMH    MOLCAS    OPER     JKOP   

              2       6        5.03       700     1000      520     2100     7360     7350   
                                         GEOM     BASIS   MCVARS     RHF    F12ABS    EF12   

 PROGRAMS   *        TOTAL   CCSD(T)    HF-SCF       INT
 CPU TIMES  *       545.60    516.80     13.88     14.68
 REAL TIME  *       560.23 SEC
 DISK USED  *       570.60 MB (local),        7.70 GB (total)
 SF USED    *         1.36 GB
 GA USED    *         4.87 MB       (max)       0.00 MB       (current)
 **********************************************************************************************************************************

 Running procedure: SET_MONOMER1

 Dummy atoms: C1  H41  H42  H43  H44


 Recomputing one-electron integrals since nuclear charges changed


 PROGRAM * SEWARD (Integral evaluation for generally contracted gaussian basis sets)     Author: Roland Lindh, 1990

 Geometry written to block  1 of record 700


 Point group  C1  



 ATOMIC COORDINATES

 NR  ATOM    CHARGE       X              Y              Z

   1  O2      8.00   -0.132091856   -0.427456049    5.428616238
   2  H3      1.00    1.200731980   -1.541827545    5.988353116
   3  H4      1.00   -1.735713445   -1.363059454    5.806183518
   4  C1      0.00   -6.193010455    2.801518980    2.403542658
   5  H41     0.00   -4.656285171    1.699997622    3.119937832
   6  H42     0.00   -5.973046335    4.726205038    2.982932688
   7  H43     0.00   -7.940251230    2.077186956    3.118237078
   8  H44     0.00   -6.176569838    2.685300823    0.384937212

 Bond lengths in Bohr (Angstrom)

 1-2  1.825253018  1-3  1.894601009  4-5  2.021904040  4-6  2.022002335  4-7  2.021953343
     ( 0.965882301)     ( 1.002579678)     ( 1.069945541)     ( 1.069997556)     ( 1.069971630)

 4-8  2.022015060
     ( 1.070004290)

 Bond angles

  2-1-3  104.80057086   5-4-6  109.53398059   5-4-7  109.65604535   5-4-8  108.43490854

  6-4-7  109.49436728   6-4-8  109.86987750   7-4-8  109.83468330

 NUCLEAR CHARGE:                   10
 NUMBER OF PRIMITIVE AOS:         296
 NUMBER OF SYMMETRY AOS:          266
 NUMBER OF CONTRACTIONS:          230   (  230A   )
 NUMBER OF CORE ORBITALS:           1   (    1A   )
 NUMBER OF VALENCE ORBITALS:        6   (    6A   )

 MOLECULE CHANGED: INITIALIZING OCCUPATION AND DUMP RECORDS


 NUCLEAR REPULSION ENERGY    8.94474756

 Basis set:  JKFIT                   
 Basis size:   740
 Attributes:
 Sphericals:   T
 Basis set:  MP2FIT                  
 Basis size:   816
 Attributes:
 Sphericals:   T
 Basis set:  RI                      
 Basis size:   556
 Attributes:
 Sphericals:   T
 Basis set:  TDDFT                   
 Basis size:   816
 Attributes:
 Sphericals:   T

 Eigenvalues of metric

         1 0.373E-04 0.777E-04 0.103E-03 0.106E-03 0.330E-03 0.341E-03 0.510E-03 0.682E-03


 Contracted 2-electron integrals neglected if value below      1.0D-14

 OPERATOR DM      FOR CENTER  0  COORDINATES:    0.000000    0.000000    0.000000


 **********************************************************************************************************************************
 DATASETS  * FILE   NREC   LENGTH (MB)   RECORD NAMES
              1      18       32.04       500      610      700      900      950      970     1000      129      960     1100   
                                          VAR    BASINP    GEOM    SYMINP    ZMAT    AOBASIS   BASIS     P2S    ABASIS      S 
                                         1400     1410     1200     1210     1080     1600     1650     1700   
                                           T        V       H0       H01     AOSYM     SMH    MOLCAS    OPER   

              2       7        5.05       700     1000      520     2100     7360     7350      200   
                                         GEOM     BASIS   MCVARS     RHF    F12ABS    EF12    OPTIONS    

 PROGRAMS   *        TOTAL       INT   CCSD(T)    HF-SCF       INT
 CPU TIMES  *       545.85      0.24    516.80     13.88     14.68
 REAL TIME  *       561.00 SEC
 DISK USED  *       570.60 MB (local),        7.70 GB (total)
 SF USED    *         1.36 GB
 GA USED    *         4.87 MB       (max)       0.00 MB       (current)
 **********************************************************************************************************************************


 PROGRAM * RHF-SCF (CLOSED SHELL)       Authors: W. Meyer, H.-J. Werner


 NUMBER OF ELECTRONS:       5+    5-    SPACE SYMMETRY=1    SPIN SYMMETRY: Singlet 
 CONVERGENCE THRESHOLDS:    1.00E-08 (Density)    1.00E-11 (Energy)
 MAX. NUMBER OF ITERATIONS:       60
 INTERPOLATION TYPE:            DIIS
 INTERPOLATION STEPS:              2 (START)      1 (STEP)
 LEVEL SHIFTS:                  0.00 (CLOSED)  0.00 (OPEN) 



 Orbital guess generated from atomic densities. Full valence occupancy:    7

 Molecular orbital dump at record        2101.2

 Initial occupancy:   5

 ITERATION    DDIFF          GRAD             ENERGY        2-EL.EN.            DIPOLE MOMENTS         DIIS   ORB.
    1      0.000D+00      0.000D+00       -76.01840299     77.302313   -0.15112   -1.05033    0.47988    0    start
    2      0.000D+00      0.640D-02       -76.04512690     73.645502   -0.07592   -0.60712    0.27775    1    diag
    3      0.445D-02      0.412D-02       -76.05674303     75.267510   -0.09221   -0.71757    0.32822    2    diag
    4      0.163D-02      0.379D-03       -76.05693936     75.177827   -0.08930   -0.71319    0.32629    3    diag
    5      0.211D-03      0.107D-03       -76.05696081     75.192309   -0.08812   -0.71154    0.32557    4    diag
    6      0.713D-04      0.213D-04       -76.05696220     75.191356   -0.08775   -0.71121    0.32543    5    diag
    7      0.182D-04      0.427D-05       -76.05696226     75.191485   -0.08766   -0.71108    0.32538    6    diag
    8      0.472D-05      0.767D-06       -76.05696227     75.191468   -0.08764   -0.71105    0.32536    7    diag
    9      0.767D-06      0.100D-06       -76.05696227     75.191458   -0.08764   -0.71105    0.32536    8    diag
   10      0.101D-06      0.263D-07       -76.05696227     75.191461   -0.08764   -0.71105    0.32536    9    orth
   11      0.251D-07      0.622D-08       -76.05696227     75.191461   -0.08764   -0.71105    0.32536    9    diag
   12      0.680D-08      0.122D-08       -76.05696227     75.191461   -0.08764   -0.71105    0.32536    0    orth

 Final occupancy:   5

 !RHF STATE  1.1 Energy               -76.056962265684
 Nuclear energy                         8.94474756
 One-electron energy                 -122.59744029
 Two-electron energy                   37.59573047
 Virial quotient                       -1.00262573
 !RHF STATE  1.1 Dipole moment         -0.08764032    -0.71104545     0.32535798
 Dipole moment /Debye                  -0.22274489    -1.80717889     0.82692333

 Orbital energies:

         1.1          2.1          3.1          4.1          5.1          6.1          7.1
    -20.571659    -1.340186    -0.703939    -0.579079    -0.508126     0.022012     0.036885


 HOMO      5.1    -0.508126 =     -13.8268eV
 LUMO      6.1     0.022012 =       0.5990eV
 LUMO-HOMO         0.530137 =      14.4258eV


 **********************************************************************************************************************************
 DATASETS  * FILE   NREC   LENGTH (MB)   RECORD NAMES
              1      18       32.04       500      610      700      900      950      970     1000      129      960     1100   
                                          VAR    BASINP    GEOM    SYMINP    ZMAT    AOBASIS   BASIS     P2S    ABASIS      S 
                                         1400     1410     1200     1210     1080     1600     1650     1700   
                                           T        V       H0       H01     AOSYM     SMH    MOLCAS    OPER   

              2       8        9.09       700     1000      520     2100     7360     7350      200     2101   
                                         GEOM     BASIS   MCVARS     RHF    F12ABS    EF12    OPTIONS    RHF  

 PROGRAMS   *        TOTAL    HF-SCF       INT   CCSD(T)    HF-SCF       INT
 CPU TIMES  *       558.69     12.83      0.24    516.80     13.88     14.68
 REAL TIME  *       575.01 SEC
 DISK USED  *       570.60 MB (local),        7.70 GB (total)
 SF USED    *         1.36 GB
 GA USED    *         4.87 MB       (max)       0.00 MB       (current)
 **********************************************************************************************************************************

 Basis set:  JKFIT                   
 Basis size:   740
 Attributes:
 Sphericals:   T
 Basis set:  MP2FIT                  
 Basis size:   816
 Attributes:
 Sphericals:   T
 Basis set:  RI                      
 Basis size:   556
 Attributes:
 Sphericals:   T
 Basis set:  TDDFT                   
 Basis size:   816
 Attributes:
 Sphericals:   T

 PROGRAM * CCSD (Closed-shell coupled cluster)     Authors: C. Hampel, H.-J. Werner, 1991, M. Deegan, P.J. Knowles, 1992

                                  CCSD-F12 implementation by  H.-J. Werner, 2007

                   Density fitting integral evaluation by F.R. Manby, 2003,2007, G. Knizia, 2010



 Convergence thresholds:  THRVAR = 1.00D-08  THRDEN = 1.00D-10

 CCSD(T)     terms to be evaluated (factor= 1.000)


 Number of core orbitals:           1 (   1 )
 Number of closed-shell orbitals:   4 (   4 )
 Number of external orbitals:     225 ( 225 )

 Molecular orbitals read from record     2101.2  Type=RHF/CANONICAL (state 1.1)

 MP2-F12 correlation treatment (H.-J. Werner, 2006)
 ==================================================

 Using MP2-F12 with ansatz 3C(FIX)

 Using projected zeroth-order Hamiltonian (+Z)

 FOCKRIB=T FOCKRIC=T FOCKRIP=T CABSP=T CABSA=T CABSK=T CABSF=T GBC=F EBC=F DMAT=T NOFIK=T NOPAO=1 SOLVE=-1  USEPAO=0
 EXCH_A= T EXCH_B= F EXCH_C= F EXCH_P= F

 Geminal basis:    OPTFULL  GEM_TYPE=SLATER  BETA=1.0  NGEM=6

 Optimizing Gaussian exponents for each gem_beta

 Geminal optimization for beta= 1.0000
 Weight function:   m=0, omega= 1.4646

 Augmented Hessian optimization of geminal fit. Trust ratio= 0.40000
 Convergence reached after   2 iterations. Final gradient= 8.31D-16, Step= 4.24D-06, Delta= 1.28D-09

 Alpha:                 0.19532     0.81920     2.85917     9.50073    35.69989   197.79328
 Coeff:                 0.27070     0.30552     0.18297     0.10986     0.06810     0.04224


 All pairs explicitly correlated. Number of r12-pairs:           10

 Excluding core orbitals from MO domains

 AO(A)-basis ORBITAL           loaded. Number of functions:     230
 RI(R)-basis RI                loaded. Number of functions:     556
 DF-basis JKFIT                loaded. Number of functions:     740

 Screening thresholds:   THRAO=  1.00D-10  THRMO=  1.00D-09  THRPROD=  1.00D-09
                         THRSW=  1.00D-05  THROV=  1.00D-12  THRAOF12= 1.00D-10

 CPU time for Fock operators                      3.02 sec

 Construction of ABS:
 Smallest eigenvalue of S          1.12E-04  (threshold= 1.00E-08)
 Ratio eigmin/eigmax               1.59E-05  (threshold= 1.00E-09)
 Smallest eigenvalue of S kept     1.12E-04  (threshold= 1.12E-04, 0 functions deleted, 556 kept)

 Construction of CABS:
 Smallest eigenvalue of S          4.43E-07  (threshold= 1.00E-08)
 Ratio eigmin/eigmax               4.43E-07  (threshold= 1.00E-09)
 Smallest eigenvalue of S kept     4.43E-07  (threshold= 4.43E-07, 0 functions deleted, 556 kept)

 CPU time for CABS singles                        0.68 sec

 CABS-singles contribution of  -0.00144900 patched into reference energy.
 New reference energy         -76.05841127

 AO(A)-basis ORBITAL           loaded. Number of functions:     230
 RI(R)-basis RI                loaded. Number of functions:     556
 DF-basis MP2FIT               loaded. Number of functions:     816

 Screening thresholds:   THRAO=  1.00D-10  THRMO=  1.00D-09  THRPROD=  1.00D-09
                         THRSW=  1.00D-05  THROV=  1.00D-12  THRAOF12= 1.00D-10

 CPU time for 3-index integral evaluation         5.10 sec
 CPU time for first  half transformation          0.69 sec ( 2091.3 MFLOP/sec)
 CPU time for second half transformation          0.02 sec (  638.5 MFLOP/sec)
 CPU time for sorting                             0.04 sec
 CPU time for fitting                             0.46 sec ( 4594.4 MFLOP/sec)
 CPU time for tilde quantities                    0.39 sec ( 4616.6 MFLOP/sec)
 CPU time for assembly                            1.35 sec ( 4388.6 MFLOP/sec)
 CPU time for tranop_f12                          1.24 sec ( 4221.0 MFLOP/sec)
 CPU time for f12 integrals (total)              11.57 sec, Elapsed time:     12.06 sec
 F12-matrices built in  4 passes.
 F12-matrices built in  4 passes.
 F12-matrices built in  4 passes.
 F12-matrices built in  4 passes.
 FC-matrix built in  4 passes.
 CPU time for f12 matrices (total)                0.28 sec, Elapsed time:      0.30 sec

 Diagonal F12 approximation with fixed coefficients:  TSING= 0.500,  TTRIP= 0.250 (scaled by -1/beta)

 DF-MP2-F12 energy corrections:
 ==============================
 Approx.                                    Singlet             Triplet             Total
 DF-MP2-F12/3*C(DX,FIX)                -0.029469192463     -0.004859242679     -0.034328435141
 DF-MP2-F12/3*C(FIX)                   -0.024404449175     -0.003808885968     -0.028213335143
 DF-MP2-F12/3C(FIX)                    -0.024538499100     -0.003782222589     -0.028320721689

 DF-MP2-F12 correlation energies:
 ================================
 Approx.                                    Singlet             Triplet             Ecorr            Total Energy
 DF-MP2                                -0.172140542659     -0.098448188437     -0.270588731096    -76.328999998492
 DF-MP2-F12/3*C(DX,FIX)                -0.201609735122     -0.103307431116     -0.304917166238    -76.363328433633
 DF-MP2-F12/3*C(FIX)                   -0.196544991834     -0.102257074405     -0.298802066239    -76.357213333634
 DF-MP2-F12/3C(FIX)                    -0.196679041759     -0.102230411026     -0.298909452786    -76.357320720181

 SCS-DF-MP2 energies (F_SING= 1.20000  F_TRIP= 0.62222  F_PARALLEL= 0.33333):
 ============================================================================
 SCS-DF-MP2                            -0.267825301774    -76.326236569169
 SCS-DF-MP2-F12/3*C(DX,FIX)            -0.306211861507    -76.364623128903
 SCS-DF-MP2-F12/3*C(FIX)               -0.299480614275    -76.357891881670
 SCS-DF-MP2-F12/3C(FIX)                -0.299624883638    -76.358036151034
 Symmetry transformation completed.

 Number of N-1 electron functions:               4
 Number of N-2 electron functions:              10
 Number of singly external CSFs:               900
 Number of doubly external CSFs:            405450
 Total number of CSFs:                      406351

 Pair and operator lists are different

 Length of J-op  integral file:              81.60 MB
 Length of K-op  integral file:             128.10 MB
 Length of 3-ext integral record:             0.00 MB

 Memory could be reduced to 75.63 Mwords without degradation in triples

 Integral transformation finished. Total CPU:  11.95 sec, npass=  1  Memory used:  32.52 MW

 Reference energy:                    -76.05841127

 Adding F12 terms to K(Cij), methodcc=6,  factor= 1.0

 ITER.      SQ.NORM     CORR.ENERGY   TOTAL ENERGY   ENERGY CHANGE        DEN1      VAR(S)    VAR(P)  DIIS     TIME  TIME/IT
   1      1.06274520    -0.27013814   -76.32854941     0.00045842     0.00648081  0.81D-03  0.11D-02  1  1    32.87     3.77
   2      1.06624289    -0.26981999   -76.32823126     0.00031815    -0.00469316  0.14D-04  0.11D-03  2  2    36.61     3.83
   3      1.06752871    -0.26994615   -76.32835742    -0.00012616    -0.00084925  0.97D-05  0.62D-05  3  3    40.33     3.85
   4      1.06804182    -0.26998415   -76.32839542    -0.00003800    -0.00028567  0.42D-06  0.66D-06  4  4    44.02     3.87
   5      1.06813737    -0.26998092   -76.32839219     0.00000323    -0.00002856  0.16D-06  0.44D-07  5  5    47.77     3.87
   6      1.06816993    -0.26997879   -76.32839006     0.00000213    -0.00000473  0.13D-07  0.30D-08  6  6    51.54     3.87
   7      1.06817714    -0.26997837   -76.32838963     0.00000042    -0.00000149  0.11D-08  0.47D-09  6  1    55.27     3.88
   8      1.06817847    -0.26997846   -76.32838972    -0.00000009     0.00000012  0.15D-09  0.54D-10  6  2    58.98     3.88
   9      1.06817892    -0.26997847   -76.32838973    -0.00000001    -0.00000000  0.15D-10  0.90D-11  6  4    62.70     3.88
  10      1.06817904    -0.26997847   -76.32838973     0.00000000     0.00000000  0.28D-11  0.88D-12  6  3    66.46     3.88
  11      1.06817903    -0.26997847   -76.32838973     0.00000000     0.00000002  0.57D-12  0.16D-12  6  5    70.18     3.88
  12      1.06817903    -0.26997847   -76.32838973     0.00000000     0.00000000  0.10D-12  0.29D-13  6  6    73.97     3.88
  13      1.06817901    -0.26997847   -76.32838973    -0.00000000     0.00000000  0.11D-13  0.42D-14  6  1    77.76     3.88
  14      1.06817901    -0.26997847   -76.32838973    -0.00000000     0.00000000  0.12D-14  0.83D-15  6  2    81.46     3.88
  15      1.06817900    -0.26997847   -76.32838973    -0.00000000     0.00000000  0.14D-15  0.89D-16  6  4    85.16     3.88
  16      1.06817900    -0.26997847   -76.32838973     0.00000000     0.00000000  0.14D-16  0.11D-16  6  3    88.88     3.88

 Norm of t1 vector:      0.03758529      S-energy:    -0.00000000      T1 diagnostic:  0.00939632
                                                                       D1 diagnostic:  0.01874294

 Adding energy correction from Wij-K(Fij), methodcc=6  factor= 1.0

  CCSD correlation energy              -0.269978466369
  MP2-F12 correction (uncoupled)       -0.028042789658
  C*T doubles correction               -0.000417071314
  f12b correction                       0.004760773510


 Total CPU time for triples:     33.83 sec

  Ecorr(MP2)                           -0.270596566208
  Ecorr(MP2-F12)                       -0.298917287897
  Scale factor for triples energy       1.104660314379


 RESULTS
 =======

  Reference energy                    -76.056962265685
  F12 singles correction               -0.001449001710

 F12 singles corrections added to reference energy

  New reference energy                -76.058411267395

  F12a singlet correction              -0.024608029618
  F12a triplet correction              -0.003851831354
  F12a total correction                -0.028459860973

 F12a corrections for ansatz F12/3C(FIX) added to CCSD energy

  CCSD-F12a singlet pair energy        -0.207797220663
  CCSD-F12a triplet pair energy        -0.090641106621
  CCSD-F12a correlation energy         -0.298438327342

  Triples (T) contribution (scaled)    -0.009613280490
  Total correlation energy             -0.308051607832

  CCSD-F12a total energy              -76.356849594737
  CCSD[T]-F12a energy                 -76.366817526053
  CCSD-T-F12a energy                  -76.366316658216
 !CCSD(T)-F12a total energy           -76.366462875227

 F12b corrections for ansatz F12/3C(FIX) added to CCSD(T)-F12a energy

  CCSD-F12b singlet pair energy        -0.203394514475
  CCSD-F12b triplet pair energy        -0.090283039299
  CCSD-F12b correlation energy         -0.293677553832

  Triples (T) contribution (scaled)    -0.009613280490
  Total correlation energy             -0.303290834322

  CCSD-F12b total energy              -76.352088821227
  CCSD[T]-F12b energy                 -76.362056752543
  CCSD-T-F12b energy                  -76.361555884706
 !CCSD(T)-F12b total energy           -76.361702101717

 Timing summary (sec):

 STEP                 CPU(USER)    SYS     CPU(TOT)    WALL
 Transformation         12.00      0.42     12.42     12.44
 CCSD iterations        59.72      2.34     62.06     62.14
 Triples                33.83      0.14     33.97     34.02
 MP2-F12                17.18      0.43     17.61     17.77
 F12b energy             3.20      0.09      3.29      3.30

 Program statistics:

 Available memory in ccsd:              1999999871
 Min. memory needed in ccsd:               1862772
 Max. memory used in ccsd:                 2158322
 Max. memory used in cckext:               1445635 (17 integral passes)



 **********************************************************************************************************************************
 DATASETS  * FILE   NREC   LENGTH (MB)   RECORD NAMES
              1      19      222.31       500      610      700      900      950      970     1000      129      960     1100   
                                          VAR    BASINP    GEOM    SYMINP    ZMAT    AOBASIS   BASIS     P2S    ABASIS      S 
                                         1400     1410     1200     1210     1080     1600     1650     1700     1380   
                                           T        V       H0       H01     AOSYM     SMH    MOLCAS    OPER     JKOP   

              2       8        9.09       700     1000      520     2100     7360     7350      200     2101   
                                         GEOM     BASIS   MCVARS     RHF    F12ABS    EF12    OPTIONS    RHF  

 PROGRAMS   *        TOTAL   CCSD(T)    HF-SCF       INT   CCSD(T)    HF-SCF       INT
 CPU TIMES  *       684.86    126.15     12.83      0.24    516.80     13.88     14.68
 REAL TIME  *       705.46 SEC
 DISK USED  *       570.60 MB (local),        7.70 GB (total)
 SF USED    *         1.36 GB
 GA USED    *         4.87 MB       (max)       0.00 MB       (current)
 **********************************************************************************************************************************

 Running procedure: SET_MONOMER2

 Dummy atoms: O2  H3  H4


 Recomputing one-electron integrals since nuclear charges changed


 PROGRAM * SEWARD (Integral evaluation for generally contracted gaussian basis sets)     Author: Roland Lindh, 1990

 Geometry written to block  1 of record 700


 Point group  C1  



 ATOMIC COORDINATES

 NR  ATOM    CHARGE       X              Y              Z

   1  O2      0.00   -0.132091856   -0.427456049    5.428616238
   2  H3      0.00    1.200731980   -1.541827545    5.988353116
   3  H4      0.00   -1.735713445   -1.363059454    5.806183518
   4  C1      6.00   -6.193010455    2.801518980    2.403542658
   5  H41     1.00   -4.656285171    1.699997622    3.119937832
   6  H42     1.00   -5.973046335    4.726205038    2.982932688
   7  H43     1.00   -7.940251230    2.077186956    3.118237078
   8  H44     1.00   -6.176569838    2.685300823    0.384937212

 Bond lengths in Bohr (Angstrom)

 1-2  1.825253018  1-3  1.894601009  4-5  2.021904040  4-6  2.022002335  4-7  2.021953343
     ( 0.965882301)     ( 1.002579678)     ( 1.069945541)     ( 1.069997556)     ( 1.069971630)

 4-8  2.022015060
     ( 1.070004290)

 Bond angles

  2-1-3  104.80057086   5-4-6  109.53398059   5-4-7  109.65604535   5-4-8  108.43490854

  6-4-7  109.49436728   6-4-8  109.86987750   7-4-8  109.83468330

 NUCLEAR CHARGE:                   10
 NUMBER OF PRIMITIVE AOS:         296
 NUMBER OF SYMMETRY AOS:          266
 NUMBER OF CONTRACTIONS:          230   (  230A   )
 NUMBER OF CORE ORBITALS:           1   (    1A   )
 NUMBER OF VALENCE ORBITALS:        8   (    8A   )

 MOLECULE CHANGED: INITIALIZING OCCUPATION AND DUMP RECORDS


 NUCLEAR REPULSION ENERGY   13.68681606

 Basis set:  JKFIT                   
 Basis size:   740
 Attributes:
 Sphericals:   T
 Basis set:  MP2FIT                  
 Basis size:   816
 Attributes:
 Sphericals:   T
 Basis set:  RI                      
 Basis size:   556
 Attributes:
 Sphericals:   T
 Basis set:  TDDFT                   
 Basis size:   816
 Attributes:
 Sphericals:   T

 Eigenvalues of metric

         1 0.373E-04 0.777E-04 0.103E-03 0.106E-03 0.330E-03 0.341E-03 0.510E-03 0.682E-03


 Contracted 2-electron integrals neglected if value below      1.0D-14

 OPERATOR DM      FOR CENTER  0  COORDINATES:    0.000000    0.000000    0.000000


 **********************************************************************************************************************************
 DATASETS  * FILE   NREC   LENGTH (MB)   RECORD NAMES
              1      18       32.04       500      610      700      900      950      970     1000      129      960     1100   
                                          VAR    BASINP    GEOM    SYMINP    ZMAT    AOBASIS   BASIS     P2S    ABASIS      S 
                                         1400     1410     1200     1210     1080     1600     1650     1700   
                                           T        V       H0       H01     AOSYM     SMH    MOLCAS    OPER   

              2       8        9.09       700     1000      520     2100     7360     7350      200     2101   
                                         GEOM     BASIS   MCVARS     RHF    F12ABS    EF12    OPTIONS    RHF  

 PROGRAMS   *        TOTAL       INT   CCSD(T)    HF-SCF       INT   CCSD(T)    HF-SCF       INT
 CPU TIMES  *       685.09      0.23    126.15     12.83      0.24    516.80     13.88     14.68
 REAL TIME  *       706.20 SEC
 DISK USED  *       570.60 MB (local),        7.70 GB (total)
 SF USED    *         1.36 GB
 GA USED    *         4.87 MB       (max)       0.00 MB       (current)
 **********************************************************************************************************************************


 PROGRAM * RHF-SCF (CLOSED SHELL)       Authors: W. Meyer, H.-J. Werner


 NUMBER OF ELECTRONS:       5+    5-    SPACE SYMMETRY=1    SPIN SYMMETRY: Singlet 
 CONVERGENCE THRESHOLDS:    1.00E-08 (Density)    1.00E-11 (Energy)
 MAX. NUMBER OF ITERATIONS:       60
 INTERPOLATION TYPE:            DIIS
 INTERPOLATION STEPS:              2 (START)      1 (STEP)
 LEVEL SHIFTS:                  0.00 (CLOSED)  0.00 (OPEN) 



 Orbital guess generated from atomic densities. Full valence occupancy:    9

 Molecular orbital dump at record        2102.2

 Initial occupancy:   5

 ITERATION    DDIFF          GRAD             ENERGY        2-EL.EN.            DIPOLE MOMENTS         DIIS   ORB.
    1      0.000D+00      0.000D+00       -40.19359052     53.494062    0.00414   -0.00277   -0.00129    0    start
    2      0.000D+00      0.353D-02       -40.21070812     52.213708    0.00134   -0.00090   -0.00037    1    diag
    3      0.327D-02      0.137D-02       -40.21295655     52.664883    0.00187   -0.00125   -0.00054    2    diag
    4      0.918D-03      0.342D-03       -40.21327198     52.609865    0.00167   -0.00112   -0.00048    3    diag
    5      0.306D-03      0.443D-04       -40.21327737     52.612200    0.00164   -0.00110   -0.00047    4    diag
    6      0.828D-04      0.345D-05       -40.21327741     52.612299    0.00164   -0.00110   -0.00047    5    diag
    7      0.703D-05      0.264D-06       -40.21327741     52.612264    0.00164   -0.00110   -0.00047    6    diag
    8      0.101D-05      0.221D-07       -40.21327741     52.612265    0.00164   -0.00110   -0.00047    7    diag
    9      0.188D-06      0.285D-08       -40.21327741     52.612265    0.00164   -0.00110   -0.00047    8    diag
   10      0.101D-07      0.792D-09       -40.21327741     52.612265    0.00164   -0.00110   -0.00047    9    orth
   11      0.132D-08      0.106D-09       -40.21327741     52.612265    0.00164   -0.00110   -0.00047    0    orth

 Final occupancy:   5

 !RHF STATE  1.1 Energy               -40.213277409760
 Nuclear energy                        13.68681606
 One-electron energy                  -80.20622591
 Two-electron energy                   26.30613245
 Virial quotient                       -0.99869565
 !RHF STATE  1.1 Dipole moment          0.00163567    -0.00109651    -0.00046604
 Dipole moment /Debye                   0.00415719    -0.00278686    -0.00118447

 Orbital energies:

         1.1          2.1          3.1          4.1          5.1          6.1          7.1
    -11.197206    -0.950742    -0.551694    -0.549757    -0.547582     0.026063     0.039454


 HOMO      5.1    -0.547582 =     -14.9005eV
 LUMO      6.1     0.026063 =       0.7092eV
 LUMO-HOMO         0.573644 =      15.6097eV


 **********************************************************************************************************************************
 DATASETS  * FILE   NREC   LENGTH (MB)   RECORD NAMES
              1      18       32.04       500      610      700      900      950      970     1000      129      960     1100   
                                          VAR    BASINP    GEOM    SYMINP    ZMAT    AOBASIS   BASIS     P2S    ABASIS      S 
                                         1400     1410     1200     1210     1080     1600     1650     1700   
                                           T        V       H0       H01     AOSYM     SMH    MOLCAS    OPER   

              2       9       13.71       700     1000      520     2100     7360     7350      200     2101     2102   
                                         GEOM     BASIS   MCVARS     RHF    F12ABS    EF12    OPTIONS    RHF      RHF  

 PROGRAMS   *        TOTAL    HF-SCF       INT   CCSD(T)    HF-SCF       INT   CCSD(T)    HF-SCF       INT
 CPU TIMES  *       696.90     11.81      0.23    126.15     12.83      0.24    516.80     13.88     14.68
 REAL TIME  *       718.97 SEC
 DISK USED  *       570.60 MB (local),        7.70 GB (total)
 SF USED    *         1.36 GB
 GA USED    *         4.87 MB       (max)       0.00 MB       (current)
 **********************************************************************************************************************************

 Basis set:  JKFIT                   
 Basis size:   740
 Attributes:
 Sphericals:   T
 Basis set:  MP2FIT                  
 Basis size:   816
 Attributes:
 Sphericals:   T
 Basis set:  RI                      
 Basis size:   556
 Attributes:
 Sphericals:   T
 Basis set:  TDDFT                   
 Basis size:   816
 Attributes:
 Sphericals:   T

 PROGRAM * CCSD (Closed-shell coupled cluster)     Authors: C. Hampel, H.-J. Werner, 1991, M. Deegan, P.J. Knowles, 1992

                                  CCSD-F12 implementation by  H.-J. Werner, 2007

                   Density fitting integral evaluation by F.R. Manby, 2003,2007, G. Knizia, 2010



 Convergence thresholds:  THRVAR = 1.00D-08  THRDEN = 1.00D-10

 CCSD(T)     terms to be evaluated (factor= 1.000)


 Number of core orbitals:           1 (   1 )
 Number of closed-shell orbitals:   4 (   4 )
 Number of external orbitals:     225 ( 225 )

 Molecular orbitals read from record     2102.2  Type=RHF/CANONICAL (state 1.1)

 MP2-F12 correlation treatment (H.-J. Werner, 2006)
 ==================================================

 Using MP2-F12 with ansatz 3C(FIX)

 Using projected zeroth-order Hamiltonian (+Z)

 FOCKRIB=T FOCKRIC=T FOCKRIP=T CABSP=T CABSA=T CABSK=T CABSF=T GBC=F EBC=F DMAT=T NOFIK=T NOPAO=1 SOLVE=-1  USEPAO=0
 EXCH_A= T EXCH_B= F EXCH_C= F EXCH_P= F

 Geminal basis:    OPTFULL  GEM_TYPE=SLATER  BETA=1.0  NGEM=6

 Optimizing Gaussian exponents for each gem_beta

 Geminal optimization for beta= 1.0000
 Weight function:   m=0, omega= 1.4646

 Augmented Hessian optimization of geminal fit. Trust ratio= 0.40000
 Convergence reached after   2 iterations. Final gradient= 7.85D-16, Step= 4.26D-06, Delta= 1.28D-09

 Alpha:                 0.19532     0.81920     2.85917     9.50073    35.69989   197.79328
 Coeff:                 0.27070     0.30552     0.18297     0.10986     0.06810     0.04224


 All pairs explicitly correlated. Number of r12-pairs:           10

 Excluding core orbitals from MO domains

 AO(A)-basis ORBITAL           loaded. Number of functions:     230
 RI(R)-basis RI                loaded. Number of functions:     556
 DF-basis JKFIT                loaded. Number of functions:     740

 Screening thresholds:   THRAO=  1.00D-10  THRMO=  1.00D-09  THRPROD=  1.00D-09
                         THRSW=  1.00D-05  THROV=  1.00D-12  THRAOF12= 1.00D-10

 CPU time for Fock operators                      3.04 sec

 Construction of ABS:
 Smallest eigenvalue of S          1.12E-04  (threshold= 1.00E-08)
 Ratio eigmin/eigmax               1.59E-05  (threshold= 1.00E-09)
 Smallest eigenvalue of S kept     1.12E-04  (threshold= 1.12E-04, 0 functions deleted, 556 kept)

 Construction of CABS:
 Smallest eigenvalue of S          4.43E-07  (threshold= 1.00E-08)
 Ratio eigmin/eigmax               4.43E-07  (threshold= 1.00E-09)
 Smallest eigenvalue of S kept     4.43E-07  (threshold= 4.43E-07, 0 functions deleted, 556 kept)

 CPU time for CABS singles                        0.67 sec

 CABS-singles contribution of  -0.00090948 patched into reference energy.
 New reference energy         -40.21418689

 AO(A)-basis ORBITAL           loaded. Number of functions:     230
 RI(R)-basis RI                loaded. Number of functions:     556
 DF-basis MP2FIT               loaded. Number of functions:     816

 Screening thresholds:   THRAO=  1.00D-10  THRMO=  1.00D-09  THRPROD=  1.00D-09
                         THRSW=  1.00D-05  THROV=  1.00D-12  THRAOF12= 1.00D-10

 CPU time for 3-index integral evaluation         5.14 sec
 CPU time for first  half transformation          0.57 sec ( 2446.3 MFLOP/sec)
 CPU time for second half transformation          0.02 sec (  634.8 MFLOP/sec)
 CPU time for sorting                             0.03 sec
 CPU time for fitting                             0.37 sec ( 3710.8 MFLOP/sec)
 CPU time for tilde quantities                    0.38 sec ( 6350.2 MFLOP/sec)
 CPU time for assembly                            1.36 sec ( 4292.8 MFLOP/sec)
 CPU time for tranop_f12                          1.25 sec ( 3849.0 MFLOP/sec)
 CPU time for f12 integrals (total)              11.32 sec, Elapsed time:     11.65 sec
 F12-matrices built in  4 passes.
 F12-matrices built in  4 passes.
 F12-matrices built in  4 passes.
 F12-matrices built in  4 passes.
 FC-matrix built in  4 passes.
 CPU time for f12 matrices (total)                0.29 sec, Elapsed time:      0.30 sec

 Diagonal F12 approximation with fixed coefficients:  TSING= 0.500,  TTRIP= 0.250 (scaled by -1/beta)

 DF-MP2-F12 energy corrections:
 ==============================
 Approx.                                    Singlet             Triplet             Total
 DF-MP2-F12/3*C(DX,FIX)                -0.016694369791     -0.001926495612     -0.018620865403
 DF-MP2-F12/3*C(FIX)                   -0.015456056579     -0.001784581340     -0.017240637920
 DF-MP2-F12/3C(FIX)                    -0.015443298551     -0.001775904851     -0.017219203402

 DF-MP2-F12 correlation energies:
 ================================
 Approx.                                    Singlet             Triplet             Ecorr            Total Energy
 DF-MP2                                -0.145451991239     -0.055067256203     -0.200519247441    -40.414706133392
 DF-MP2-F12/3*C(DX,FIX)                -0.162146361030     -0.056993751814     -0.219140112844    -40.433326998795
 DF-MP2-F12/3*C(FIX)                   -0.160908047818     -0.056851837543     -0.217759885361    -40.431946771312
 DF-MP2-F12/3C(FIX)                    -0.160895289789     -0.056843161053     -0.217738450843    -40.431925336794

 SCS-DF-MP2 energies (F_SING= 1.20000  F_TRIP= 0.62222  F_PARALLEL= 0.33333):
 ============================================================================
 SCS-DF-MP2                            -0.208806460012    -40.422993345963
 SCS-DF-MP2-F12/3*C(DX,FIX)            -0.230038412142    -40.444225298093
 SCS-DF-MP2-F12/3*C(FIX)               -0.228464134075    -40.442651020026
 SCS-DF-MP2-F12/3C(FIX)                -0.228443425736    -40.442630311687
 Symmetry transformation completed.

 Number of N-1 electron functions:               4
 Number of N-2 electron functions:              10
 Number of singly external CSFs:               900
 Number of doubly external CSFs:            405450
 Total number of CSFs:                      406351

 Pair and operator lists are different

 Length of J-op  integral file:              81.60 MB
 Length of K-op  integral file:             128.10 MB
 Length of 3-ext integral record:             0.00 MB

 Memory could be reduced to 75.63 Mwords without degradation in triples

 Integral transformation finished. Total CPU:  11.84 sec, npass=  1  Memory used:  32.52 MW

 Reference energy:                    -40.21418689

 Adding F12 terms to K(Cij), methodcc=6,  factor= 1.0

 ITER.      SQ.NORM     CORR.ENERGY   TOTAL ENERGY   ENERGY CHANGE        DEN1      VAR(S)    VAR(P)  DIIS     TIME  TIME/IT
   1      1.06946354    -0.21558736   -40.42977424    -0.01505838    -0.00938285  0.67D-03  0.94D-03  1  1    32.48     3.78
   2      1.07449084    -0.21615690   -40.43034378    -0.00056954    -0.00524414  0.17D-04  0.83D-04  2  2    36.23     3.84
   3      1.07589841    -0.21631174   -40.43049862    -0.00015484    -0.00097929  0.20D-05  0.51D-05  3  3    40.04     3.86
   4      1.07623658    -0.21632406   -40.43051094    -0.00001232    -0.00017398  0.10D-06  0.25D-06  4  4    43.81     3.87
   5      1.07628128    -0.21632280   -40.43050968     0.00000126    -0.00000983  0.77D-08  0.16D-07  5  5    47.59     3.88
   6      1.07628715    -0.21632181   -40.43050870     0.00000098    -0.00000186  0.58D-09  0.12D-08  6  6    51.36     3.88
   7      1.07628829    -0.21632150   -40.43050838     0.00000032    -0.00000073  0.39D-10  0.96D-10  6  1    55.11     3.88
   8      1.07628831    -0.21632160   -40.43050849    -0.00000011     0.00000012  0.39D-11  0.57D-11  6  3    58.90     3.88
   9      1.07628842    -0.21632159   -40.43050848     0.00000001    -0.00000007  0.33D-12  0.48D-12  6  2    62.68     3.88
  10      1.07628843    -0.21632159   -40.43050847     0.00000000     0.00000000  0.36D-13  0.48D-13  6  4    66.42     3.88
  11      1.07628843    -0.21632158   -40.43050847     0.00000000     0.00000000  0.27D-14  0.50D-14  6  5    70.22     3.89
  12      1.07628842    -0.21632158   -40.43050847     0.00000000     0.00000000  0.62D-16  0.61D-15  6  6    73.94     3.89
  13      1.07628842    -0.21632158   -40.43050847    -0.00000000     0.00000000  0.81D-17  0.67D-16  6  1    77.72     3.89
  14      1.07628842    -0.21632158   -40.43050847    -0.00000000     0.00000000  0.14D-17  0.80D-17  6  3    81.48     3.89

 Norm of t1 vector:      0.03361725      S-energy:     0.00000000      T1 diagnostic:  0.00840431
                                                                       D1 diagnostic:  0.01339463

 Adding energy correction from Wij-K(Fij), methodcc=6  factor= 1.0

  CCSD correlation energy              -0.216321583826
  MP2-F12 correction (uncoupled)       -0.017229981309
  C*T doubles correction               -0.000193094440
  f12b correction                       0.003653369135

 Total CPU time for triples:     33.90 sec

  Ecorr(MP2)                           -0.200528974023
  Ecorr(MP2-F12)                       -0.217748177424
  Scale factor for triples energy       1.085868904908


 RESULTS
 =======

  Reference energy                    -40.213277409760
  F12 singles correction               -0.000909476191

 F12 singles corrections added to reference energy

  New reference energy                -40.214186885951

  F12a singlet correction              -0.015621485192
  F12a triplet correction              -0.001801590558
  F12a total correction                -0.017423075750

 F12a corrections for ansatz F12/3C(FIX) added to CCSD energy

  CCSD-F12a singlet pair energy        -0.178527465754
  CCSD-F12a triplet pair energy        -0.055217193846
  CCSD-F12a correlation energy         -0.233744659576

  Triples (T) contribution (scaled)    -0.006801880725
  Total correlation energy             -0.240546540301

  CCSD-F12a total energy              -40.447931545527
  CCSD[T]-F12a energy                 -40.454972584236
  CCSD-T-F12a energy                  -40.454658678628
 !CCSD(T)-F12a total energy           -40.454733426252

 F12b corrections for ansatz F12/3C(FIX) added to CCSD(T)-F12a energy

  CCSD-F12b singlet pair energy        -0.175044958861
  CCSD-F12b triplet pair energy        -0.055046331605
  CCSD-F12b correlation energy         -0.230091290441

  Triples (T) contribution (scaled)    -0.006801880725
  Total correlation energy             -0.236893171166

  CCSD-F12b total energy              -40.444278176392
  CCSD[T]-F12b energy                 -40.451319215101
  CCSD-T-F12b energy                  -40.451005309493
 !CCSD(T)-F12b total energy           -40.451080057117

 Timing summary (sec):

 STEP                 CPU(USER)    SYS     CPU(TOT)    WALL
 Transformation         11.90      0.45     12.35     12.37
 CCSD iterations        52.67      1.74     54.41     54.50
 Triples                33.90      0.12     34.02     34.06
 MP2-F12                16.92      0.37     17.29     17.31
 F12b energy             3.13      0.15      3.28      3.29

 Program statistics:

 Available memory in ccsd:              1999999866
 Min. memory needed in ccsd:               1862772
 Max. memory used in ccsd:                 2158322
 Max. memory used in cckext:               1445635 (15 integral passes)



 **********************************************************************************************************************************
 DATASETS  * FILE   NREC   LENGTH (MB)   RECORD NAMES
              1      19      222.31       500      610      700      900      950      970     1000      129      960     1100   
                                          VAR    BASINP    GEOM    SYMINP    ZMAT    AOBASIS   BASIS     P2S    ABASIS      S 
                                         1400     1410     1200     1210     1080     1600     1650     1700     1380   
                                           T        V       H0       H01     AOSYM     SMH    MOLCAS    OPER     JKOP   

              2       9       13.71       700     1000      520     2100     7360     7350      200     2101     2102   
                                         GEOM     BASIS   MCVARS     RHF    F12ABS    EF12    OPTIONS    RHF      RHF  

 PROGRAMS   *        TOTAL   CCSD(T)    HF-SCF       INT   CCSD(T)    HF-SCF       INT   CCSD(T)    HF-SCF       INT
 CPU TIMES  *       815.65    118.74     11.81      0.23    126.15     12.83      0.24    516.80     13.88     14.68
 REAL TIME  *       841.27 SEC
 DISK USED  *       570.60 MB (local),        7.70 GB (total)
 SF USED    *         1.36 GB
 GA USED    *         4.87 MB       (max)       0.00 MB       (current)
 **********************************************************************************************************************************
 Molecular orbitals read from record     2102.2  Type=RHF/CANONICAL (state 1.1)
 Occupation numbers read from record     2102.2  Type=RHF/RHF (state 1.1)
 Orbital energies read from record       2102.2  Type=RHF/CANONICAL (state 1.1)
 Redundancy group numbers read from rec  2102.2  Type=RHF/RHF (state 1.1)

 CCSD(T)-F12/aug-cc-pVTZ energy=    -40.451080057117

     CCSD(T)-F12          HF-SCF     CCSD(T)-F12          HF-SCF     CCSD(T)-F12          HF-SCF
    -40.45108006    -40.21327741    -76.36170210    -76.05696227   -116.81333645   -116.27002271
 **********************************************************************************************************************************
 Molpro calculation terminated
