
 Primary working directories    : /scratch/klimes/383149/molpro.c7oj3J1oVU
 Secondary working directories  : /scratch/klimes/383149/molpro.c7oj3J1oVU
 Wavefunction directory         : /scratch/klimes/383149/
 Main file repository           : /scratch/klimes/383149/molpro.c7oj3J1oVU/

 id        : karlovklimes

 Nodes                      nprocs
 nc-01.cc.karlov.mff.cuni.cz    4

 Using customized tuning parameters: mindgm=1; mindgv=20; mindgc=4; mindgr=1; noblas=0; minvec=7
 default implementation of scratch files=sf  


 Variables initialized (930), CPU time= 0.01 sec
                                                                                 !gdirect
 memory,2000,m
 gthresh,orbital=1d-10,energy=1d-10,grid=1d-8
 
 symmetry,nosym
 angstrom
 geometry={
 O3        -0.151700000000      2.697200000000     -0.844800000000
 H5         0.533400000000      2.998100000000     -1.454900000000
 H6        -1.003200000000      2.770600000000     -1.357600000000
 C1        -3.277200000000      1.482500000000      1.271900000000
 H41        -2.464000000000      0.899600000000      1.651000000000
 H42        -3.160800000000      2.501000000000      1.578500000000
 H43        -4.201800000000      1.099200000000      1.650100000000
 H44        -3.268500000000      1.421000000000      0.203700000000
 }
 
 nkerna=1
 nkernb=1
 
 gf=0
 sing=1
 thrdum=1d-4
 gridthr=1d-8
 
 basis={
 set,orbital
 default,avtz
 set,jkfit
 default,avqz/jkfit
 set,mp2fit
 default,avqz/mp2fit
 set,ri
 default,avqz/optri
 set,tddft
 default,avqz/mp2fit
 }
 
 proc set_monomer1
 dummy,4,5,6,7,8
 endproc
 
 proc set_monomer2
 dummy,1,2,3
 endproc
 
                                                                                 !12 energy
 {hf,accu=1.d-16}
 {ccsd(t)-f12,df_basis=mp2fit,df_basis_exch=jkfit,ri_basis=ri,scale_trip=1,THRAOF12=1d-10}
 
 set_monomer1
 {hf,accu=1.d-16}
 {ccsd(t)-f12,df_basis=mp2fit,df_basis_exch=jkfit,ri_basis=ri,scale_trip=1,THRAOF12=1d-10}
 
 set_monomer2
 {hf,accu=1.d-16}
 {ccsd(t)-f12,df_basis=mp2fit,df_basis_exch=jkfit,ri_basis=ri,scale_trip=1,THRAOF12=1d-10}
 
 Commands  initialized (760), CPU time= 0.01 sec, 617 directives.
 Default parameters read. Elapsed time= 0.20 sec

 Checking input...
 Passed
1


                                         ***  PROGRAM SYSTEM MOLPRO  ***
                                       Copyright, TTI GmbH Stuttgart, 2015
                                    Version 2019.1 linked Jan 14 2019 13:09:19


 **********************************************************************************************************************************
 LABEL *                                                                                 
  64 bit mpp version                                                                     DATE: 11-Mar-20          TIME: 16:04:47  
 **********************************************************************************************************************************

 SHA1:             d688ac825633d238f2093ded1675ba87ccd55965
 **********************************************************************************************************************************

 THRESHOLDS:

 ZERO    =  1.00D-12  ONEINT  =  1.00D-12  TWOINT  =  1.00D-11  PREFAC  =  1.00D-14  XXXXXX  =  1.00D-09  EORDER  =  1.00D-04
 ENERGY  =  1.00D-10  ETEST   =  0.00D+00  EDENS   =  0.00D+00  THRDEDEF=  1.00D-06  GRADIENT=  1.00D-02  STEP    =  1.00D-03
 ORBITAL =  1.00D-10  CIVEC   =  1.00D-05  COEFF   =  1.00D-04  PRINTCI =  5.00D-02  PUNCHCI =  9.90D+01  OPTGRAD =  3.00D-04
 OPTENERG=  1.00D-06  OPTSTEP =  3.00D-04  THRGRAD =  1.00D-10  COMPRESS=  1.00D-11  VARMIN  =  1.00D-07  VARMAX  =  1.00D-03
 THRDOUB =  0.00D+00  THRDIV  =  1.00D-05  THRRED  =  1.00D-07  THRPSP  =  1.00D+00  THRDC   =  1.00D-10  THRCS   =  1.00D-10
 THRNRM  =  1.00D-08  THREQ   =  0.00D+00  THRDE   =  1.00D+00  THRREF  =  1.00D-05  SPARFAC =  1.00D+00  THRDLP  =  1.00D-07
 THRDIA  =  1.00D-10  THRDLS  =  1.00D-07  THRGPS  =  0.00D+00  THRKEX  =  0.00D+00  THRDIS  =  2.00D-01  THRVAR  =  1.00D-10
 THRLOC  =  1.00D-06  THRGAP  =  1.00D-06  THRLOCT = -1.00D+00  THRGAPT = -1.00D+00  THRORB  =  1.00D-06  THRMLTP =  0.00D+00
 THRCPQCI=  1.00D-10  KEXTA   =  0.00D+00  THRCOARS=  0.00D+00  SYMTOL  =  1.00D-06  GRADTOL =  1.00D-06  THROVL  =  1.00D-08
 THRORTH =  1.00D-08  GRID    =  1.00D-08  GRIDMAX =  1.00D-03  DTMAX   =  0.00D+00  THROCCDE=  1.00D-01  THROCCDE=  1.00D-01
 THRPRINT=  2.50D-01


 Variable memory set to 2000000000 words,  buffer space 

 ZSYMEL=NOSYM
 ZUNIT=ANG


Geometry recognized as XYZ

 SETTING NKERNA         =         1.00000000                                  
 SETTING NKERNB         =         1.00000000                                  
 SETTING GF             =     0.00000000D+00                                  
 SETTING SING           =         1.00000000                                  
 SETTING THRDUM         =     1.00000000D-04                                  
 SETTING GRIDTHR        =     1.00000000D-08                                  
 SETTING BASIS          =    AVTZ


 Recomputing integrals since basis changed


 Using spherical harmonics

 Library entry O      S aug-cc-pVTZ          selected for orbital group  1
 Library entry O      P aug-cc-pVTZ          selected for orbital group  1
 Library entry O      D aug-cc-pVTZ          selected for orbital group  1
 Library entry O      F aug-cc-pVTZ          selected for orbital group  1
 Library entry H      S aug-cc-pVTZ          selected for orbital group  2
 Library entry H      P aug-cc-pVTZ          selected for orbital group  2
 Library entry H      D aug-cc-pVTZ          selected for orbital group  2
 Library entry C      S aug-cc-pVTZ          selected for orbital group  3
 Library entry C      P aug-cc-pVTZ          selected for orbital group  3
 Library entry C      D aug-cc-pVTZ          selected for orbital group  3
 Library entry C      F aug-cc-pVTZ          selected for orbital group  3


 PROGRAM * SEWARD (Integral evaluation for generally contracted gaussian basis sets)     Author: Roland Lindh, 1990

 Geometry written to block  1 of record 700


 Point group  C1  



 ATOMIC COORDINATES

 NR  ATOM    CHARGE       X              Y              Z

   1  O3      8.00   -0.286671453    5.096969303   -1.596440630
   2  H5      1.00    1.007979915    5.665587894   -2.749362539
   3  H6      1.00   -1.895773248    5.235675201   -2.565492187
   4  C1      6.00   -6.193010455    2.801518980    2.403542658
   5  H41     1.00   -4.656285171    1.699997622    3.119937832
   6  H42     1.00   -5.973046335    4.726205038    2.982932688
   7  H43     1.00   -7.940251230    2.077186956    3.118237078
   8  H44     1.00   -6.176569838    2.685300823    0.384937212

 Bond lengths in Bohr (Angstrom)

 1-2  1.824466550  1-3  1.883483165  4-5  2.021904040  4-6  2.022002335  4-7  2.021953343
     ( 0.965466121)     ( 0.996696368)     ( 1.069945541)     ( 1.069997556)     ( 1.069971630)

 4-8  2.022015060
     ( 1.070004290)

 Bond angles

  2-1-3  104.96066383   5-4-6  109.53398059   5-4-7  109.65604535   5-4-8  108.43490854

  6-4-7  109.49436728   6-4-8  109.86987750   7-4-8  109.83468330

 NUCLEAR CHARGE:                   20
 NUMBER OF PRIMITIVE AOS:         296
 NUMBER OF SYMMETRY AOS:          266
 NUMBER OF CONTRACTIONS:          230   (  230A   )
 NUMBER OF CORE ORBITALS:           2   (    2A   )
 NUMBER OF VALENCE ORBITALS:       14   (   14A   )


 NUCLEAR REPULSION ENERGY   35.80046073


 Basis set:  JKFIT                   
 Basis size:   740
 Attributes:
 Sphericals:   T
 Basis set:  MP2FIT                  
 Basis size:   816
 Attributes:
 Sphericals:   T
 Basis set:  RI                      
 Basis size:   556
 Attributes:
 Sphericals:   T
 Basis set:  TDDFT                   
 Basis size:   816
 Attributes:
 Sphericals:   T

 **********************************************************************************************************************************


 Eigenvalues of metric

         1 0.598E-04 0.698E-04 0.994E-04 0.105E-03 0.333E-03 0.357E-03 0.689E-03 0.728E-03


 Contracted 2-electron integrals neglected if value below      1.0D-14
 AO integral compression algorithm  1   Integral accuracy      1.0D-14

     2108.162 MB (compressed) written to integral file ( 65.7%)

     Node minimum: 492.569 MB, node maximum: 557.056 MB


 NUMBER OF SORTED TWO-ELECTRON INTEGRALS:   88219044.     BUFFER LENGTH:  32768
 NUMBER OF SEGMENTS:   6  SEGMENT LENGTH:   15998348      RECORD LENGTH: 524288

 Memory used in sort:      16.56 MW

 SORT1 READ   400769927. AND WROTE    79976834. INTEGRALS IN    233 RECORDS. CPU TIME:     7.53 SEC, REAL TIME:     8.28 SEC
 SORT2 READ   320280731. AND WROTE   352862895. INTEGRALS IN   8500 RECORDS. CPU TIME:     1.75 SEC, REAL TIME:     2.39 SEC

 Node minimum:    88205762.  Node maximum:    88225686. integrals

 OPERATOR DM      FOR CENTER  0  COORDINATES:    0.000000    0.000000    0.000000


 **********************************************************************************************************************************
 DATASETS  * FILE   NREC   LENGTH (MB)   RECORD NAMES
              1      18       32.04       500      610      700      900      950      970     1000      129      960     1100   
                                          VAR    BASINP    GEOM    SYMINP    ZMAT    AOBASIS   BASIS     P2S    ABASIS      S 
                                         1400     1410     1200     1210     1080     1600     1650     1700   
                                           T        V       H0       H01     AOSYM     SMH    MOLCAS    OPER   

 PROGRAMS   *        TOTAL       INT
 CPU TIMES  *        13.97     13.74
 REAL TIME  *        18.38 SEC
 DISK USED  *        32.49 MB (local),        6.04 GB (total)
 GA USED    *         0.00 MB       (max)       0.00 MB       (current)
 **********************************************************************************************************************************


 PROGRAM * RHF-SCF (CLOSED SHELL)       Authors: W. Meyer, H.-J. Werner


 NUMBER OF ELECTRONS:      10+   10-    SPACE SYMMETRY=1    SPIN SYMMETRY: Singlet 
 CONVERGENCE THRESHOLDS:    1.00E-08 (Density)    1.00E-11 (Energy)
 MAX. NUMBER OF ITERATIONS:       60
 INTERPOLATION TYPE:            DIIS
 INTERPOLATION STEPS:              2 (START)      1 (STEP)
 LEVEL SHIFTS:                  0.00 (CLOSED)  0.00 (OPEN) 



 Orbital guess generated from atomic densities. Full valence occupancy:   16

 Molecular orbital dump at record        2100.2

 Initial occupancy:  10

 ITERATION    DDIFF          GRAD             ENERGY        2-EL.EN.            DIPOLE MOMENTS         DIIS   ORB.
    1      0.000D+00      0.000D+00      -116.21228251    157.284066   -0.16741    0.35804   -1.08750    0    start
    2      0.000D+00      0.524D-02      -116.25634016    152.256367   -0.04944    0.20866   -0.60860    1    diag
    3      0.554D-02      0.310D-02      -116.26998900    154.335287   -0.07827    0.24695   -0.72982    2    diag
    4      0.184D-02      0.454D-03      -116.27064268    154.223547   -0.07557    0.24370   -0.71953    3    diag
    5      0.408D-03      0.133D-03      -116.27070995    154.218105   -0.07476    0.24378   -0.71914    4    diag
    6      0.144D-03      0.325D-04      -116.27071371    154.223961   -0.07440    0.24358   -0.71845    5    diag
    7      0.395D-04      0.627D-05      -116.27071393    154.222442   -0.07435    0.24360   -0.71849    6    diag
    8      0.109D-04      0.160D-05      -116.27071394    154.222586   -0.07431    0.24358   -0.71843    7    diag
    9      0.240D-05      0.360D-06      -116.27071394    154.222561   -0.07430    0.24357   -0.71841    8    diag
   10      0.743D-06      0.404D-07      -116.27071394    154.222562   -0.07430    0.24357   -0.71841    9    orth
   11      0.577D-07      0.988D-08      -116.27071394    154.222564   -0.07430    0.24357   -0.71841    9    diag
   12      0.227D-07      0.256D-08      -116.27071394    154.222564   -0.07430    0.24357   -0.71841    9    diag
   13      0.394D-08      0.686D-09      -116.27071394    154.222564   -0.07430    0.24357   -0.71841    0    orth

 Final occupancy:  10

 !RHF STATE  1.1 Energy              -116.270713944478
 Nuclear energy                        35.80046073
 One-electron energy                 -229.18245660
 Two-electron energy                   77.11128193
 Virial quotient                       -1.00117310
 !RHF STATE  1.1 Dipole moment         -0.07429983     0.24357346    -0.71841284
 Dipole moment /Debye                  -0.18883896     0.61906144    -1.82590369

 Orbital energies:

         1.1          2.1          3.1          4.1          5.1          6.1          7.1          8.1          9.1         10.1
    -20.570816   -11.192914    -1.341289    -0.946266    -0.705675    -0.579230    -0.547455    -0.545171    -0.543073    -0.508058

        11.1         12.1
      0.027507     0.038648


 HOMO     10.1    -0.508058 =     -13.8250eV
 LUMO     11.1     0.027507 =       0.7485eV
 LUMO-HOMO         0.535564 =      14.5734eV


 **********************************************************************************************************************************
 DATASETS  * FILE   NREC   LENGTH (MB)   RECORD NAMES
              1      18       32.04       500      610      700      900      950      970     1000      129      960     1100   
                                          VAR    BASINP    GEOM    SYMINP    ZMAT    AOBASIS   BASIS     P2S    ABASIS      S 
                                         1400     1410     1200     1210     1080     1600     1650     1700   
                                           T        V       H0       H01     AOSYM     SMH    MOLCAS    OPER   

              2       4        3.96       700     1000      520     2100   
                                         GEOM     BASIS   MCVARS     RHF  

 PROGRAMS   *        TOTAL    HF-SCF       INT
 CPU TIMES  *        29.90     15.92     13.74
 REAL TIME  *        36.35 SEC
 DISK USED  *        39.90 MB (local),        6.07 GB (total)
 SF USED    *         0.21 MB
 GA USED    *         0.00 MB       (max)       0.00 MB       (current)
 **********************************************************************************************************************************

 Basis set:  JKFIT                   
 Basis size:   740
 Attributes:
 Sphericals:   T
 Basis set:  MP2FIT                  
 Basis size:   816
 Attributes:
 Sphericals:   T
 Basis set:  RI                      
 Basis size:   556
 Attributes:
 Sphericals:   T
 Basis set:  TDDFT                   
 Basis size:   816
 Attributes:
 Sphericals:   T

 PROGRAM * CCSD (Closed-shell coupled cluster)     Authors: C. Hampel, H.-J. Werner, 1991, M. Deegan, P.J. Knowles, 1992

                                  CCSD-F12 implementation by  H.-J. Werner, 2007

                   Density fitting integral evaluation by F.R. Manby, 2003,2007, G. Knizia, 2010



 Convergence thresholds:  THRVAR = 1.00D-08  THRDEN = 1.00D-10

 CCSD(T)     terms to be evaluated (factor= 1.000)


 Number of core orbitals:           2 (   2 )
 Number of closed-shell orbitals:   8 (   8 )
 Number of external orbitals:     220 ( 220 )

 Molecular orbitals read from record     2100.2  Type=RHF/CANONICAL (state 1.1)

 MP2-F12 correlation treatment (H.-J. Werner, 2006)
 ==================================================

 Using MP2-F12 with ansatz 3C(FIX)

 Using projected zeroth-order Hamiltonian (+Z)

 FOCKRIB=T FOCKRIC=T FOCKRIP=T CABSP=T CABSA=T CABSK=T CABSF=T GBC=F EBC=F DMAT=T NOFIK=T NOPAO=1 SOLVE=-1  USEPAO=0
 EXCH_A= T EXCH_B= F EXCH_C= F EXCH_P= F

 Geminal basis:    OPTFULL  GEM_TYPE=SLATER  BETA=1.0  NGEM=6

 Optimizing Gaussian exponents for each gem_beta

 Geminal optimization for beta= 1.0000
 Weight function:   m=0, omega= 1.4646

 Augmented Hessian optimization of geminal fit. Trust ratio= 0.40000
 Convergence reached after   2 iterations. Final gradient= 7.85D-16, Step= 4.26D-06, Delta= 1.28D-09

 Alpha:                 0.19532     0.81920     2.85917     9.50073    35.69989   197.79328
 Coeff:                 0.27070     0.30552     0.18297     0.10986     0.06810     0.04224


 All pairs explicitly correlated. Number of r12-pairs:           36

 Excluding core orbitals from MO domains

 AO(A)-basis ORBITAL           loaded. Number of functions:     230
 RI(R)-basis RI                loaded. Number of functions:     556
 DF-basis JKFIT                loaded. Number of functions:     740

 Screening thresholds:   THRAO=  1.00D-10  THRMO=  1.00D-09  THRPROD=  1.00D-09
                         THRSW=  1.00D-05  THROV=  1.00D-12  THRAOF12= 1.00D-10

 CPU time for Fock operators                      3.83 sec

 Construction of ABS:
 Smallest eigenvalue of S          1.10E-04  (threshold= 1.00E-08)
 Ratio eigmin/eigmax               1.56E-05  (threshold= 1.00E-09)
 Smallest eigenvalue of S kept     1.10E-04  (threshold= 1.10E-04, 0 functions deleted, 556 kept)

 Construction of CABS:
 Smallest eigenvalue of S          6.73E-07  (threshold= 1.00E-08)
 Ratio eigmin/eigmax               6.73E-07  (threshold= 1.00E-09)
 Smallest eigenvalue of S kept     6.73E-07  (threshold= 6.73E-07, 0 functions deleted, 556 kept)

 CPU time for CABS singles                        0.74 sec

 CABS-singles contribution of  -0.00237858 patched into reference energy.
 New reference energy        -116.27309252

 AO(A)-basis ORBITAL           loaded. Number of functions:     230
 RI(R)-basis RI                loaded. Number of functions:     556
 DF-basis MP2FIT               loaded. Number of functions:     816

 Screening thresholds:   THRAO=  1.00D-10  THRMO=  1.00D-09  THRPROD=  1.00D-09
                         THRSW=  1.00D-05  THROV=  1.00D-12  THRAOF12= 1.00D-10

 CPU time for 3-index integral evaluation         5.31 sec
 CPU time for first  half transformation          0.92 sec ( 2880.6 MFLOP/sec)
 CPU time for second half transformation          0.04 sec ( 1217.2 MFLOP/sec)
 CPU time for sorting                             0.06 sec
 CPU time for fitting                             0.63 sec ( 3449.8 MFLOP/sec)
 CPU time for tilde quantities                    0.80 sec ( 3449.1 MFLOP/sec)
 CPU time for assembly                            5.55 sec ( 3568.7 MFLOP/sec)
 CPU time for tranop_f12                          5.17 sec ( 3692.6 MFLOP/sec)
 CPU time for f12 integrals (total)              26.37 sec, Elapsed time:     27.64 sec
 F12-matrices built in  4 passes.
 F12-matrices built in  4 passes.
 F12-matrices built in  4 passes.
 F12-matrices built in  4 passes.
 FC-matrix built in  4 passes.
 CPU time for f12 matrices (total)                1.20 sec, Elapsed time:      1.30 sec

 Diagonal F12 approximation with fixed coefficients:  TSING= 0.500,  TTRIP= 0.250 (scaled by -1/beta)

 DF-MP2-F12 energy corrections:
 ==============================
 Approx.                                    Singlet             Triplet             Total
 DF-MP2-F12/3*C(DX,FIX)                -0.046231209697     -0.006800545691     -0.053031755388
 DF-MP2-F12/3*C(FIX)                   -0.039925311550     -0.005609696068     -0.045535007618
 DF-MP2-F12/3C(FIX)                    -0.040040381777     -0.005573932959     -0.045614314735

 DF-MP2-F12 correlation energies:
 ================================
 Approx.                                    Singlet             Triplet             Ecorr            Total Energy
 DF-MP2                                -0.317505224338     -0.153762121730     -0.471267346069   -116.744359866970
 DF-MP2-F12/3*C(DX,FIX)                -0.363736434035     -0.160562667422     -0.524299101457   -116.797391622359
 DF-MP2-F12/3*C(FIX)                   -0.357430535888     -0.159371817799     -0.516802353687   -116.789894874588
 DF-MP2-F12/3C(FIX)                    -0.357545606115     -0.159336054689     -0.516881660804   -116.789974181705

 SCS-DF-MP2 energies (F_SING= 1.20000  F_TRIP= 0.62222  F_PARALLEL= 0.33333):
 ============================================================================
 SCS-DF-MP2                            -0.476680478283   -116.749772999184
 SCS-DF-MP2-F12/3*C(DX,FIX)            -0.536389380572   -116.809481901473
 SCS-DF-MP2-F12/3*C(FIX)               -0.528081329696   -116.801173850597
 SCS-DF-MP2-F12/3C(FIX)                -0.528197161367   -116.801289682268
 Symmetry transformation completed.

 Number of N-1 electron functions:               8
 Number of N-2 electron functions:              36
 Number of singly external CSFs:              1760
 Number of doubly external CSFs:           1549680
 Total number of CSFs:                     1551441

 Pair and operator lists are different

 Length of J-op  integral file:             315.61 MB
 Length of K-op  integral file:             368.50 MB
 Length of 3-ext integral record:             0.00 MB

 Memory could be reduced to 116.32 Mwords without degradation in triples

 Integral transformation finished. Total CPU:  25.12 sec, npass=  1  Memory used:  59.34 MW

 Reference energy:                   -116.27309252

 Adding F12 terms to K(Cij), methodcc=6,  factor= 1.0

 ITER.      SQ.NORM     CORR.ENERGY   TOTAL ENERGY   ENERGY CHANGE        DEN1      VAR(S)    VAR(P)  DIIS     TIME  TIME/IT
   1      1.13217884    -0.48587538  -116.75896790    -0.01459017    -0.00292786  0.15D-02  0.20D-02  1  1    74.62    15.20
   2      1.14044893    -0.48613744  -116.75922996    -0.00026206    -0.00973104  0.28D-04  0.23D-03  2  2    89.97    15.46
   3      1.14333581    -0.48639911  -116.75949163    -0.00026167    -0.00197097  0.12D-04  0.12D-04  3  3   105.11    15.46
   4      1.14421609    -0.48645517  -116.75954769    -0.00005607    -0.00048337  0.53D-06  0.11D-05  4  4   120.12    15.43
   5      1.14436088    -0.48644950  -116.75954202     0.00000568    -0.00003863  0.19D-06  0.74D-07  5  5   135.31    15.47
   6      1.14440113    -0.48644667  -116.75953919     0.00000283    -0.00000625  0.17D-07  0.53D-08  6  6   150.38    15.48
   7      1.14441053    -0.48644592  -116.75953844     0.00000075    -0.00000257  0.14D-08  0.71D-09  6  2   165.49    15.48
   8      1.14441246    -0.48644589  -116.75953841     0.00000003    -0.00000011  0.22D-09  0.73D-10  6  1   181.07    15.53
   9      1.14441315    -0.48644591  -116.75953843    -0.00000002    -0.00000006  0.21D-10  0.13D-10  6  3   196.43    15.56
  10      1.14441324    -0.48644591  -116.75953843     0.00000000     0.00000006  0.32D-11  0.16D-11  6  4   211.76    15.58
  11      1.14441318    -0.48644592  -116.75953844    -0.00000001     0.00000007  0.55D-12  0.24D-12  6  5   226.74    15.55
  12      1.14441315    -0.48644592  -116.75953844    -0.00000000     0.00000002  0.11D-12  0.33D-13  6  6   241.72    15.53
  13      1.14441313    -0.48644592  -116.75953844    -0.00000000     0.00000001  0.16D-13  0.50D-14  6  2   256.98    15.54
  14      1.14441312    -0.48644592  -116.75953844    -0.00000000     0.00000000  0.19D-14  0.11D-14  6  1   272.15    15.54
  15      1.14441312    -0.48644592  -116.75953844    -0.00000000    -0.00000000  0.22D-15  0.12D-15  6  3   287.43    15.55
  16      1.14441312    -0.48644592  -116.75953844     0.00000000    -0.00000000  0.28D-16  0.16D-16  6  4   303.05    15.57

 Norm of t1 vector:      0.05054360      S-energy:     0.00000000      T1 diagnostic:  0.00893493
                                                                       D1 diagnostic:  0.01882872

 Adding energy correction from Wij-K(Fij), methodcc=6  factor= 1.0

  CCSD correlation energy              -0.486445917760
  MP2-F12 correction (uncoupled)       -0.045352437201
  C*T doubles correction               -0.000610902666
  f12b correction                       0.008424442598


 Total CPU time for triples:    224.37 sec

  Ecorr(MP2)                           -0.471285206248
  Ecorr(MP2-F12)                       -0.516899520984
  Scale factor for triples energy       1.096787071036


 RESULTS
 =======

  Reference energy                   -116.270713944481
  F12 singles correction               -0.002378576420

 F12 singles corrections added to reference energy

  New reference energy               -116.273092520901

  F12a singlet correction              -0.040293627234
  F12a triplet correction              -0.005669712634
  F12a total correction                -0.045963339868

 F12a corrections for ansatz F12/3C(FIX) added to CCSD energy

  CCSD-F12a singlet pair energy        -0.386220779287
  CCSD-F12a triplet pair energy        -0.146188478510
  CCSD-F12a correlation energy         -0.532409257628

  Triples (T) contribution (scaled)    -0.016458077873
  Total correlation energy             -0.548867335500

  CCSD-F12a total energy             -116.805501778529
  CCSD[T]-F12a energy                -116.822552965258
  CCSD-T-F12a energy                 -116.821739640138
 !CCSD(T)-F12a total energy          -116.821959856402

 F12b corrections for ansatz F12/3C(FIX) added to CCSD(T)-F12a energy

  CCSD-F12b singlet pair energy        -0.378326951759
  CCSD-F12b triplet pair energy        -0.145657863440
  CCSD-F12b correlation energy         -0.523984815029

  Triples (T) contribution (scaled)    -0.016458077873
  Total correlation energy             -0.540442892902

  CCSD-F12b total energy             -116.797077335931
  CCSD[T]-F12b energy                -116.814128522660
  CCSD-T-F12b energy                 -116.813315197540
 !CCSD(T)-F12b total energy          -116.813535413803

 Timing summary (sec):

 STEP                 CPU(USER)    SYS     CPU(TOT)    WALL
 Transformation         25.32      0.93     26.25     26.29
 CCSD iterations       243.40      5.46    248.86    249.19
 Triples               224.37      1.21    225.58    225.87
 MP2-F12                34.35      1.56     35.91     35.97
 F12b energy            11.92      0.13     12.05     12.07

 Program statistics:

 Available memory in ccsd:              1999999554
 Min. memory needed in ccsd:               4597329
 Max. memory used in ccsd:                 5918289
 Max. memory used in cckext:               4231061 (17 integral passes)



 **********************************************************************************************************************************
 DATASETS  * FILE   NREC   LENGTH (MB)   RECORD NAMES
              1      19      398.06       500      610      700      900      950      970     1000      129      960     1100   
                                          VAR    BASINP    GEOM    SYMINP    ZMAT    AOBASIS   BASIS     P2S    ABASIS      S 
                                         1400     1410     1200     1210     1080     1600     1650     1700     1380   
                                           T        V       H0       H01     AOSYM     SMH    MOLCAS    OPER     JKOP   

              2       6        5.03       700     1000      520     2100     7360     7350   
                                         GEOM     BASIS   MCVARS     RHF    F12ABS    EF12   

 PROGRAMS   *        TOTAL   CCSD(T)    HF-SCF       INT
 CPU TIMES  *       569.49    539.58     15.92     13.74
 REAL TIME  *       586.62 SEC
 DISK USED  *       570.60 MB (local),        7.69 GB (total)
 SF USED    *         1.36 GB
 GA USED    *         4.87 MB       (max)       0.00 MB       (current)
 **********************************************************************************************************************************

 Running procedure: SET_MONOMER1

 Dummy atoms: C1  H41  H42  H43  H44


 Recomputing one-electron integrals since nuclear charges changed


 PROGRAM * SEWARD (Integral evaluation for generally contracted gaussian basis sets)     Author: Roland Lindh, 1990

 Geometry written to block  1 of record 700


 Point group  C1  



 ATOMIC COORDINATES

 NR  ATOM    CHARGE       X              Y              Z

   1  O3      8.00   -0.286671453    5.096969303   -1.596440630
   2  H5      1.00    1.007979915    5.665587894   -2.749362539
   3  H6      1.00   -1.895773248    5.235675201   -2.565492187
   4  C1      0.00   -6.193010455    2.801518980    2.403542658
   5  H41     0.00   -4.656285171    1.699997622    3.119937832
   6  H42     0.00   -5.973046335    4.726205038    2.982932688
   7  H43     0.00   -7.940251230    2.077186956    3.118237078
   8  H44     0.00   -6.176569838    2.685300823    0.384937212

 Bond lengths in Bohr (Angstrom)

 1-2  1.824466550  1-3  1.883483165  4-5  2.021904040  4-6  2.022002335  4-7  2.021953343
     ( 0.965466121)     ( 0.996696368)     ( 1.069945541)     ( 1.069997556)     ( 1.069971630)

 4-8  2.022015060
     ( 1.070004290)

 Bond angles

  2-1-3  104.96066383   5-4-6  109.53398059   5-4-7  109.65604535   5-4-8  108.43490854

  6-4-7  109.49436728   6-4-8  109.86987750   7-4-8  109.83468330

 NUCLEAR CHARGE:                   10
 NUMBER OF PRIMITIVE AOS:         296
 NUMBER OF SYMMETRY AOS:          266
 NUMBER OF CONTRACTIONS:          230   (  230A   )
 NUMBER OF CORE ORBITALS:           1   (    1A   )
 NUMBER OF VALENCE ORBITALS:        6   (    6A   )

 MOLECULE CHANGED: INITIALIZING OCCUPATION AND DUMP RECORDS


 NUCLEAR REPULSION ENERGY    8.97229507

 Basis set:  JKFIT                   
 Basis size:   740
 Attributes:
 Sphericals:   T
 Basis set:  MP2FIT                  
 Basis size:   816
 Attributes:
 Sphericals:   T
 Basis set:  RI                      
 Basis size:   556
 Attributes:
 Sphericals:   T
 Basis set:  TDDFT                   
 Basis size:   816
 Attributes:
 Sphericals:   T

 Eigenvalues of metric

         1 0.598E-04 0.698E-04 0.994E-04 0.105E-03 0.333E-03 0.357E-03 0.689E-03 0.728E-03


 Contracted 2-electron integrals neglected if value below      1.0D-14

 OPERATOR DM      FOR CENTER  0  COORDINATES:    0.000000    0.000000    0.000000


 **********************************************************************************************************************************
 DATASETS  * FILE   NREC   LENGTH (MB)   RECORD NAMES
              1      18       32.04       500      610      700      900      950      970     1000      129      960     1100   
                                          VAR    BASINP    GEOM    SYMINP    ZMAT    AOBASIS   BASIS     P2S    ABASIS      S 
                                         1400     1410     1200     1210     1080     1600     1650     1700   
                                           T        V       H0       H01     AOSYM     SMH    MOLCAS    OPER   

              2       7        5.05       700     1000      520     2100     7360     7350      200   
                                         GEOM     BASIS   MCVARS     RHF    F12ABS    EF12    OPTIONS    

 PROGRAMS   *        TOTAL       INT   CCSD(T)    HF-SCF       INT
 CPU TIMES  *       569.73      0.23    539.58     15.92     13.74
 REAL TIME  *       587.41 SEC
 DISK USED  *       570.60 MB (local),        7.69 GB (total)
 SF USED    *         1.36 GB
 GA USED    *         4.87 MB       (max)       0.00 MB       (current)
 **********************************************************************************************************************************


 PROGRAM * RHF-SCF (CLOSED SHELL)       Authors: W. Meyer, H.-J. Werner


 NUMBER OF ELECTRONS:       5+    5-    SPACE SYMMETRY=1    SPIN SYMMETRY: Singlet 
 CONVERGENCE THRESHOLDS:    1.00E-08 (Density)    1.00E-11 (Energy)
 MAX. NUMBER OF ITERATIONS:       60
 INTERPOLATION TYPE:            DIIS
 INTERPOLATION STEPS:              2 (START)      1 (STEP)
 LEVEL SHIFTS:                  0.00 (CLOSED)  0.00 (OPEN) 



 Orbital guess generated from atomic densities. Full valence occupancy:    7

 Molecular orbital dump at record        2101.2

 Initial occupancy:   5

 ITERATION    DDIFF          GRAD             ENERGY        2-EL.EN.            DIPOLE MOMENTS         DIIS   ORB.
    1      0.000D+00      0.000D+00       -76.01918776     77.340726   -0.17153    0.36116   -1.08737    0    start
    2      0.000D+00      0.640D-02       -76.04588370     73.697289   -0.08987    0.21069   -0.63066    1    diag
    3      0.444D-02      0.410D-02       -76.05738045     75.310895   -0.10811    0.24839   -0.74430    2    diag
    4      0.161D-02      0.377D-03       -76.05757437     75.221342   -0.10552    0.24717   -0.73993    3    diag
    5      0.209D-03      0.106D-03       -76.05759518     75.235665   -0.10447    0.24672   -0.73828    4    diag
    6      0.695D-04      0.209D-04       -76.05759651     75.234748   -0.10415    0.24665   -0.73796    5    diag
    7      0.179D-04      0.417D-05       -76.05759657     75.234876   -0.10407    0.24662   -0.73784    6    diag
    8      0.467D-05      0.757D-06       -76.05759657     75.234860   -0.10406    0.24661   -0.73780    7    diag
    9      0.762D-06      0.980D-07       -76.05759657     75.234850   -0.10405    0.24661   -0.73780    8    diag
   10      0.867D-07      0.252D-07       -76.05759657     75.234854   -0.10405    0.24661   -0.73780    9    orth
   11      0.236D-07      0.572D-08       -76.05759657     75.234853   -0.10405    0.24661   -0.73780    9    diag
   12      0.632D-08      0.112D-08       -76.05759657     75.234853   -0.10405    0.24661   -0.73780    0    orth

 Final occupancy:   5

 !RHF STATE  1.1 Energy               -76.057596572450
 Nuclear energy                         8.97229507
 One-electron energy                 -122.64731828
 Two-electron energy                   37.61742664
 Virial quotient                       -1.00249437
 !RHF STATE  1.1 Dipole moment         -0.10405428     0.24660668    -0.73779939
 Dipole moment /Debye                  -0.26446227     0.62677060    -1.87517617

 Orbital energies:

         1.1          2.1          3.1          4.1          5.1          6.1          7.1
    -20.571083    -1.341533    -0.705877    -0.579415    -0.508325     0.023549     0.034965


 HOMO      5.1    -0.508325 =     -13.8322eV
 LUMO      6.1     0.023549 =       0.6408eV
 LUMO-HOMO         0.531873 =      14.4730eV


 **********************************************************************************************************************************
 DATASETS  * FILE   NREC   LENGTH (MB)   RECORD NAMES
              1      18       32.04       500      610      700      900      950      970     1000      129      960     1100   
                                          VAR    BASINP    GEOM    SYMINP    ZMAT    AOBASIS   BASIS     P2S    ABASIS      S 
                                         1400     1410     1200     1210     1080     1600     1650     1700   
                                           T        V       H0       H01     AOSYM     SMH    MOLCAS    OPER   

              2       8        9.09       700     1000      520     2100     7360     7350      200     2101   
                                         GEOM     BASIS   MCVARS     RHF    F12ABS    EF12    OPTIONS    RHF  

 PROGRAMS   *        TOTAL    HF-SCF       INT   CCSD(T)    HF-SCF       INT
 CPU TIMES  *       583.57     13.84      0.23    539.58     15.92     13.74
 REAL TIME  *       603.35 SEC
 DISK USED  *       570.60 MB (local),        7.69 GB (total)
 SF USED    *         1.36 GB
 GA USED    *         4.87 MB       (max)       0.00 MB       (current)
 **********************************************************************************************************************************

 Basis set:  JKFIT                   
 Basis size:   740
 Attributes:
 Sphericals:   T
 Basis set:  MP2FIT                  
 Basis size:   816
 Attributes:
 Sphericals:   T
 Basis set:  RI                      
 Basis size:   556
 Attributes:
 Sphericals:   T
 Basis set:  TDDFT                   
 Basis size:   816
 Attributes:
 Sphericals:   T

 PROGRAM * CCSD (Closed-shell coupled cluster)     Authors: C. Hampel, H.-J. Werner, 1991, M. Deegan, P.J. Knowles, 1992

                                  CCSD-F12 implementation by  H.-J. Werner, 2007

                   Density fitting integral evaluation by F.R. Manby, 2003,2007, G. Knizia, 2010



 Convergence thresholds:  THRVAR = 1.00D-08  THRDEN = 1.00D-10

 CCSD(T)     terms to be evaluated (factor= 1.000)


 Number of core orbitals:           1 (   1 )
 Number of closed-shell orbitals:   4 (   4 )
 Number of external orbitals:     225 ( 225 )

 Molecular orbitals read from record     2101.2  Type=RHF/CANONICAL (state 1.1)

 MP2-F12 correlation treatment (H.-J. Werner, 2006)
 ==================================================

 Using MP2-F12 with ansatz 3C(FIX)

 Using projected zeroth-order Hamiltonian (+Z)

 FOCKRIB=T FOCKRIC=T FOCKRIP=T CABSP=T CABSA=T CABSK=T CABSF=T GBC=F EBC=F DMAT=T NOFIK=T NOPAO=1 SOLVE=-1  USEPAO=0
 EXCH_A= T EXCH_B= F EXCH_C= F EXCH_P= F

 Geminal basis:    OPTFULL  GEM_TYPE=SLATER  BETA=1.0  NGEM=6

 Optimizing Gaussian exponents for each gem_beta

 Geminal optimization for beta= 1.0000
 Weight function:   m=0, omega= 1.4646

 Augmented Hessian optimization of geminal fit. Trust ratio= 0.40000
 Convergence reached after   2 iterations. Final gradient= 8.31D-16, Step= 4.24D-06, Delta= 1.28D-09

 Alpha:                 0.19532     0.81920     2.85917     9.50073    35.69989   197.79328
 Coeff:                 0.27070     0.30552     0.18297     0.10986     0.06810     0.04224


 All pairs explicitly correlated. Number of r12-pairs:           10

 Excluding core orbitals from MO domains

 AO(A)-basis ORBITAL           loaded. Number of functions:     230
 RI(R)-basis RI                loaded. Number of functions:     556
 DF-basis JKFIT                loaded. Number of functions:     740

 Screening thresholds:   THRAO=  1.00D-10  THRMO=  1.00D-09  THRPROD=  1.00D-09
                         THRSW=  1.00D-05  THROV=  1.00D-12  THRAOF12= 1.00D-10

 CPU time for Fock operators                      3.00 sec

 Construction of ABS:
 Smallest eigenvalue of S          1.10E-04  (threshold= 1.00E-08)
 Ratio eigmin/eigmax               1.56E-05  (threshold= 1.00E-09)
 Smallest eigenvalue of S kept     1.10E-04  (threshold= 1.10E-04, 0 functions deleted, 556 kept)

 Construction of CABS:
 Smallest eigenvalue of S          6.73E-07  (threshold= 1.00E-08)
 Ratio eigmin/eigmax               6.73E-07  (threshold= 1.00E-09)
 Smallest eigenvalue of S kept     6.73E-07  (threshold= 6.73E-07, 0 functions deleted, 556 kept)

 CPU time for CABS singles                        0.68 sec

 CABS-singles contribution of  -0.00146714 patched into reference energy.
 New reference energy         -76.05906371

 AO(A)-basis ORBITAL           loaded. Number of functions:     230
 RI(R)-basis RI                loaded. Number of functions:     556
 DF-basis MP2FIT               loaded. Number of functions:     816

 Screening thresholds:   THRAO=  1.00D-10  THRMO=  1.00D-09  THRPROD=  1.00D-09
                         THRSW=  1.00D-05  THROV=  1.00D-12  THRAOF12= 1.00D-10

 CPU time for 3-index integral evaluation         5.10 sec
 CPU time for first  half transformation          0.74 sec ( 1913.9 MFLOP/sec)
 CPU time for second half transformation          0.01 sec ( 1413.1 MFLOP/sec)
 CPU time for sorting                             0.03 sec
 CPU time for fitting                             0.33 sec (  988.7 MFLOP/sec)
 CPU time for tilde quantities                    0.37 sec ( 5694.0 MFLOP/sec)
 CPU time for assembly                            1.39 sec ( 4013.9 MFLOP/sec)
 CPU time for tranop_f12                          1.30 sec ( 3559.3 MFLOP/sec)
 CPU time for f12 integrals (total)              11.67 sec, Elapsed time:     12.17 sec
 F12-matrices built in  4 passes.
 F12-matrices built in  4 passes.
 F12-matrices built in  4 passes.
 F12-matrices built in  4 passes.
 FC-matrix built in  4 passes.
 CPU time for f12 matrices (total)                0.32 sec, Elapsed time:      0.32 sec

 Diagonal F12 approximation with fixed coefficients:  TSING= 0.500,  TTRIP= 0.250 (scaled by -1/beta)

 DF-MP2-F12 energy corrections:
 ==============================
 Approx.                                    Singlet             Triplet             Total
 DF-MP2-F12/3*C(DX,FIX)                -0.029516854302     -0.004867589934     -0.034384444236
 DF-MP2-F12/3*C(FIX)                   -0.024448601282     -0.003815994933     -0.028264596215
 DF-MP2-F12/3C(FIX)                    -0.024578918783     -0.003788515945     -0.028367434728

 DF-MP2-F12 correlation energies:
 ================================
 Approx.                                    Singlet             Triplet             Ecorr            Total Energy
 DF-MP2                                -0.171931056946     -0.098354964013     -0.270286020958    -76.329349728989
 DF-MP2-F12/3*C(DX,FIX)                -0.201447911248     -0.103222553946     -0.304670465194    -76.363734173225
 DF-MP2-F12/3*C(FIX)                   -0.196379658228     -0.102170958946     -0.298550617173    -76.357614325204
 DF-MP2-F12/3C(FIX)                    -0.196509975728     -0.102143479958     -0.298653455686    -76.357717163717

 SCS-DF-MP2 energies (F_SING= 1.20000  F_TRIP= 0.62222  F_PARALLEL= 0.33333):
 ============================================================================
 SCS-DF-MP2                            -0.267515912609    -76.326579620640
 SCS-DF-MP2-F12/3*C(DX,FIX)            -0.305964860397    -76.365028568428
 SCS-DF-MP2-F12/3*C(FIX)               -0.299228630995    -76.358292339026
 SCS-DF-MP2-F12/3C(FIX)                -0.299367913959    -76.358431621990
 Symmetry transformation completed.

 Number of N-1 electron functions:               4
 Number of N-2 electron functions:              10
 Number of singly external CSFs:               900
 Number of doubly external CSFs:            405450
 Total number of CSFs:                      406351

 Pair and operator lists are different

 Length of J-op  integral file:              81.60 MB
 Length of K-op  integral file:             128.10 MB
 Length of 3-ext integral record:             0.00 MB

 Memory could be reduced to 75.63 Mwords without degradation in triples

 Integral transformation finished. Total CPU:  12.79 sec, npass=  1  Memory used:  32.52 MW

 Reference energy:                    -76.05906371

 Adding F12 terms to K(Cij), methodcc=6,  factor= 1.0

 ITER.      SQ.NORM     CORR.ENERGY   TOTAL ENERGY   ENERGY CHANGE        DEN1      VAR(S)    VAR(P)  DIIS     TIME  TIME/IT
   1      1.06252756    -0.26986739   -76.32893110     0.00042654     0.00640709  0.80D-03  0.10D-02  1  1    34.18     4.07
   2      1.06598888    -0.26954597   -76.32860968     0.00032142    -0.00466131  0.14D-04  0.11D-03  2  2    38.30     4.15
   3      1.06725362    -0.26967020   -76.32873391    -0.00012423    -0.00083828  0.95D-05  0.60D-05  3  3    42.36     4.16
   4      1.06775839    -0.26970785   -76.32877156    -0.00003765    -0.00028198  0.41D-06  0.64D-06  4  4    46.40     4.17
   5      1.06785181    -0.26970458   -76.32876829     0.00000327    -0.00002780  0.15D-06  0.43D-07  5  5    50.55     4.19
   6      1.06788368    -0.26970248   -76.32876619     0.00000210    -0.00000466  0.13D-07  0.29D-08  6  6    54.69     4.21
   7      1.06789067    -0.26970207   -76.32876578     0.00000042    -0.00000145  0.10D-08  0.45D-09  6  1    58.77     4.22
   8      1.06789195    -0.26970216   -76.32876587    -0.00000009     0.00000012  0.14D-09  0.54D-10  6  2    62.86     4.22
   9      1.06789246    -0.26970217   -76.32876588    -0.00000001    -0.00000004  0.15D-10  0.75D-11  6  3    66.92     4.22
  10      1.06789253    -0.26970217   -76.32876588     0.00000000     0.00000002  0.29D-11  0.87D-12  6  4    71.22     4.25
  11      1.06789249    -0.26970217   -76.32876588    -0.00000000     0.00000004  0.49D-12  0.18D-12  6  6    75.59     4.28
  12      1.06789249    -0.26970217   -76.32876588     0.00000000     0.00000001  0.72D-13  0.24D-13  6  5    79.69     4.28
  13      1.06789248    -0.26970217   -76.32876588    -0.00000000     0.00000000  0.91D-14  0.33D-14  6  1    83.79     4.28
  14      1.06789247    -0.26970217   -76.32876588    -0.00000000     0.00000000  0.11D-14  0.67D-15  6  2    87.84     4.28
  15      1.06789247    -0.26970217   -76.32876588    -0.00000000    -0.00000000  0.11D-15  0.74D-16  6  3    91.77     4.27
  16      1.06789247    -0.26970217   -76.32876588     0.00000000    -0.00000000  0.14D-16  0.90D-17  6  4    95.85     4.26

 Norm of t1 vector:      0.03736299      S-energy:    -0.00000000      T1 diagnostic:  0.00934075
                                                                       D1 diagnostic:  0.01862167

 Adding energy correction from Wij-K(Fij), methodcc=6  factor= 1.0

  CCSD correlation energy              -0.269702169635
  MP2-F12 correction (uncoupled)       -0.028093690517
  C*T doubles correction               -0.000416969272
  f12b correction                       0.004763592722


 Total CPU time for triples:     34.54 sec

  Ecorr(MP2)                           -0.270293933410
  Ecorr(MP2-F12)                       -0.298661368139
  Scale factor for triples energy       1.104950319714


 RESULTS
 =======

  Reference energy                    -76.057596572451
  F12 singles correction               -0.001467135580

 F12 singles corrections added to reference energy

  New reference energy                -76.059063708031

  F12a singlet correction              -0.024651785736
  F12a triplet correction              -0.003858874053
  F12a total correction                -0.028510659789

 F12a corrections for ansatz F12/3C(FIX) added to CCSD energy

  CCSD-F12a singlet pair energy        -0.207590851024
  CCSD-F12a triplet pair energy        -0.090621978331
  CCSD-F12a correlation energy         -0.298212829424

  Triples (T) contribution (scaled)    -0.009573683013
  Total correlation energy             -0.307786512437

  CCSD-F12a total energy              -76.357276537455
  CCSD[T]-F12a energy                 -76.367201543375
  CCSD-T-F12a energy                  -76.366705696972
 !CCSD(T)-F12a total energy           -76.366850220468

 F12b corrections for ansatz F12/3C(FIX) added to CCSD(T)-F12a energy

  CCSD-F12b singlet pair energy        -0.203185881078
  CCSD-F12b triplet pair energy        -0.090263355555
  CCSD-F12b correlation energy         -0.293449236702

  Triples (T) contribution (scaled)    -0.009573683013
  Total correlation energy             -0.303022919715

  CCSD-F12b total energy              -76.352512944733
  CCSD[T]-F12b energy                 -76.362437950653
  CCSD-T-F12b energy                  -76.361942104250
 !CCSD(T)-F12b total energy           -76.362086627746

 Timing summary (sec):

 STEP                 CPU(USER)    SYS     CPU(TOT)    WALL
 Transformation         12.85      0.46     13.31     13.32
 CCSD iterations        65.68      2.49     68.17     68.29
 Triples                34.54      0.09     34.63     34.68
 MP2-F12                17.33      0.59     17.92     17.98
 F12b energy             3.49      0.09      3.58      3.59

 Program statistics:

 Available memory in ccsd:              1999999871
 Min. memory needed in ccsd:               1862772
 Max. memory used in ccsd:                 2158322
 Max. memory used in cckext:               1445635 (17 integral passes)



 **********************************************************************************************************************************
 DATASETS  * FILE   NREC   LENGTH (MB)   RECORD NAMES
              1      19      222.31       500      610      700      900      950      970     1000      129      960     1100   
                                          VAR    BASINP    GEOM    SYMINP    ZMAT    AOBASIS   BASIS     P2S    ABASIS      S 
                                         1400     1410     1200     1210     1080     1600     1650     1700     1380   
                                           T        V       H0       H01     AOSYM     SMH    MOLCAS    OPER     JKOP   

              2       8        9.09       700     1000      520     2100     7360     7350      200     2101   
                                         GEOM     BASIS   MCVARS     RHF    F12ABS    EF12    OPTIONS    RHF  

 PROGRAMS   *        TOTAL   CCSD(T)    HF-SCF       INT   CCSD(T)    HF-SCF       INT
 CPU TIMES  *       717.69    134.12     13.84      0.23    539.58     15.92     13.74
 REAL TIME  *       742.17 SEC
 DISK USED  *       570.60 MB (local),        7.69 GB (total)
 SF USED    *         1.36 GB
 GA USED    *         4.87 MB       (max)       0.00 MB       (current)
 **********************************************************************************************************************************

 Running procedure: SET_MONOMER2

 Dummy atoms: O3  H5  H6


 Recomputing one-electron integrals since nuclear charges changed


 PROGRAM * SEWARD (Integral evaluation for generally contracted gaussian basis sets)     Author: Roland Lindh, 1990

 Geometry written to block  1 of record 700


 Point group  C1  



 ATOMIC COORDINATES

 NR  ATOM    CHARGE       X              Y              Z

   1  O3      0.00   -0.286671453    5.096969303   -1.596440630
   2  H5      0.00    1.007979915    5.665587894   -2.749362539
   3  H6      0.00   -1.895773248    5.235675201   -2.565492187
   4  C1      6.00   -6.193010455    2.801518980    2.403542658
   5  H41     1.00   -4.656285171    1.699997622    3.119937832
   6  H42     1.00   -5.973046335    4.726205038    2.982932688
   7  H43     1.00   -7.940251230    2.077186956    3.118237078
   8  H44     1.00   -6.176569838    2.685300823    0.384937212

 Bond lengths in Bohr (Angstrom)

 1-2  1.824466550  1-3  1.883483165  4-5  2.021904040  4-6  2.022002335  4-7  2.021953343
     ( 0.965466121)     ( 0.996696368)     ( 1.069945541)     ( 1.069997556)     ( 1.069971630)

 4-8  2.022015060
     ( 1.070004290)

 Bond angles

  2-1-3  104.96066383   5-4-6  109.53398059   5-4-7  109.65604535   5-4-8  108.43490854

  6-4-7  109.49436728   6-4-8  109.86987750   7-4-8  109.83468330

 NUCLEAR CHARGE:                   10
 NUMBER OF PRIMITIVE AOS:         296
 NUMBER OF SYMMETRY AOS:          266
 NUMBER OF CONTRACTIONS:          230   (  230A   )
 NUMBER OF CORE ORBITALS:           1   (    1A   )
 NUMBER OF VALENCE ORBITALS:        8   (    8A   )

 MOLECULE CHANGED: INITIALIZING OCCUPATION AND DUMP RECORDS


 NUCLEAR REPULSION ENERGY   13.68681606

 Basis set:  JKFIT                   
 Basis size:   740
 Attributes:
 Sphericals:   T
 Basis set:  MP2FIT                  
 Basis size:   816
 Attributes:
 Sphericals:   T
 Basis set:  RI                      
 Basis size:   556
 Attributes:
 Sphericals:   T
 Basis set:  TDDFT                   
 Basis size:   816
 Attributes:
 Sphericals:   T

 Eigenvalues of metric

         1 0.598E-04 0.698E-04 0.994E-04 0.105E-03 0.333E-03 0.357E-03 0.689E-03 0.728E-03


 Contracted 2-electron integrals neglected if value below      1.0D-14

 OPERATOR DM      FOR CENTER  0  COORDINATES:    0.000000    0.000000    0.000000


 **********************************************************************************************************************************
 DATASETS  * FILE   NREC   LENGTH (MB)   RECORD NAMES
              1      18       32.04       500      610      700      900      950      970     1000      129      960     1100   
                                          VAR    BASINP    GEOM    SYMINP    ZMAT    AOBASIS   BASIS     P2S    ABASIS      S 
                                         1400     1410     1200     1210     1080     1600     1650     1700   
                                           T        V       H0       H01     AOSYM     SMH    MOLCAS    OPER   

              2       8        9.09       700     1000      520     2100     7360     7350      200     2101   
                                         GEOM     BASIS   MCVARS     RHF    F12ABS    EF12    OPTIONS    RHF  

 PROGRAMS   *        TOTAL       INT   CCSD(T)    HF-SCF       INT   CCSD(T)    HF-SCF       INT
 CPU TIMES  *       717.91      0.22    134.12     13.84      0.23    539.58     15.92     13.74
 REAL TIME  *       742.95 SEC
 DISK USED  *       570.60 MB (local),        7.69 GB (total)
 SF USED    *         1.36 GB
 GA USED    *         4.87 MB       (max)       0.00 MB       (current)
 **********************************************************************************************************************************


 PROGRAM * RHF-SCF (CLOSED SHELL)       Authors: W. Meyer, H.-J. Werner


 NUMBER OF ELECTRONS:       5+    5-    SPACE SYMMETRY=1    SPIN SYMMETRY: Singlet 
 CONVERGENCE THRESHOLDS:    1.00E-08 (Density)    1.00E-11 (Energy)
 MAX. NUMBER OF ITERATIONS:       60
 INTERPOLATION TYPE:            DIIS
 INTERPOLATION STEPS:              2 (START)      1 (STEP)
 LEVEL SHIFTS:                  0.00 (CLOSED)  0.00 (OPEN) 



 Orbital guess generated from atomic densities. Full valence occupancy:    9

 Molecular orbital dump at record        2102.2

 Initial occupancy:   5

 ITERATION    DDIFF          GRAD             ENERGY        2-EL.EN.            DIPOLE MOMENTS         DIIS   ORB.
    1      0.000D+00      0.000D+00       -40.19358834     53.494047    0.00409   -0.00277   -0.00130    0    start
    2      0.000D+00      0.353D-02       -40.21070597     52.213681    0.00126   -0.00090   -0.00037    1    diag
    3      0.324D-02      0.137D-02       -40.21295449     52.664854    0.00180   -0.00125   -0.00054    2    diag
    4      0.915D-03      0.342D-03       -40.21326997     52.609827    0.00159   -0.00112   -0.00048    3    diag
    5      0.302D-03      0.444D-04       -40.21327536     52.612166    0.00157   -0.00110   -0.00047    4    diag
    6      0.757D-04      0.345D-05       -40.21327540     52.612263    0.00157   -0.00110   -0.00047    5    diag
    7      0.646D-05      0.264D-06       -40.21327540     52.612229    0.00156   -0.00110   -0.00047    6    diag
    8      0.962D-06      0.221D-07       -40.21327540     52.612230    0.00156   -0.00110   -0.00047    7    diag
    9      0.190D-06      0.284D-08       -40.21327540     52.612230    0.00156   -0.00110   -0.00047    8    diag
   10      0.118D-07      0.795D-09       -40.21327540     52.612230    0.00156   -0.00110   -0.00047    9    orth
   11      0.121D-08      0.106D-09       -40.21327540     52.612230    0.00156   -0.00110   -0.00047    0    orth

 Final occupancy:   5

 !RHF STATE  1.1 Energy               -40.213275401302
 Nuclear energy                        13.68681606
 One-electron energy                  -80.20620625
 Two-electron energy                   26.30611479
 Virial quotient                       -0.99870074
 !RHF STATE  1.1 Dipole moment          0.00156459    -0.00109850    -0.00046503
 Dipole moment /Debye                   0.00397654    -0.00279191    -0.00118190

 Orbital energies:

         1.1          2.1          3.1          4.1          5.1          6.1          7.1
    -11.197211    -0.950741    -0.551694    -0.549761    -0.547581     0.026325     0.038574


 HOMO      5.1    -0.547581 =     -14.9004eV
 LUMO      6.1     0.026325 =       0.7163eV
 LUMO-HOMO         0.573906 =      15.6168eV


 **********************************************************************************************************************************
 DATASETS  * FILE   NREC   LENGTH (MB)   RECORD NAMES
              1      18       32.04       500      610      700      900      950      970     1000      129      960     1100   
                                          VAR    BASINP    GEOM    SYMINP    ZMAT    AOBASIS   BASIS     P2S    ABASIS      S 
                                         1400     1410     1200     1210     1080     1600     1650     1700   
                                           T        V       H0       H01     AOSYM     SMH    MOLCAS    OPER   

              2       9       13.71       700     1000      520     2100     7360     7350      200     2101     2102   
                                         GEOM     BASIS   MCVARS     RHF    F12ABS    EF12    OPTIONS    RHF      RHF  

 PROGRAMS   *        TOTAL    HF-SCF       INT   CCSD(T)    HF-SCF       INT   CCSD(T)    HF-SCF       INT
 CPU TIMES  *       730.80     12.89      0.22    134.12     13.84      0.23    539.58     15.92     13.74
 REAL TIME  *       757.47 SEC
 DISK USED  *       570.60 MB (local),        7.69 GB (total)
 SF USED    *         1.36 GB
 GA USED    *         4.87 MB       (max)       0.00 MB       (current)
 **********************************************************************************************************************************

 Basis set:  JKFIT                   
 Basis size:   740
 Attributes:
 Sphericals:   T
 Basis set:  MP2FIT                  
 Basis size:   816
 Attributes:
 Sphericals:   T
 Basis set:  RI                      
 Basis size:   556
 Attributes:
 Sphericals:   T
 Basis set:  TDDFT                   
 Basis size:   816
 Attributes:
 Sphericals:   T

 PROGRAM * CCSD (Closed-shell coupled cluster)     Authors: C. Hampel, H.-J. Werner, 1991, M. Deegan, P.J. Knowles, 1992

                                  CCSD-F12 implementation by  H.-J. Werner, 2007

                   Density fitting integral evaluation by F.R. Manby, 2003,2007, G. Knizia, 2010



 Convergence thresholds:  THRVAR = 1.00D-08  THRDEN = 1.00D-10

 CCSD(T)     terms to be evaluated (factor= 1.000)


 Number of core orbitals:           1 (   1 )
 Number of closed-shell orbitals:   4 (   4 )
 Number of external orbitals:     225 ( 225 )

 Molecular orbitals read from record     2102.2  Type=RHF/CANONICAL (state 1.1)

 MP2-F12 correlation treatment (H.-J. Werner, 2006)
 ==================================================

 Using MP2-F12 with ansatz 3C(FIX)

 Using projected zeroth-order Hamiltonian (+Z)

 FOCKRIB=T FOCKRIC=T FOCKRIP=T CABSP=T CABSA=T CABSK=T CABSF=T GBC=F EBC=F DMAT=T NOFIK=T NOPAO=1 SOLVE=-1  USEPAO=0
 EXCH_A= T EXCH_B= F EXCH_C= F EXCH_P= F

 Geminal basis:    OPTFULL  GEM_TYPE=SLATER  BETA=1.0  NGEM=6

 Optimizing Gaussian exponents for each gem_beta

 Geminal optimization for beta= 1.0000
 Weight function:   m=0, omega= 1.4646

 Augmented Hessian optimization of geminal fit. Trust ratio= 0.40000
 Convergence reached after   2 iterations. Final gradient= 7.85D-16, Step= 4.26D-06, Delta= 1.28D-09

 Alpha:                 0.19532     0.81920     2.85917     9.50073    35.69989   197.79328
 Coeff:                 0.27070     0.30552     0.18297     0.10986     0.06810     0.04224


 All pairs explicitly correlated. Number of r12-pairs:           10

 Excluding core orbitals from MO domains

 AO(A)-basis ORBITAL           loaded. Number of functions:     230
 RI(R)-basis RI                loaded. Number of functions:     556
 DF-basis JKFIT                loaded. Number of functions:     740

 Screening thresholds:   THRAO=  1.00D-10  THRMO=  1.00D-09  THRPROD=  1.00D-09
                         THRSW=  1.00D-05  THROV=  1.00D-12  THRAOF12= 1.00D-10

 CPU time for Fock operators                      3.07 sec

 Construction of ABS:
 Smallest eigenvalue of S          1.10E-04  (threshold= 1.00E-08)
 Ratio eigmin/eigmax               1.56E-05  (threshold= 1.00E-09)
 Smallest eigenvalue of S kept     1.10E-04  (threshold= 1.10E-04, 0 functions deleted, 556 kept)

 Construction of CABS:
 Smallest eigenvalue of S          6.73E-07  (threshold= 1.00E-08)
 Ratio eigmin/eigmax               6.73E-07  (threshold= 1.00E-09)
 Smallest eigenvalue of S kept     6.73E-07  (threshold= 6.73E-07, 0 functions deleted, 556 kept)

 CPU time for CABS singles                        0.68 sec

 CABS-singles contribution of  -0.00090972 patched into reference energy.
 New reference energy         -40.21418512

 AO(A)-basis ORBITAL           loaded. Number of functions:     230
 RI(R)-basis RI                loaded. Number of functions:     556
 DF-basis MP2FIT               loaded. Number of functions:     816

 Screening thresholds:   THRAO=  1.00D-10  THRMO=  1.00D-09  THRPROD=  1.00D-09
                         THRSW=  1.00D-05  THROV=  1.00D-12  THRAOF12= 1.00D-10

 CPU time for 3-index integral evaluation         5.16 sec
 CPU time for first  half transformation          0.69 sec ( 2035.2 MFLOP/sec)
 CPU time for second half transformation          0.01 sec ( 1269.6 MFLOP/sec)
 CPU time for sorting                             0.04 sec
 CPU time for fitting                             0.37 sec ( 2901.0 MFLOP/sec)
 CPU time for tilde quantities                    0.38 sec ( 1664.6 MFLOP/sec)
 CPU time for assembly                            1.31 sec ( 4456.6 MFLOP/sec)
 CPU time for tranop_f12                          1.28 sec ( 3788.0 MFLOP/sec)
 CPU time for f12 integrals (total)              11.53 sec, Elapsed time:     12.09 sec
 F12-matrices built in  4 passes.
 F12-matrices built in  4 passes.
 F12-matrices built in  4 passes.
 F12-matrices built in  4 passes.
 FC-matrix built in  4 passes.
 CPU time for f12 matrices (total)                0.30 sec, Elapsed time:      0.34 sec

 Diagonal F12 approximation with fixed coefficients:  TSING= 0.500,  TTRIP= 0.250 (scaled by -1/beta)

 DF-MP2-F12 energy corrections:
 ==============================
 Approx.                                    Singlet             Triplet             Total
 DF-MP2-F12/3*C(DX,FIX)                -0.016711531086     -0.001928037811     -0.018639568897
 DF-MP2-F12/3*C(FIX)                   -0.015474167848     -0.001786431187     -0.017260599035
 DF-MP2-F12/3C(FIX)                    -0.015458616725     -0.001777302082     -0.017235918807

 DF-MP2-F12 correlation energies:
 ================================
 Approx.                                    Singlet             Triplet             Ecorr            Total Energy
 DF-MP2                                -0.145434224459     -0.055064825016     -0.200499049475    -40.414684171809
 DF-MP2-F12/3*C(DX,FIX)                -0.162145755546     -0.056992862826     -0.219138618372    -40.433323740706
 DF-MP2-F12/3*C(FIX)                   -0.160908392308     -0.056851256203     -0.217759648511    -40.431944770845
 DF-MP2-F12/3C(FIX)                    -0.160892841184     -0.056842127098     -0.217734968282    -40.431920090616

 SCS-DF-MP2 energies (F_SING= 1.20000  F_TRIP= 0.62222  F_PARALLEL= 0.33333):
 ============================================================================
 SCS-DF-MP2                            -0.208783627139    -40.422968749473
 SCS-DF-MP2-F12/3*C(DX,FIX)            -0.230037132414    -40.444222254747
 SCS-DF-MP2-F12/3*C(FIX)               -0.228464185740    -40.442649308074
 SCS-DF-MP2-F12/3C(FIX)                -0.228439844060    -40.442624966394
 Symmetry transformation completed.

 Number of N-1 electron functions:               4
 Number of N-2 electron functions:              10
 Number of singly external CSFs:               900
 Number of doubly external CSFs:            405450
 Total number of CSFs:                      406351

 Pair and operator lists are different

 Length of J-op  integral file:              81.60 MB
 Length of K-op  integral file:             128.10 MB
 Length of 3-ext integral record:             0.00 MB

 Memory could be reduced to 75.63 Mwords without degradation in triples

 Integral transformation finished. Total CPU:  12.62 sec, npass=  1  Memory used:  32.52 MW

 Reference energy:                    -40.21418512

 Adding F12 terms to K(Cij), methodcc=6,  factor= 1.0

 ITER.      SQ.NORM     CORR.ENERGY   TOTAL ENERGY   ENERGY CHANGE        DEN1      VAR(S)    VAR(P)  DIIS     TIME  TIME/IT
   1      1.06945940    -0.21556785   -40.42975297    -0.01505884    -0.00938251  0.67D-03  0.94D-03  1  1    33.79     4.07
   2      1.07448683    -0.21613554   -40.43032066    -0.00056769    -0.00524371  0.17D-04  0.83D-04  2  2    37.84     4.14
   3      1.07589397    -0.21629051   -40.43047563    -0.00015497    -0.00097882  0.20D-05  0.51D-05  3  3    41.92     4.17
   4      1.07623212    -0.21630286   -40.43048798    -0.00001235    -0.00017403  0.10D-06  0.25D-06  4  4    46.02     4.18
   5      1.07627680    -0.21630159   -40.43048671     0.00000127    -0.00000980  0.77D-08  0.16D-07  5  5    50.06     4.19
   6      1.07628265    -0.21630060   -40.43048572     0.00000099    -0.00000186  0.56D-09  0.12D-08  6  6    54.15     4.19
   7      1.07628378    -0.21630029   -40.43048541     0.00000031    -0.00000072  0.38D-10  0.93D-10  6  1    58.24     4.20
   8      1.07628379    -0.21630040   -40.43048552    -0.00000011     0.00000013  0.36D-11  0.52D-11  6  3    62.49     4.21
   9      1.07628389    -0.21630038   -40.43048550     0.00000002    -0.00000007  0.30D-12  0.45D-12  6  2    66.60     4.22
  10      1.07628390    -0.21630038   -40.43048550     0.00000000     0.00000000  0.35D-13  0.46D-13  6  4    70.68     4.23
  11      1.07628390    -0.21630037   -40.43048550     0.00000000     0.00000000  0.26D-14  0.47D-14  6  5    74.79     4.24
  12      1.07628390    -0.21630037   -40.43048550     0.00000000     0.00000000  0.55D-16  0.56D-15  6  6    78.89     4.24
  13      1.07628390    -0.21630037   -40.43048550    -0.00000000     0.00000000  0.75D-17  0.63D-16  6  1    83.04     4.25
  14      1.07628390    -0.21630037   -40.43048550    -0.00000000     0.00000000  0.14D-17  0.79D-17  6  3    87.15     4.25

 Norm of t1 vector:      0.03361768      S-energy:     0.00000000      T1 diagnostic:  0.00840442
                                                                       D1 diagnostic:  0.01339562

 Adding energy correction from Wij-K(Fij), methodcc=6  factor= 1.0

  CCSD correlation energy              -0.216300373473
  MP2-F12 correction (uncoupled)       -0.017249373792
  C*T doubles correction               -0.000192931641
  f12b correction                       0.003656010632

 Total CPU time for triples:     34.83 sec

  Ecorr(MP2)                           -0.200509008065
  Ecorr(MP2-F12)                       -0.217744926872
  Scale factor for triples energy       1.085960820282


 RESULTS
 =======

  Reference energy                    -40.213275401301
  F12 singles correction               -0.000909721033

 F12 singles corrections added to reference energy

  New reference energy                -40.214185122334

  F12a singlet correction              -0.015639096104
  F12a triplet correction              -0.001803209329
  F12a total correction                -0.017442305432

 F12a corrections for ansatz F12/3C(FIX) added to CCSD energy

  CCSD-F12a singlet pair energy        -0.178526299119
  CCSD-F12a triplet pair energy        -0.055216379811
  CCSD-F12a correlation energy         -0.233742678905

  Triples (T) contribution (scaled)    -0.006800803037
  Total correlation energy             -0.240543481942

  CCSD-F12a total energy              -40.447927801239
  CCSD[T]-F12a energy                 -40.454967784701
  CCSD-T-F12a energy                  -40.454653828264
 !CCSD(T)-F12a total energy           -40.454728604276

 F12b corrections for ansatz F12/3C(FIX) added to CCSD(T)-F12a energy

  CCSD-F12b singlet pair energy        -0.175041334871
  CCSD-F12b triplet pair energy        -0.055045333428
  CCSD-F12b correlation energy         -0.230086668273

  Triples (T) contribution (scaled)    -0.006800803037
  Total correlation energy             -0.236887471310

  CCSD-F12b total energy              -40.444271790607
  CCSD[T]-F12b energy                 -40.451311774069
  CCSD-T-F12b energy                  -40.450997817632
 !CCSD(T)-F12b total energy           -40.451072593644

 Timing summary (sec):

 STEP                 CPU(USER)    SYS     CPU(TOT)    WALL
 Transformation         12.68      0.53     13.21     13.23
 CCSD iterations        57.32      2.18     59.50     59.58
 Triples                34.83      0.19     35.02     35.06
 MP2-F12                17.17      0.76     17.93     17.94
 F12b energy             3.58      0.10      3.68      3.69

 Program statistics:

 Available memory in ccsd:              1999999866
 Min. memory needed in ccsd:               1862772
 Max. memory used in ccsd:                 2158322
 Max. memory used in cckext:               1445635 (15 integral passes)



 **********************************************************************************************************************************
 DATASETS  * FILE   NREC   LENGTH (MB)   RECORD NAMES
              1      19      222.31       500      610      700      900      950      970     1000      129      960     1100   
                                          VAR    BASINP    GEOM    SYMINP    ZMAT    AOBASIS   BASIS     P2S    ABASIS      S 
                                         1400     1410     1200     1210     1080     1600     1650     1700     1380   
                                           T        V       H0       H01     AOSYM     SMH    MOLCAS    OPER     JKOP   

              2       9       13.71       700     1000      520     2100     7360     7350      200     2101     2102   
                                         GEOM     BASIS   MCVARS     RHF    F12ABS    EF12    OPTIONS    RHF      RHF  

 PROGRAMS   *        TOTAL   CCSD(T)    HF-SCF       INT   CCSD(T)    HF-SCF       INT   CCSD(T)    HF-SCF       INT
 CPU TIMES  *       856.60    125.78     12.89      0.22    134.12     13.84      0.23    539.58     15.92     13.74
 REAL TIME  *       887.78 SEC
 DISK USED  *       570.60 MB (local),        7.69 GB (total)
 SF USED    *         1.36 GB
 GA USED    *         4.87 MB       (max)       0.00 MB       (current)
 **********************************************************************************************************************************
 Molecular orbitals read from record     2102.2  Type=RHF/CANONICAL (state 1.1)
 Occupation numbers read from record     2102.2  Type=RHF/RHF (state 1.1)
 Orbital energies read from record       2102.2  Type=RHF/CANONICAL (state 1.1)
 Redundancy group numbers read from rec  2102.2  Type=RHF/RHF (state 1.1)

 CCSD(T)-F12/aug-cc-pVTZ energy=    -40.451072593644

     CCSD(T)-F12          HF-SCF     CCSD(T)-F12          HF-SCF     CCSD(T)-F12          HF-SCF
    -40.45107259    -40.21327540    -76.36208663    -76.05759657   -116.81353541   -116.27071394
 **********************************************************************************************************************************
 Molpro calculation terminated
