
 Primary working directories    : /scratch/klimes/383150/molpro.QBkIJqe4P0
 Secondary working directories  : /scratch/klimes/383150/molpro.QBkIJqe4P0
 Wavefunction directory         : /scratch/klimes/383150/
 Main file repository           : /scratch/klimes/383150/molpro.QBkIJqe4P0/

 id        : karlovklimes

 Nodes                      nprocs
 nc-20.cc.karlov.mff.cuni.cz    4

 Using customized tuning parameters: mindgm=1; mindgv=20; mindgc=4; mindgr=1; noblas=0; minvec=7
 default implementation of scratch files=sf  


 Variables initialized (930), CPU time= 0.00 sec
                                                                                 !gdirect
 memory,2000,m
 gthresh,orbital=1d-10,energy=1d-10,grid=1d-8
 
 symmetry,nosym
 angstrom
 geometry={
 O4        -2.158000000000     -1.371300000000     -0.952200000000
 H7        -2.663200000000     -0.760300000000     -1.523700000000
 H8        -1.370200000000     -0.860500000000     -0.644400000000
 C1        -3.277200000000      1.482500000000      1.271900000000
 H41        -2.464000000000      0.899600000000      1.651000000000
 H42        -3.160800000000      2.501000000000      1.578500000000
 H43        -4.201800000000      1.099200000000      1.650100000000
 H44        -3.268500000000      1.421000000000      0.203700000000
 }
 
 nkerna=1
 nkernb=1
 
 gf=0
 sing=1
 thrdum=1d-4
 gridthr=1d-8
 
 basis={
 set,orbital
 default,avtz
 set,jkfit
 default,avqz/jkfit
 set,mp2fit
 default,avqz/mp2fit
 set,ri
 default,avqz/optri
 set,tddft
 default,avqz/mp2fit
 }
 
 proc set_monomer1
 dummy,4,5,6,7,8
 endproc
 
 proc set_monomer2
 dummy,1,2,3
 endproc
 
                                                                                 !12 energy
 {hf,accu=1.d-16}
 {ccsd(t)-f12,df_basis=mp2fit,df_basis_exch=jkfit,ri_basis=ri,scale_trip=1,THRAOF12=1d-10}
 
 set_monomer1
 {hf,accu=1.d-16}
 {ccsd(t)-f12,df_basis=mp2fit,df_basis_exch=jkfit,ri_basis=ri,scale_trip=1,THRAOF12=1d-10}
 
 set_monomer2
 {hf,accu=1.d-16}
 {ccsd(t)-f12,df_basis=mp2fit,df_basis_exch=jkfit,ri_basis=ri,scale_trip=1,THRAOF12=1d-10}
 
 Commands  initialized (760), CPU time= 0.01 sec, 617 directives.
 Default parameters read. Elapsed time= 0.26 sec

 Checking input...
 Passed
1


                                         ***  PROGRAM SYSTEM MOLPRO  ***
                                       Copyright, TTI GmbH Stuttgart, 2015
                                    Version 2019.1 linked Jan 14 2019 13:09:19


 **********************************************************************************************************************************
 LABEL *                                                                                 
  64 bit mpp version                                                                     DATE: 11-Mar-20          TIME: 16:06:56  
 **********************************************************************************************************************************

 SHA1:             d688ac825633d238f2093ded1675ba87ccd55965
 **********************************************************************************************************************************

 THRESHOLDS:

 ZERO    =  1.00D-12  ONEINT  =  1.00D-12  TWOINT  =  1.00D-11  PREFAC  =  1.00D-14  XXXXXX  =  1.00D-09  EORDER  =  1.00D-04
 ENERGY  =  1.00D-10  ETEST   =  0.00D+00  EDENS   =  0.00D+00  THRDEDEF=  1.00D-06  GRADIENT=  1.00D-02  STEP    =  1.00D-03
 ORBITAL =  1.00D-10  CIVEC   =  1.00D-05  COEFF   =  1.00D-04  PRINTCI =  5.00D-02  PUNCHCI =  9.90D+01  OPTGRAD =  3.00D-04
 OPTENERG=  1.00D-06  OPTSTEP =  3.00D-04  THRGRAD =  1.00D-10  COMPRESS=  1.00D-11  VARMIN  =  1.00D-07  VARMAX  =  1.00D-03
 THRDOUB =  0.00D+00  THRDIV  =  1.00D-05  THRRED  =  1.00D-07  THRPSP  =  1.00D+00  THRDC   =  1.00D-10  THRCS   =  1.00D-10
 THRNRM  =  1.00D-08  THREQ   =  0.00D+00  THRDE   =  1.00D+00  THRREF  =  1.00D-05  SPARFAC =  1.00D+00  THRDLP  =  1.00D-07
 THRDIA  =  1.00D-10  THRDLS  =  1.00D-07  THRGPS  =  0.00D+00  THRKEX  =  0.00D+00  THRDIS  =  2.00D-01  THRVAR  =  1.00D-10
 THRLOC  =  1.00D-06  THRGAP  =  1.00D-06  THRLOCT = -1.00D+00  THRGAPT = -1.00D+00  THRORB  =  1.00D-06  THRMLTP =  0.00D+00
 THRCPQCI=  1.00D-10  KEXTA   =  0.00D+00  THRCOARS=  0.00D+00  SYMTOL  =  1.00D-06  GRADTOL =  1.00D-06  THROVL  =  1.00D-08
 THRORTH =  1.00D-08  GRID    =  1.00D-08  GRIDMAX =  1.00D-03  DTMAX   =  0.00D+00  THROCCDE=  1.00D-01  THROCCDE=  1.00D-01
 THRPRINT=  2.50D-01


 Variable memory set to 2000000000 words,  buffer space 

 ZSYMEL=NOSYM
 ZUNIT=ANG


Geometry recognized as XYZ

 SETTING NKERNA         =         1.00000000                                  
 SETTING NKERNB         =         1.00000000                                  
 SETTING GF             =     0.00000000D+00                                  
 SETTING SING           =         1.00000000                                  
 SETTING THRDUM         =     1.00000000D-04                                  
 SETTING GRIDTHR        =     1.00000000D-08                                  
 SETTING BASIS          =    AVTZ


 Recomputing integrals since basis changed


 Using spherical harmonics

 Library entry O      S aug-cc-pVTZ          selected for orbital group  1
 Library entry O      P aug-cc-pVTZ          selected for orbital group  1
 Library entry O      D aug-cc-pVTZ          selected for orbital group  1
 Library entry O      F aug-cc-pVTZ          selected for orbital group  1
 Library entry H      S aug-cc-pVTZ          selected for orbital group  2
 Library entry H      P aug-cc-pVTZ          selected for orbital group  2
 Library entry H      D aug-cc-pVTZ          selected for orbital group  2
 Library entry C      S aug-cc-pVTZ          selected for orbital group  3
 Library entry C      P aug-cc-pVTZ          selected for orbital group  3
 Library entry C      D aug-cc-pVTZ          selected for orbital group  3
 Library entry C      F aug-cc-pVTZ          selected for orbital group  3


 PROGRAM * SEWARD (Integral evaluation for generally contracted gaussian basis sets)     Author: Roland Lindh, 1990

 Geometry written to block  1 of record 700


 Point group  C1  



 ATOMIC COORDINATES

 NR  ATOM    CHARGE       X              Y              Z

   1  O4      8.00   -4.078028977   -2.591381435   -1.799397216
   2  H7      1.00   -5.032718615   -1.436758773   -2.879375696
   3  H8      1.00   -2.589302736   -1.626109330   -1.217739515
   4  C1      6.00   -6.193010455    2.801518980    2.403542658
   5  H41     1.00   -4.656285171    1.699997622    3.119937832
   6  H42     1.00   -5.973046335    4.726205038    2.982932688
   7  H43     1.00   -7.940251230    2.077186956    3.118237078
   8  H44     1.00   -6.176569838    2.685300823    0.384937212

 Bond lengths in Bohr (Angstrom)

 1-2  1.846872847  1-3  1.867185512  4-5  2.021904040  4-6  2.022002335  4-7  2.021953343
     ( 0.977323022)     ( 0.988072022)     ( 1.069945541)     ( 1.069997556)     ( 1.069971630)

 4-8  2.022015060
     ( 1.070004290)

 Bond angles

  2-1-3  105.73056797   5-4-6  109.53398059   5-4-7  109.65604535   5-4-8  108.43490854

  6-4-7  109.49436728   6-4-8  109.86987750   7-4-8  109.83468330

 NUCLEAR CHARGE:                   20
 NUMBER OF PRIMITIVE AOS:         296
 NUMBER OF SYMMETRY AOS:          266
 NUMBER OF CONTRACTIONS:          230   (  230A   )
 NUMBER OF CORE ORBITALS:           2   (    2A   )
 NUMBER OF VALENCE ORBITALS:       14   (   14A   )


 NUCLEAR REPULSION ENERGY   36.73664214


 Basis set:  JKFIT                   
 Basis size:   740
 Attributes:
 Sphericals:   T
 Basis set:  MP2FIT                  
 Basis size:   816
 Attributes:
 Sphericals:   T
 Basis set:  RI                      
 Basis size:   556
 Attributes:
 Sphericals:   T
 Basis set:  TDDFT                   
 Basis size:   816
 Attributes:
 Sphericals:   T

 **********************************************************************************************************************************


 Eigenvalues of metric

         1 0.672E-04 0.828E-04 0.933E-04 0.101E-03 0.337E-03 0.391E-03 0.699E-03 0.710E-03


 Contracted 2-electron integrals neglected if value below      1.0D-14
 AO integral compression algorithm  1   Integral accuracy      1.0D-14

     2294.809 MB (compressed) written to integral file ( 71.6%)

     Node minimum: 538.444 MB, node maximum: 597.164 MB


 NUMBER OF SORTED TWO-ELECTRON INTEGRALS:   88219044.     BUFFER LENGTH:  32768
 NUMBER OF SEGMENTS:   6  SEGMENT LENGTH:   15998348      RECORD LENGTH: 524288

 Memory used in sort:      16.56 MW

 SORT1 READ   400769927. AND WROTE    83134686. INTEGRALS IN    241 RECORDS. CPU TIME:     7.70 SEC, REAL TIME:     8.66 SEC
 SORT2 READ   332825365. AND WROTE   352862895. INTEGRALS IN   8760 RECORDS. CPU TIME:     2.10 SEC, REAL TIME:     2.82 SEC

 Node minimum:    88205762.  Node maximum:    88225686. integrals

 OPERATOR DM      FOR CENTER  0  COORDINATES:    0.000000    0.000000    0.000000


 **********************************************************************************************************************************
 DATASETS  * FILE   NREC   LENGTH (MB)   RECORD NAMES
              1      18       32.04       500      610      700      900      950      970     1000      129      960     1100   
                                          VAR    BASINP    GEOM    SYMINP    ZMAT    AOBASIS   BASIS     P2S    ABASIS      S 
                                         1400     1410     1200     1210     1080     1600     1650     1700   
                                           T        V       H0       H01     AOSYM     SMH    MOLCAS    OPER   

 PROGRAMS   *        TOTAL       INT
 CPU TIMES  *        14.80     14.60
 REAL TIME  *        19.77 SEC
 DISK USED  *        32.49 MB (local),        6.37 GB (total)
 GA USED    *         0.00 MB       (max)       0.00 MB       (current)
 **********************************************************************************************************************************


 PROGRAM * RHF-SCF (CLOSED SHELL)       Authors: W. Meyer, H.-J. Werner


 NUMBER OF ELECTRONS:      10+   10-    SPACE SYMMETRY=1    SPIN SYMMETRY: Singlet 
 CONVERGENCE THRESHOLDS:    1.00E-08 (Density)    1.00E-11 (Energy)
 MAX. NUMBER OF ITERATIONS:       60
 INTERPOLATION TYPE:            DIIS
 INTERPOLATION STEPS:              2 (START)      1 (STEP)
 LEVEL SHIFTS:                  0.00 (CLOSED)  0.00 (OPEN) 



 Orbital guess generated from atomic densities. Full valence occupancy:   16

 Molecular orbital dump at record        2100.2

 Initial occupancy:  10

 ITERATION    DDIFF          GRAD             ENERGY        2-EL.EN.            DIPOLE MOMENTS         DIIS   ORB.
    1      0.000D+00      0.000D+00      -116.21222821    158.877033    0.28064    1.08406   -0.25393    0    start
    2      0.000D+00      0.523D-02      -116.25616067    154.052120    0.13366    0.61471   -0.10991    1    diag
    3      0.551D-02      0.308D-02      -116.26964800    156.069177    0.17099    0.73394   -0.14793    2    diag
    4      0.183D-02      0.456D-03      -116.27030849    155.958137    0.16850    0.72369   -0.14693    3    diag
    5      0.399D-03      0.134D-03      -116.27037650    155.952257    0.16792    0.72359   -0.14658    4    diag
    6      0.144D-03      0.327D-04      -116.27038031    155.958187    0.16766    0.72291   -0.14641    5    diag
    7      0.412D-04      0.629D-05      -116.27038053    155.956606    0.16764    0.72295   -0.14643    6    diag
    8      0.113D-04      0.160D-05      -116.27038055    155.956758    0.16761    0.72289   -0.14641    7    diag
    9      0.219D-05      0.360D-06      -116.27038055    155.956732    0.16760    0.72287   -0.14640    8    diag
   10      0.749D-06      0.422D-07      -116.27038055    155.956734    0.16760    0.72287   -0.14640    9    orth
   11      0.588D-07      0.111D-07      -116.27038055    155.956735    0.16760    0.72287   -0.14640    9    diag
   12      0.241D-07      0.301D-08      -116.27038055    155.956734    0.16760    0.72287   -0.14640    9    diag
   13      0.461D-08      0.803D-09      -116.27038055    155.956735    0.16760    0.72287   -0.14640    0    orth

 Final occupancy:  10

 !RHF STATE  1.1 Energy              -116.270380548810
 Nuclear energy                        36.73664214
 One-electron energy                 -230.98539003
 Two-electron energy                   77.97836734
 Virial quotient                       -1.00121979
 !RHF STATE  1.1 Dipole moment          0.16759745     0.72287205    -0.14640286
 Dipole moment /Debye                   0.42596232     1.83723713    -0.37209459

 Orbital energies:

         1.1          2.1          3.1          4.1          5.1          6.1          7.1          8.1          9.1         10.1
    -20.570039   -11.200884    -1.339292    -0.954280    -0.705644    -0.577726    -0.555660    -0.552801    -0.551397    -0.506605

        11.1         12.1
      0.026440     0.042236


 HOMO     10.1    -0.506605 =     -13.7854eV
 LUMO     11.1     0.026440 =       0.7195eV
 LUMO-HOMO         0.533045 =      14.5049eV


 **********************************************************************************************************************************
 DATASETS  * FILE   NREC   LENGTH (MB)   RECORD NAMES
              1      18       32.04       500      610      700      900      950      970     1000      129      960     1100   
                                          VAR    BASINP    GEOM    SYMINP    ZMAT    AOBASIS   BASIS     P2S    ABASIS      S 
                                         1400     1410     1200     1210     1080     1600     1650     1700   
                                           T        V       H0       H01     AOSYM     SMH    MOLCAS    OPER   

              2       4        3.96       700     1000      520     2100   
                                         GEOM     BASIS   MCVARS     RHF  

 PROGRAMS   *        TOTAL    HF-SCF       INT
 CPU TIMES  *        28.78     13.97     14.60
 REAL TIME  *        35.10 SEC
 DISK USED  *        39.90 MB (local),        6.40 GB (total)
 SF USED    *         0.21 MB
 GA USED    *         0.00 MB       (max)       0.00 MB       (current)
 **********************************************************************************************************************************

 Basis set:  JKFIT                   
 Basis size:   740
 Attributes:
 Sphericals:   T
 Basis set:  MP2FIT                  
 Basis size:   816
 Attributes:
 Sphericals:   T
 Basis set:  RI                      
 Basis size:   556
 Attributes:
 Sphericals:   T
 Basis set:  TDDFT                   
 Basis size:   816
 Attributes:
 Sphericals:   T

 PROGRAM * CCSD (Closed-shell coupled cluster)     Authors: C. Hampel, H.-J. Werner, 1991, M. Deegan, P.J. Knowles, 1992

                                  CCSD-F12 implementation by  H.-J. Werner, 2007

                   Density fitting integral evaluation by F.R. Manby, 2003,2007, G. Knizia, 2010



 Convergence thresholds:  THRVAR = 1.00D-08  THRDEN = 1.00D-10

 CCSD(T)     terms to be evaluated (factor= 1.000)


 Number of core orbitals:           2 (   2 )
 Number of closed-shell orbitals:   8 (   8 )
 Number of external orbitals:     220 ( 220 )

 Molecular orbitals read from record     2100.2  Type=RHF/CANONICAL (state 1.1)

 MP2-F12 correlation treatment (H.-J. Werner, 2006)
 ==================================================

 Using MP2-F12 with ansatz 3C(FIX)

 Using projected zeroth-order Hamiltonian (+Z)

 FOCKRIB=T FOCKRIC=T FOCKRIP=T CABSP=T CABSA=T CABSK=T CABSF=T GBC=F EBC=F DMAT=T NOFIK=T NOPAO=1 SOLVE=-1  USEPAO=0
 EXCH_A= T EXCH_B= F EXCH_C= F EXCH_P= F

 Geminal basis:    OPTFULL  GEM_TYPE=SLATER  BETA=1.0  NGEM=6

 Optimizing Gaussian exponents for each gem_beta

 Geminal optimization for beta= 1.0000
 Weight function:   m=0, omega= 1.4646

 Augmented Hessian optimization of geminal fit. Trust ratio= 0.40000
 Convergence reached after   2 iterations. Final gradient= 7.85D-16, Step= 4.26D-06, Delta= 1.28D-09

 Alpha:                 0.19532     0.81920     2.85917     9.50073    35.69989   197.79328
 Coeff:                 0.27070     0.30552     0.18297     0.10986     0.06810     0.04224


 All pairs explicitly correlated. Number of r12-pairs:           36

 Excluding core orbitals from MO domains

 AO(A)-basis ORBITAL           loaded. Number of functions:     230
 RI(R)-basis RI                loaded. Number of functions:     556
 DF-basis JKFIT                loaded. Number of functions:     740

 Screening thresholds:   THRAO=  1.00D-10  THRMO=  1.00D-09  THRPROD=  1.00D-09
                         THRSW=  1.00D-05  THROV=  1.00D-12  THRAOF12= 1.00D-10

 CPU time for Fock operators                      3.70 sec

 Construction of ABS:
 Smallest eigenvalue of S          1.16E-04  (threshold= 1.00E-08)
 Ratio eigmin/eigmax               1.65E-05  (threshold= 1.00E-09)
 Smallest eigenvalue of S kept     1.16E-04  (threshold= 1.16E-04, 0 functions deleted, 556 kept)

 Construction of CABS:
 Smallest eigenvalue of S          6.63E-07  (threshold= 1.00E-08)
 Ratio eigmin/eigmax               6.63E-07  (threshold= 1.00E-09)
 Smallest eigenvalue of S kept     6.63E-07  (threshold= 6.63E-07, 0 functions deleted, 556 kept)

 CPU time for CABS singles                        0.68 sec

 CABS-singles contribution of  -0.00236754 patched into reference energy.
 New reference energy        -116.27274809

 AO(A)-basis ORBITAL           loaded. Number of functions:     230
 RI(R)-basis RI                loaded. Number of functions:     556
 DF-basis MP2FIT               loaded. Number of functions:     816

 Screening thresholds:   THRAO=  1.00D-10  THRMO=  1.00D-09  THRPROD=  1.00D-09
                         THRSW=  1.00D-05  THROV=  1.00D-12  THRAOF12= 1.00D-10

 CPU time for 3-index integral evaluation         5.74 sec
 CPU time for first  half transformation          1.19 sec ( 2278.0 MFLOP/sec)
 CPU time for second half transformation          0.02 sec ( 2752.6 MFLOP/sec)
 CPU time for sorting                             0.10 sec
 CPU time for fitting                             0.56 sec ( 3881.0 MFLOP/sec)
 CPU time for tilde quantities                    0.64 sec ( 4311.4 MFLOP/sec)
 CPU time for assembly                            4.57 sec ( 4333.9 MFLOP/sec)
 CPU time for tranop_f12                          4.46 sec ( 4280.2 MFLOP/sec)
 CPU time for f12 integrals (total)              24.20 sec, Elapsed time:     25.24 sec
 F12-matrices built in  4 passes.
 F12-matrices built in  4 passes.
 F12-matrices built in  4 passes.
 F12-matrices built in  4 passes.
 FC-matrix built in  4 passes.
 CPU time for f12 matrices (total)                1.19 sec, Elapsed time:      1.25 sec

 Diagonal F12 approximation with fixed coefficients:  TSING= 0.500,  TTRIP= 0.250 (scaled by -1/beta)

 DF-MP2-F12 energy corrections:
 ==============================
 Approx.                                    Singlet             Triplet             Total
 DF-MP2-F12/3*C(DX,FIX)                -0.046193280160     -0.006800455651     -0.052993735812
 DF-MP2-F12/3*C(FIX)                   -0.039888578497     -0.005611855065     -0.045500433562
 DF-MP2-F12/3C(FIX)                    -0.040007654297     -0.005577834520     -0.045585488816

 DF-MP2-F12 correlation energies:
 ================================
 Approx.                                    Singlet             Triplet             Ecorr            Total Energy
 DF-MP2                                -0.317670090294     -0.153989688169     -0.471659778462   -116.744407869159
 DF-MP2-F12/3*C(DX,FIX)                -0.363863370454     -0.160790143820     -0.524653514274   -116.797401604971
 DF-MP2-F12/3*C(FIX)                   -0.357558668791     -0.159601543234     -0.517160212025   -116.789908302722
 DF-MP2-F12/3C(FIX)                    -0.357677744591     -0.159567522688     -0.517245267279   -116.789993357976

 SCS-DF-MP2 energies (F_SING= 1.20000  F_TRIP= 0.62222  F_PARALLEL= 0.33333):
 ============================================================================
 SCS-DF-MP2                            -0.477019914324   -116.749768005021
 SCS-DF-MP2-F12/3*C(DX,FIX)            -0.536683245144   -116.809431335841
 SCS-DF-MP2-F12/3*C(FIX)               -0.528378029450   -116.801126120147
 SCS-DF-MP2-F12/3C(FIX)                -0.528499752070   -116.801247842767
 Symmetry transformation completed.

 Number of N-1 electron functions:               8
 Number of N-2 electron functions:              36
 Number of singly external CSFs:              1760
 Number of doubly external CSFs:           1549680
 Total number of CSFs:                     1551441

 Pair and operator lists are different

 Length of J-op  integral file:             315.61 MB
 Length of K-op  integral file:             368.50 MB
 Length of 3-ext integral record:             0.00 MB

 Memory could be reduced to 116.32 Mwords without degradation in triples

 Integral transformation finished. Total CPU:  25.57 sec, npass=  1  Memory used:  59.34 MW

 Reference energy:                   -116.27274809

 Adding F12 terms to K(Cij), methodcc=6,  factor= 1.0

 ITER.      SQ.NORM     CORR.ENERGY   TOTAL ENERGY   ENERGY CHANGE        DEN1      VAR(S)    VAR(P)  DIIS     TIME  TIME/IT
   1      1.13236244    -0.48628642  -116.75903451    -0.01460924    -0.00292608  0.15D-02  0.20D-02  1  1    72.71    15.47
   2      1.14065930    -0.48655827  -116.75930636    -0.00027185    -0.00974642  0.28D-04  0.23D-03  2  2    88.44    15.75
   3      1.14356548    -0.48681869  -116.75956678    -0.00026042    -0.00198069  0.13D-04  0.12D-04  3  3   104.34    15.88
   4      1.14444994    -0.48687409  -116.75962218    -0.00005540    -0.00048569  0.53D-06  0.11D-05  4  4   120.18    15.95
   5      1.14459758    -0.48686873  -116.75961682     0.00000536    -0.00003996  0.21D-06  0.78D-07  5  5   136.17    16.01
   6      1.14463881    -0.48686574  -116.75961383     0.00000299    -0.00000626  0.19D-07  0.62D-08  6  6   151.35    16.00
   7      1.14464860    -0.48686501  -116.75961310     0.00000072    -0.00000256  0.19D-08  0.10D-08  6  2   165.97    15.85
   8      1.14465080    -0.48686489  -116.75961298     0.00000012    -0.00000029  0.37D-09  0.11D-09  6  1   180.70    15.74
   9      1.14465163    -0.48686497  -116.75961306    -0.00000008     0.00000001  0.36D-10  0.17D-10  6  3   195.35    15.65
  10      1.14465182    -0.48686496  -116.75961305     0.00000001     0.00000003  0.44D-11  0.23D-11  6  4   210.72    15.68
  11      1.14465175    -0.48686497  -116.75961306    -0.00000001     0.00000008  0.79D-12  0.33D-12  6  5   225.44    15.61
  12      1.14465173    -0.48686497  -116.75961306    -0.00000000     0.00000002  0.15D-12  0.48D-13  6  6   240.09    15.55
  13      1.14465170    -0.48686497  -116.75961306    -0.00000000     0.00000001  0.23D-13  0.75D-14  6  2   254.82    15.50
  14      1.14465169    -0.48686497  -116.75961306    -0.00000000     0.00000000  0.28D-14  0.15D-14  6  1   270.33    15.52
  15      1.14465169    -0.48686497  -116.75961306    -0.00000000    -0.00000000  0.28D-15  0.17D-15  6  3   285.05    15.48
  16      1.14465169    -0.48686497  -116.75961306     0.00000000    -0.00000000  0.37D-16  0.23D-16  6  4   299.69    15.44
  17      1.14465169    -0.48686497  -116.75961306     0.00000000    -0.00000000  0.70D-17  0.36D-17  6  5   314.43    15.41

 Norm of t1 vector:      0.05083526      S-energy:     0.00000000      T1 diagnostic:  0.00898649
                                                                       D1 diagnostic:  0.01918748

 Adding energy correction from Wij-K(Fij), methodcc=6  factor= 1.0

  CCSD correlation energy              -0.486864968897
  MP2-F12 correction (uncoupled)       -0.045323848389
  C*T doubles correction               -0.000608922998
  f12b correction                       0.008423452376


 Total CPU time for triples:    224.13 sec

  Ecorr(MP2)                           -0.471677173852
  Ecorr(MP2-F12)                       -0.517262662668
  Scale factor for triples energy       1.096645526524


 RESULTS
 =======

  Reference energy                   -116.270380548809
  F12 singles correction               -0.002367541888

 F12 singles corrections added to reference energy

  New reference energy               -116.272748090697

  F12a singlet correction              -0.040259984750
  F12a triplet correction              -0.005672786637
  F12a total correction                -0.045932771387

 F12a corrections for ansatz F12/3C(FIX) added to CCSD energy

  CCSD-F12a singlet pair energy        -0.386351135836
  CCSD-F12a triplet pair energy        -0.146446604559
  CCSD-F12a correlation energy         -0.532797740284

  Triples (T) contribution (scaled)    -0.016544170172
  Total correlation energy             -0.549341910456

  CCSD-F12a total energy             -116.805545830981
  CCSD[T]-F12a energy                -116.822686787060
  CCSD-T-F12a energy                 -116.821867544651
 !CCSD(T)-F12a total energy          -116.822090001153

 F12b corrections for ansatz F12/3C(FIX) added to CCSD(T)-F12a energy

  CCSD-F12b singlet pair energy        -0.378458684234
  CCSD-F12b triplet pair energy        -0.145915603786
  CCSD-F12b correlation energy         -0.524374287908

  Triples (T) contribution (scaled)    -0.016544170172
  Total correlation energy             -0.540918458081

  CCSD-F12b total energy             -116.797122378605
  CCSD[T]-F12b energy                -116.814263334684
  CCSD-T-F12b energy                 -116.813444092276
 !CCSD(T)-F12b total energy          -116.813666548778

 Timing summary (sec):

 STEP                 CPU(USER)    SYS     CPU(TOT)    WALL
 Transformation         25.76      1.16     26.92     27.19
 CCSD iterations       256.96      4.23    261.19    262.04
 Triples               224.13      0.85    224.98    225.24
 MP2-F12                31.72      1.24     32.96     33.07
 F12b energy            12.13      0.13     12.26     12.26

 Program statistics:

 Available memory in ccsd:              1999999554
 Min. memory needed in ccsd:               4597329
 Max. memory used in ccsd:                 5918289
 Max. memory used in cckext:               4231061 (18 integral passes)



 **********************************************************************************************************************************
 DATASETS  * FILE   NREC   LENGTH (MB)   RECORD NAMES
              1      19      398.06       500      610      700      900      950      970     1000      129      960     1100   
                                          VAR    BASINP    GEOM    SYMINP    ZMAT    AOBASIS   BASIS     P2S    ABASIS      S 
                                         1400     1410     1200     1210     1080     1600     1650     1700     1380   
                                           T        V       H0       H01     AOSYM     SMH    MOLCAS    OPER     JKOP   

              2       6        5.03       700     1000      520     2100     7360     7350   
                                         GEOM     BASIS   MCVARS     RHF    F12ABS    EF12   

 PROGRAMS   *        TOTAL   CCSD(T)    HF-SCF       INT
 CPU TIMES  *       579.71    550.91     13.97     14.60
 REAL TIME  *       595.77 SEC
 DISK USED  *       570.60 MB (local),        8.02 GB (total)
 SF USED    *         1.36 GB
 GA USED    *         4.87 MB       (max)       0.00 MB       (current)
 **********************************************************************************************************************************

 Running procedure: SET_MONOMER1

 Dummy atoms: C1  H41  H42  H43  H44


 Recomputing one-electron integrals since nuclear charges changed


 PROGRAM * SEWARD (Integral evaluation for generally contracted gaussian basis sets)     Author: Roland Lindh, 1990

 Geometry written to block  1 of record 700


 Point group  C1  



 ATOMIC COORDINATES

 NR  ATOM    CHARGE       X              Y              Z

   1  O4      8.00   -4.078028977   -2.591381435   -1.799397216
   2  H7      1.00   -5.032718615   -1.436758773   -2.879375696
   3  H8      1.00   -2.589302736   -1.626109330   -1.217739515
   4  C1      0.00   -6.193010455    2.801518980    2.403542658
   5  H41     0.00   -4.656285171    1.699997622    3.119937832
   6  H42     0.00   -5.973046335    4.726205038    2.982932688
   7  H43     0.00   -7.940251230    2.077186956    3.118237078
   8  H44     0.00   -6.176569838    2.685300823    0.384937212

 Bond lengths in Bohr (Angstrom)

 1-2  1.846872847  1-3  1.867185512  4-5  2.021904040  4-6  2.022002335  4-7  2.021953343
     ( 0.977323022)     ( 0.988072022)     ( 1.069945541)     ( 1.069997556)     ( 1.069971630)

 4-8  2.022015060
     ( 1.070004290)

 Bond angles

  2-1-3  105.73056797   5-4-6  109.53398059   5-4-7  109.65604535   5-4-8  108.43490854

  6-4-7  109.49436728   6-4-8  109.86987750   7-4-8  109.83468330

 NUCLEAR CHARGE:                   10
 NUMBER OF PRIMITIVE AOS:         296
 NUMBER OF SYMMETRY AOS:          266
 NUMBER OF CONTRACTIONS:          230   (  230A   )
 NUMBER OF CORE ORBITALS:           1   (    1A   )
 NUMBER OF VALENCE ORBITALS:        6   (    6A   )

 MOLECULE CHANGED: INITIALIZING OCCUPATION AND DUMP RECORDS


 NUCLEAR REPULSION ENERGY    8.95390023

 Basis set:  JKFIT                   
 Basis size:   740
 Attributes:
 Sphericals:   T
 Basis set:  MP2FIT                  
 Basis size:   816
 Attributes:
 Sphericals:   T
 Basis set:  RI                      
 Basis size:   556
 Attributes:
 Sphericals:   T
 Basis set:  TDDFT                   
 Basis size:   816
 Attributes:
 Sphericals:   T

 Eigenvalues of metric

         1 0.672E-04 0.828E-04 0.933E-04 0.101E-03 0.337E-03 0.391E-03 0.699E-03 0.710E-03


 Contracted 2-electron integrals neglected if value below      1.0D-14

 OPERATOR DM      FOR CENTER  0  COORDINATES:    0.000000    0.000000    0.000000


 **********************************************************************************************************************************
 DATASETS  * FILE   NREC   LENGTH (MB)   RECORD NAMES
              1      18       32.04       500      610      700      900      950      970     1000      129      960     1100   
                                          VAR    BASINP    GEOM    SYMINP    ZMAT    AOBASIS   BASIS     P2S    ABASIS      S 
                                         1400     1410     1200     1210     1080     1600     1650     1700   
                                           T        V       H0       H01     AOSYM     SMH    MOLCAS    OPER   

              2       7        5.05       700     1000      520     2100     7360     7350      200   
                                         GEOM     BASIS   MCVARS     RHF    F12ABS    EF12    OPTIONS    

 PROGRAMS   *        TOTAL       INT   CCSD(T)    HF-SCF       INT
 CPU TIMES  *       579.92      0.20    550.91     13.97     14.60
 REAL TIME  *       596.53 SEC
 DISK USED  *       570.60 MB (local),        8.02 GB (total)
 SF USED    *         1.36 GB
 GA USED    *         4.87 MB       (max)       0.00 MB       (current)
 **********************************************************************************************************************************


 PROGRAM * RHF-SCF (CLOSED SHELL)       Authors: W. Meyer, H.-J. Werner


 NUMBER OF ELECTRONS:       5+    5-    SPACE SYMMETRY=1    SPIN SYMMETRY: Singlet 
 CONVERGENCE THRESHOLDS:    1.00E-08 (Density)    1.00E-11 (Energy)
 MAX. NUMBER OF ITERATIONS:       60
 INTERPOLATION TYPE:            DIIS
 INTERPOLATION STEPS:              2 (START)      1 (STEP)
 LEVEL SHIFTS:                  0.00 (CLOSED)  0.00 (OPEN) 



 Orbital guess generated from atomic densities. Full valence occupancy:    7

 Molecular orbital dump at record        2101.2

 Initial occupancy:   5

 ITERATION    DDIFF          GRAD             ENERGY        2-EL.EN.            DIPOLE MOMENTS         DIIS   ORB.
    1      0.000D+00      0.000D+00       -76.01941637     77.318523    0.27715    1.08794   -0.25386    0    start
    2      0.000D+00      0.639D-02       -76.04599779     73.672630    0.15804    0.63108   -0.14921    1    diag
    3      0.444D-02      0.410D-02       -76.05748517     75.287335    0.18696    0.74429   -0.17552    2    diag
    4      0.161D-02      0.377D-03       -76.05767867     75.197823    0.18525    0.73975   -0.17483    3    diag
    5      0.203D-03      0.106D-03       -76.05769930     75.212054    0.18457    0.73801   -0.17457    4    diag
    6      0.631D-04      0.208D-04       -76.05770060     75.211137    0.18441    0.73766   -0.17454    5    diag
    7      0.162D-04      0.413D-05       -76.05770067     75.211268    0.18435    0.73753   -0.17452    6    diag
    8      0.433D-05      0.761D-06       -76.05770067     75.211252    0.18434    0.73749   -0.17451    7    diag
    9      0.724D-06      0.990D-07       -76.05770067     75.211243    0.18434    0.73749   -0.17451    8    diag
   10      0.947D-07      0.248D-07       -76.05770067     75.211247    0.18434    0.73749   -0.17451    9    orth
   11      0.257D-07      0.452D-08       -76.05770067     75.211246    0.18434    0.73749   -0.17451    9    diag
   12      0.526D-08      0.738D-09       -76.05770067     75.211246    0.18434    0.73749   -0.17451    0    orth

 Final occupancy:   5

 !RHF STATE  1.1 Energy               -76.057700668047
 Nuclear energy                         8.95390023
 One-electron energy                 -122.61722386
 Two-electron energy                   37.60562295
 Virial quotient                       -1.00260988
 !RHF STATE  1.1 Dipole moment          0.18434082     0.73748501    -0.17451033
 Dipole moment /Debye                   0.46851695     1.87437716    -0.44353197

 Orbital energies:

         1.1          2.1          3.1          4.1          5.1          6.1          7.1
    -20.571025    -1.340013    -0.706325    -0.577685    -0.507941     0.019797     0.039592


 HOMO      5.1    -0.507941 =     -13.8218eV
 LUMO      6.1     0.019797 =       0.5387eV
 LUMO-HOMO         0.527738 =      14.3605eV


 **********************************************************************************************************************************
 DATASETS  * FILE   NREC   LENGTH (MB)   RECORD NAMES
              1      18       32.04       500      610      700      900      950      970     1000      129      960     1100   
                                          VAR    BASINP    GEOM    SYMINP    ZMAT    AOBASIS   BASIS     P2S    ABASIS      S 
                                         1400     1410     1200     1210     1080     1600     1650     1700   
                                           T        V       H0       H01     AOSYM     SMH    MOLCAS    OPER   

              2       8        9.09       700     1000      520     2100     7360     7350      200     2101   
                                         GEOM     BASIS   MCVARS     RHF    F12ABS    EF12    OPTIONS    RHF  

 PROGRAMS   *        TOTAL    HF-SCF       INT   CCSD(T)    HF-SCF       INT
 CPU TIMES  *       593.56     13.64      0.20    550.91     13.97     14.60
 REAL TIME  *       611.27 SEC
 DISK USED  *       570.60 MB (local),        8.02 GB (total)
 SF USED    *         1.36 GB
 GA USED    *         4.87 MB       (max)       0.00 MB       (current)
 **********************************************************************************************************************************

 Basis set:  JKFIT                   
 Basis size:   740
 Attributes:
 Sphericals:   T
 Basis set:  MP2FIT                  
 Basis size:   816
 Attributes:
 Sphericals:   T
 Basis set:  RI                      
 Basis size:   556
 Attributes:
 Sphericals:   T
 Basis set:  TDDFT                   
 Basis size:   816
 Attributes:
 Sphericals:   T

 PROGRAM * CCSD (Closed-shell coupled cluster)     Authors: C. Hampel, H.-J. Werner, 1991, M. Deegan, P.J. Knowles, 1992

                                  CCSD-F12 implementation by  H.-J. Werner, 2007

                   Density fitting integral evaluation by F.R. Manby, 2003,2007, G. Knizia, 2010



 Convergence thresholds:  THRVAR = 1.00D-08  THRDEN = 1.00D-10

 CCSD(T)     terms to be evaluated (factor= 1.000)


 Number of core orbitals:           1 (   1 )
 Number of closed-shell orbitals:   4 (   4 )
 Number of external orbitals:     225 ( 225 )

 Molecular orbitals read from record     2101.2  Type=RHF/CANONICAL (state 1.1)

 MP2-F12 correlation treatment (H.-J. Werner, 2006)
 ==================================================

 Using MP2-F12 with ansatz 3C(FIX)

 Using projected zeroth-order Hamiltonian (+Z)

 FOCKRIB=T FOCKRIC=T FOCKRIP=T CABSP=T CABSA=T CABSK=T CABSF=T GBC=F EBC=F DMAT=T NOFIK=T NOPAO=1 SOLVE=-1  USEPAO=0
 EXCH_A= T EXCH_B= F EXCH_C= F EXCH_P= F

 Geminal basis:    OPTFULL  GEM_TYPE=SLATER  BETA=1.0  NGEM=6

 Optimizing Gaussian exponents for each gem_beta

 Geminal optimization for beta= 1.0000
 Weight function:   m=0, omega= 1.4646

 Augmented Hessian optimization of geminal fit. Trust ratio= 0.40000
 Convergence reached after   2 iterations. Final gradient= 8.31D-16, Step= 4.24D-06, Delta= 1.28D-09

 Alpha:                 0.19532     0.81920     2.85917     9.50073    35.69989   197.79328
 Coeff:                 0.27070     0.30552     0.18297     0.10986     0.06810     0.04224


 All pairs explicitly correlated. Number of r12-pairs:           10

 Excluding core orbitals from MO domains

 AO(A)-basis ORBITAL           loaded. Number of functions:     230
 RI(R)-basis RI                loaded. Number of functions:     556
 DF-basis JKFIT                loaded. Number of functions:     740

 Screening thresholds:   THRAO=  1.00D-10  THRMO=  1.00D-09  THRPROD=  1.00D-09
                         THRSW=  1.00D-05  THROV=  1.00D-12  THRAOF12= 1.00D-10

 CPU time for Fock operators                      3.13 sec

 Construction of ABS:
 Smallest eigenvalue of S          1.16E-04  (threshold= 1.00E-08)
 Ratio eigmin/eigmax               1.65E-05  (threshold= 1.00E-09)
 Smallest eigenvalue of S kept     1.16E-04  (threshold= 1.16E-04, 0 functions deleted, 556 kept)

 Construction of CABS:
 Smallest eigenvalue of S          6.63E-07  (threshold= 1.00E-08)
 Ratio eigmin/eigmax               6.63E-07  (threshold= 1.00E-09)
 Smallest eigenvalue of S kept     6.63E-07  (threshold= 6.63E-07, 0 functions deleted, 556 kept)

 CPU time for CABS singles                        0.67 sec

 CABS-singles contribution of  -0.00145426 patched into reference energy.
 New reference energy         -76.05915493

 AO(A)-basis ORBITAL           loaded. Number of functions:     230
 RI(R)-basis RI                loaded. Number of functions:     556
 DF-basis MP2FIT               loaded. Number of functions:     816

 Screening thresholds:   THRAO=  1.00D-10  THRMO=  1.00D-09  THRPROD=  1.00D-09
                         THRSW=  1.00D-05  THROV=  1.00D-12  THRAOF12= 1.00D-10

 CPU time for 3-index integral evaluation         5.35 sec
 CPU time for first  half transformation          0.76 sec ( 1975.6 MFLOP/sec)
 CPU time for second half transformation          0.02 sec (  707.5 MFLOP/sec)
 CPU time for sorting                             0.02 sec
 CPU time for fitting                             0.38 sec ( 5579.2 MFLOP/sec)
 CPU time for tilde quantities                    0.37 sec ( 1673.6 MFLOP/sec)
 CPU time for assembly                            1.35 sec ( 3513.2 MFLOP/sec)
 CPU time for tranop_f12                          1.23 sec ( 3661.4 MFLOP/sec)
 CPU time for f12 integrals (total)              11.71 sec, Elapsed time:     12.09 sec
 F12-matrices built in  4 passes.
 F12-matrices built in  4 passes.
 F12-matrices built in  4 passes.
 F12-matrices built in  4 passes.
 FC-matrix built in  4 passes.
 CPU time for f12 matrices (total)                0.28 sec, Elapsed time:      0.29 sec

 Diagonal F12 approximation with fixed coefficients:  TSING= 0.500,  TTRIP= 0.250 (scaled by -1/beta)

 DF-MP2-F12 energy corrections:
 ==============================
 Approx.                                    Singlet             Triplet             Total
 DF-MP2-F12/3*C(DX,FIX)                -0.029474738919     -0.004860885700     -0.034335624618
 DF-MP2-F12/3*C(FIX)                   -0.024410716409     -0.003810006237     -0.028220722647
 DF-MP2-F12/3C(FIX)                    -0.024543293640     -0.003783273308     -0.028326566948

 DF-MP2-F12 correlation energies:
 ================================
 Approx.                                    Singlet             Triplet             Ecorr            Total Energy
 DF-MP2                                -0.172021136520     -0.098387479035     -0.270408615556    -76.329563542198
 DF-MP2-F12/3*C(DX,FIX)                -0.201495875439     -0.103248364735     -0.304744240174    -76.363899166816
 DF-MP2-F12/3*C(FIX)                   -0.196431852930     -0.102197485273     -0.298629338203    -76.357784264845
 DF-MP2-F12/3C(FIX)                    -0.196564430160     -0.102170752344     -0.298735182504    -76.357890109146

 SCS-DF-MP2 energies (F_SING= 1.20000  F_TRIP= 0.62222  F_PARALLEL= 0.33333):
 ============================================================================
 SCS-DF-MP2                            -0.267644239669    -76.326799166311
 SCS-DF-MP2-F12/3*C(DX,FIX)            -0.306038477473    -76.365193404115
 SCS-DF-MP2-F12/3*C(FIX)               -0.299307769908    -76.358462696550
 SCS-DF-MP2-F12/3C(FIX)                -0.299450228761    -76.358605155404
 Symmetry transformation completed.

 Number of N-1 electron functions:               4
 Number of N-2 electron functions:              10
 Number of singly external CSFs:               900
 Number of doubly external CSFs:            405450
 Total number of CSFs:                      406351

 Pair and operator lists are different

 Length of J-op  integral file:              81.60 MB
 Length of K-op  integral file:             128.10 MB
 Length of 3-ext integral record:             0.00 MB

 Memory could be reduced to 75.63 Mwords without degradation in triples

 Integral transformation finished. Total CPU:  12.52 sec, npass=  1  Memory used:  32.52 MW

 Reference energy:                    -76.05915493

 Adding F12 terms to K(Cij), methodcc=6,  factor= 1.0

 ITER.      SQ.NORM     CORR.ENERGY   TOTAL ENERGY   ENERGY CHANGE        DEN1      VAR(S)    VAR(P)  DIIS     TIME  TIME/IT
   1      1.06260791    -0.26997412   -76.32912905     0.00044203     0.00643567  0.80D-03  0.10D-02  1  1    33.84     3.93
   2      1.06608017    -0.26965483   -76.32880976     0.00031929    -0.00467266  0.14D-04  0.11D-03  2  2    37.77     4.00
   3      1.06734737    -0.26977906   -76.32893398    -0.00012422    -0.00084167  0.95D-05  0.61D-05  3  3    41.73     4.01
   4      1.06784942    -0.26981669   -76.32897161    -0.00003763    -0.00028119  0.43D-06  0.68D-06  4  4    45.65     4.03
   5      1.06794433    -0.26981380   -76.32896873     0.00000288    -0.00002922  0.17D-06  0.48D-07  5  5    49.99     4.13
   6      1.06797659    -0.26981165   -76.32896658     0.00000215    -0.00000454  0.17D-07  0.39D-08  6  6    53.90     4.12
   7      1.06798457    -0.26981133   -76.32896625     0.00000032    -0.00000149  0.15D-08  0.78D-09  6  1    57.87     4.11
   8      1.06798589    -0.26981131   -76.32896623     0.00000002     0.00000018  0.35D-09  0.10D-09  6  3    61.78     4.11
   9      1.06798698    -0.26981131   -76.32896624    -0.00000000    -0.00000027  0.22D-10  0.90D-11  6  2    65.70     4.10
  10      1.06798714    -0.26981130   -76.32896622     0.00000001    -0.00000001  0.34D-11  0.13D-11  6  4    69.65     4.10
  11      1.06798712    -0.26981130   -76.32896622     0.00000000     0.00000003  0.78D-12  0.23D-12  6  5    74.20     4.16
  12      1.06798712    -0.26981130   -76.32896622    -0.00000000     0.00000001  0.13D-12  0.36D-13  6  6    78.12     4.16
  13      1.06798710    -0.26981130   -76.32896623    -0.00000000     0.00000000  0.17D-13  0.64D-14  6  1    82.09     4.16
  14      1.06798710    -0.26981130   -76.32896623    -0.00000000     0.00000000  0.18D-14  0.95D-15  6  3    85.92     4.15
  15      1.06798709    -0.26981130   -76.32896623    -0.00000000     0.00000000  0.19D-15  0.13D-15  6  2    89.89     4.15
  16      1.06798709    -0.26981130   -76.32896623     0.00000000    -0.00000000  0.31D-16  0.19D-16  6  4    93.87     4.14
  17      1.06798709    -0.26981130   -76.32896623     0.00000000    -0.00000000  0.36D-17  0.22D-17  6  5    97.80     4.14

 Norm of t1 vector:      0.03732174      S-energy:    -0.00000000      T1 diagnostic:  0.00933043
                                                                       D1 diagnostic:  0.01856910

 Adding energy correction from Wij-K(Fij), methodcc=6  factor= 1.0

  CCSD correlation energy              -0.269811298931
  MP2-F12 correction (uncoupled)       -0.028055879876
  C*T doubles correction               -0.000413772144
  f12b correction                       0.004760774808


 Total CPU time for triples:     34.89 sec

  Ecorr(MP2)                           -0.270416158085
  Ecorr(MP2-F12)                       -0.298742725033
  Scale factor for triples energy       1.104751754291


 RESULTS
 =======

  Reference energy                    -76.057700668047
  F12 singles correction               -0.001454258595

 F12 singles corrections added to reference energy

  New reference energy                -76.059154926642

  F12a singlet correction              -0.024616346565
  F12a triplet correction              -0.003853305456
  F12a total correction                -0.028469652020

 F12a corrections for ansatz F12/3C(FIX) added to CCSD energy

  CCSD-F12a singlet pair energy        -0.207655959019
  CCSD-F12a triplet pair energy        -0.090624991903
  CCSD-F12a correlation energy         -0.298280950951

  Triples (T) contribution (scaled)    -0.009592391797
  Total correlation energy             -0.307873342749

  CCSD-F12a total energy              -76.357435877594
  CCSD[T]-F12a energy                 -76.367380276034
  CCSD-T-F12a energy                  -76.366883312964
 !CCSD(T)-F12a total energy           -76.367028269391

 F12b corrections for ansatz F12/3C(FIX) added to CCSD(T)-F12a energy

  CCSD-F12b singlet pair energy        -0.203253528165
  CCSD-F12b triplet pair energy        -0.090266647948
  CCSD-F12b correlation energy         -0.293520176143

  Triples (T) contribution (scaled)    -0.009592391797
  Total correlation energy             -0.303112567941

  CCSD-F12b total energy              -76.352675102786
  CCSD[T]-F12b energy                 -76.362619501226
  CCSD-T-F12b energy                  -76.362122538156
 !CCSD(T)-F12b total energy           -76.362267494583

 Timing summary (sec):

 STEP                 CPU(USER)    SYS     CPU(TOT)    WALL
 Transformation         12.57      0.41     12.98     13.00
 CCSD iterations        67.82      2.37     70.19     70.44
 Triples                34.89      0.34     35.23     35.48
 MP2-F12                17.44      0.46     17.90     17.92
 F12b energy             3.38      0.08      3.46      3.46

 Program statistics:

 Available memory in ccsd:              1999999871
 Min. memory needed in ccsd:               1862772
 Max. memory used in ccsd:                 2158322
 Max. memory used in cckext:               1445635 (18 integral passes)



 **********************************************************************************************************************************
 DATASETS  * FILE   NREC   LENGTH (MB)   RECORD NAMES
              1      19      222.31       500      610      700      900      950      970     1000      129      960     1100   
                                          VAR    BASINP    GEOM    SYMINP    ZMAT    AOBASIS   BASIS     P2S    ABASIS      S 
                                         1400     1410     1200     1210     1080     1600     1650     1700     1380   
                                           T        V       H0       H01     AOSYM     SMH    MOLCAS    OPER     JKOP   

              2       8        9.09       700     1000      520     2100     7360     7350      200     2101   
                                         GEOM     BASIS   MCVARS     RHF    F12ABS    EF12    OPTIONS    RHF  

 PROGRAMS   *        TOTAL   CCSD(T)    HF-SCF       INT   CCSD(T)    HF-SCF       INT
 CPU TIMES  *       729.89    136.32     13.64      0.20    550.91     13.97     14.60
 REAL TIME  *       752.32 SEC
 DISK USED  *       570.60 MB (local),        8.02 GB (total)
 SF USED    *         1.36 GB
 GA USED    *         4.87 MB       (max)       0.00 MB       (current)
 **********************************************************************************************************************************

 Running procedure: SET_MONOMER2

 Dummy atoms: O4  H7  H8


 Recomputing one-electron integrals since nuclear charges changed


 PROGRAM * SEWARD (Integral evaluation for generally contracted gaussian basis sets)     Author: Roland Lindh, 1990

 Geometry written to block  1 of record 700


 Point group  C1  



 ATOMIC COORDINATES

 NR  ATOM    CHARGE       X              Y              Z

   1  O4      0.00   -4.078028977   -2.591381435   -1.799397216
   2  H7      0.00   -5.032718615   -1.436758773   -2.879375696
   3  H8      0.00   -2.589302736   -1.626109330   -1.217739515
   4  C1      6.00   -6.193010455    2.801518980    2.403542658
   5  H41     1.00   -4.656285171    1.699997622    3.119937832
   6  H42     1.00   -5.973046335    4.726205038    2.982932688
   7  H43     1.00   -7.940251230    2.077186956    3.118237078
   8  H44     1.00   -6.176569838    2.685300823    0.384937212

 Bond lengths in Bohr (Angstrom)

 1-2  1.846872847  1-3  1.867185512  4-5  2.021904040  4-6  2.022002335  4-7  2.021953343
     ( 0.977323022)     ( 0.988072022)     ( 1.069945541)     ( 1.069997556)     ( 1.069971630)

 4-8  2.022015060
     ( 1.070004290)

 Bond angles

  2-1-3  105.73056797   5-4-6  109.53398059   5-4-7  109.65604535   5-4-8  108.43490854

  6-4-7  109.49436728   6-4-8  109.86987750   7-4-8  109.83468330

 NUCLEAR CHARGE:                   10
 NUMBER OF PRIMITIVE AOS:         296
 NUMBER OF SYMMETRY AOS:          266
 NUMBER OF CONTRACTIONS:          230   (  230A   )
 NUMBER OF CORE ORBITALS:           1   (    1A   )
 NUMBER OF VALENCE ORBITALS:        8   (    8A   )

 MOLECULE CHANGED: INITIALIZING OCCUPATION AND DUMP RECORDS


 NUCLEAR REPULSION ENERGY   13.68681606

 Basis set:  JKFIT                   
 Basis size:   740
 Attributes:
 Sphericals:   T
 Basis set:  MP2FIT                  
 Basis size:   816
 Attributes:
 Sphericals:   T
 Basis set:  RI                      
 Basis size:   556
 Attributes:
 Sphericals:   T
 Basis set:  TDDFT                   
 Basis size:   816
 Attributes:
 Sphericals:   T

 Eigenvalues of metric

         1 0.672E-04 0.828E-04 0.933E-04 0.101E-03 0.337E-03 0.391E-03 0.699E-03 0.710E-03


 Contracted 2-electron integrals neglected if value below      1.0D-14

 OPERATOR DM      FOR CENTER  0  COORDINATES:    0.000000    0.000000    0.000000


 **********************************************************************************************************************************
 DATASETS  * FILE   NREC   LENGTH (MB)   RECORD NAMES
              1      18       32.04       500      610      700      900      950      970     1000      129      960     1100   
                                          VAR    BASINP    GEOM    SYMINP    ZMAT    AOBASIS   BASIS     P2S    ABASIS      S 
                                         1400     1410     1200     1210     1080     1600     1650     1700   
                                           T        V       H0       H01     AOSYM     SMH    MOLCAS    OPER   

              2       8        9.09       700     1000      520     2100     7360     7350      200     2101   
                                         GEOM     BASIS   MCVARS     RHF    F12ABS    EF12    OPTIONS    RHF  

 PROGRAMS   *        TOTAL       INT   CCSD(T)    HF-SCF       INT   CCSD(T)    HF-SCF       INT
 CPU TIMES  *       730.11      0.21    136.32     13.64      0.20    550.91     13.97     14.60
 REAL TIME  *       753.06 SEC
 DISK USED  *       570.60 MB (local),        8.02 GB (total)
 SF USED    *         1.36 GB
 GA USED    *         4.87 MB       (max)       0.00 MB       (current)
 **********************************************************************************************************************************


 PROGRAM * RHF-SCF (CLOSED SHELL)       Authors: W. Meyer, H.-J. Werner


 NUMBER OF ELECTRONS:       5+    5-    SPACE SYMMETRY=1    SPIN SYMMETRY: Singlet 
 CONVERGENCE THRESHOLDS:    1.00E-08 (Density)    1.00E-11 (Energy)
 MAX. NUMBER OF ITERATIONS:       60
 INTERPOLATION TYPE:            DIIS
 INTERPOLATION STEPS:              2 (START)      1 (STEP)
 LEVEL SHIFTS:                  0.00 (CLOSED)  0.00 (OPEN) 



 Orbital guess generated from atomic densities. Full valence occupancy:    9

 Molecular orbital dump at record        2102.2

 Initial occupancy:   5

 ITERATION    DDIFF          GRAD             ENERGY        2-EL.EN.            DIPOLE MOMENTS         DIIS   ORB.
    1      0.000D+00      0.000D+00       -40.19358737     53.494040    0.00409   -0.00274   -0.00129    0    start
    2      0.000D+00      0.353D-02       -40.21070494     52.213678    0.00127   -0.00087   -0.00037    1    diag
    3      0.323D-02      0.137D-02       -40.21295344     52.664849    0.00180   -0.00123   -0.00054    2    diag
    4      0.903D-03      0.342D-03       -40.21326891     52.609822    0.00160   -0.00109   -0.00047    3    diag
    5      0.297D-03      0.444D-04       -40.21327430     52.612161    0.00157   -0.00107   -0.00046    4    diag
    6      0.810D-04      0.345D-05       -40.21327434     52.612258    0.00157   -0.00107   -0.00046    5    diag
    7      0.671D-05      0.264D-06       -40.21327434     52.612224    0.00157   -0.00107   -0.00046    6    diag
    8      0.999D-06      0.221D-07       -40.21327434     52.612225    0.00157   -0.00107   -0.00046    7    diag
    9      0.188D-06      0.283D-08       -40.21327434     52.612225    0.00157   -0.00107   -0.00046    8    diag
   10      0.106D-07      0.791D-09       -40.21327434     52.612225    0.00157   -0.00107   -0.00046    9    orth
   11      0.120D-08      0.106D-09       -40.21327434     52.612225    0.00157   -0.00107   -0.00046    0    orth

 Final occupancy:   5

 !RHF STATE  1.1 Energy               -40.213274342915
 Nuclear energy                        13.68681606
 One-electron energy                  -80.20620278
 Two-electron energy                   26.30611238
 Virial quotient                       -0.99870267
 !RHF STATE  1.1 Dipole moment          0.00156936    -0.00107223    -0.00045963
 Dipole moment /Debye                   0.00398867    -0.00272516    -0.00116819

 Orbital energies:

         1.1          2.1          3.1          4.1          5.1          6.1          7.1
    -11.197211    -0.950741    -0.551695    -0.549760    -0.547581     0.027699     0.042026


 HOMO      5.1    -0.547581 =     -14.9004eV
 LUMO      6.1     0.027699 =       0.7537eV
 LUMO-HOMO         0.575280 =      15.6542eV


 **********************************************************************************************************************************
 DATASETS  * FILE   NREC   LENGTH (MB)   RECORD NAMES
              1      18       32.04       500      610      700      900      950      970     1000      129      960     1100   
                                          VAR    BASINP    GEOM    SYMINP    ZMAT    AOBASIS   BASIS     P2S    ABASIS      S 
                                         1400     1410     1200     1210     1080     1600     1650     1700   
                                           T        V       H0       H01     AOSYM     SMH    MOLCAS    OPER   

              2       9       13.71       700     1000      520     2100     7360     7350      200     2101     2102   
                                         GEOM     BASIS   MCVARS     RHF    F12ABS    EF12    OPTIONS    RHF      RHF  

 PROGRAMS   *        TOTAL    HF-SCF       INT   CCSD(T)    HF-SCF       INT   CCSD(T)    HF-SCF       INT
 CPU TIMES  *       742.27     12.16      0.21    136.32     13.64      0.20    550.91     13.97     14.60
 REAL TIME  *       766.08 SEC
 DISK USED  *       570.60 MB (local),        8.02 GB (total)
 SF USED    *         1.36 GB
 GA USED    *         4.87 MB       (max)       0.00 MB       (current)
 **********************************************************************************************************************************

 Basis set:  JKFIT                   
 Basis size:   740
 Attributes:
 Sphericals:   T
 Basis set:  MP2FIT                  
 Basis size:   816
 Attributes:
 Sphericals:   T
 Basis set:  RI                      
 Basis size:   556
 Attributes:
 Sphericals:   T
 Basis set:  TDDFT                   
 Basis size:   816
 Attributes:
 Sphericals:   T

 PROGRAM * CCSD (Closed-shell coupled cluster)     Authors: C. Hampel, H.-J. Werner, 1991, M. Deegan, P.J. Knowles, 1992

                                  CCSD-F12 implementation by  H.-J. Werner, 2007

                   Density fitting integral evaluation by F.R. Manby, 2003,2007, G. Knizia, 2010



 Convergence thresholds:  THRVAR = 1.00D-08  THRDEN = 1.00D-10

 CCSD(T)     terms to be evaluated (factor= 1.000)


 Number of core orbitals:           1 (   1 )
 Number of closed-shell orbitals:   4 (   4 )
 Number of external orbitals:     225 ( 225 )

 Molecular orbitals read from record     2102.2  Type=RHF/CANONICAL (state 1.1)

 MP2-F12 correlation treatment (H.-J. Werner, 2006)
 ==================================================

 Using MP2-F12 with ansatz 3C(FIX)

 Using projected zeroth-order Hamiltonian (+Z)

 FOCKRIB=T FOCKRIC=T FOCKRIP=T CABSP=T CABSA=T CABSK=T CABSF=T GBC=F EBC=F DMAT=T NOFIK=T NOPAO=1 SOLVE=-1  USEPAO=0
 EXCH_A= T EXCH_B= F EXCH_C= F EXCH_P= F

 Geminal basis:    OPTFULL  GEM_TYPE=SLATER  BETA=1.0  NGEM=6

 Optimizing Gaussian exponents for each gem_beta

 Geminal optimization for beta= 1.0000
 Weight function:   m=0, omega= 1.4646

 Augmented Hessian optimization of geminal fit. Trust ratio= 0.40000
 Convergence reached after   2 iterations. Final gradient= 7.85D-16, Step= 4.26D-06, Delta= 1.28D-09

 Alpha:                 0.19532     0.81920     2.85917     9.50073    35.69989   197.79328
 Coeff:                 0.27070     0.30552     0.18297     0.10986     0.06810     0.04224


 All pairs explicitly correlated. Number of r12-pairs:           10

 Excluding core orbitals from MO domains

 AO(A)-basis ORBITAL           loaded. Number of functions:     230
 RI(R)-basis RI                loaded. Number of functions:     556
 DF-basis JKFIT                loaded. Number of functions:     740

 Screening thresholds:   THRAO=  1.00D-10  THRMO=  1.00D-09  THRPROD=  1.00D-09
                         THRSW=  1.00D-05  THROV=  1.00D-12  THRAOF12= 1.00D-10

 CPU time for Fock operators                      3.15 sec

 Construction of ABS:
 Smallest eigenvalue of S          1.16E-04  (threshold= 1.00E-08)
 Ratio eigmin/eigmax               1.65E-05  (threshold= 1.00E-09)
 Smallest eigenvalue of S kept     1.16E-04  (threshold= 1.16E-04, 0 functions deleted, 556 kept)

 Construction of CABS:
 Smallest eigenvalue of S          6.63E-07  (threshold= 1.00E-08)
 Ratio eigmin/eigmax               6.63E-07  (threshold= 1.00E-09)
 Smallest eigenvalue of S kept     6.63E-07  (threshold= 6.63E-07, 0 functions deleted, 556 kept)

 CPU time for CABS singles                        0.68 sec

 CABS-singles contribution of  -0.00091067 patched into reference energy.
 New reference energy         -40.21418501

 AO(A)-basis ORBITAL           loaded. Number of functions:     230
 RI(R)-basis RI                loaded. Number of functions:     556
 DF-basis MP2FIT               loaded. Number of functions:     816

 Screening thresholds:   THRAO=  1.00D-10  THRMO=  1.00D-09  THRPROD=  1.00D-09
                         THRSW=  1.00D-05  THROV=  1.00D-12  THRAOF12= 1.00D-10

 CPU time for 3-index integral evaluation         5.42 sec
 CPU time for first  half transformation          0.68 sec ( 2124.2 MFLOP/sec)
 CPU time for second half transformation          0.02 sec (  651.8 MFLOP/sec)
 CPU time for sorting                             0.05 sec
 CPU time for fitting                             0.34 sec ( 4433.8 MFLOP/sec)
 CPU time for tilde quantities                    0.39 sec ( 5436.1 MFLOP/sec)
 CPU time for assembly                            1.34 sec ( 3603.9 MFLOP/sec)
 CPU time for tranop_f12                          1.25 sec ( 3248.0 MFLOP/sec)
 CPU time for f12 integrals (total)              11.94 sec, Elapsed time:     12.26 sec
 F12-matrices built in  4 passes.
 F12-matrices built in  4 passes.
 F12-matrices built in  4 passes.
 F12-matrices built in  4 passes.
 FC-matrix built in  4 passes.
 CPU time for f12 matrices (total)                0.29 sec, Elapsed time:      0.30 sec

 Diagonal F12 approximation with fixed coefficients:  TSING= 0.500,  TTRIP= 0.250 (scaled by -1/beta)

 DF-MP2-F12 energy corrections:
 ==============================
 Approx.                                    Singlet             Triplet             Total
 DF-MP2-F12/3*C(DX,FIX)                -0.016699252661     -0.001926874736     -0.018626127397
 DF-MP2-F12/3*C(FIX)                   -0.015459239703     -0.001784627958     -0.017243867661
 DF-MP2-F12/3C(FIX)                    -0.015445384798     -0.001775903796     -0.017221288594

 DF-MP2-F12 correlation energies:
 ================================
 Approx.                                    Singlet             Triplet             Ecorr            Total Energy
 DF-MP2                                -0.145448900394     -0.055067017924     -0.200515918319    -40.414700932575
 DF-MP2-F12/3*C(DX,FIX)                -0.162148153056     -0.056993892661     -0.219142045716    -40.433327059973
 DF-MP2-F12/3*C(FIX)                   -0.160908140098     -0.056851645883     -0.217759785980    -40.431944800237
 DF-MP2-F12/3C(FIX)                    -0.160894285192     -0.056842921721     -0.217737206913    -40.431922221169

 SCS-DF-MP2 energies (F_SING= 1.20000  F_TRIP= 0.62222  F_PARALLEL= 0.33333):
 ============================================================================
 SCS-DF-MP2                            -0.208802602738    -40.422987616994
 SCS-DF-MP2-F12/3*C(DX,FIX)            -0.230040650211    -40.444225664467
 SCS-DF-MP2-F12/3*C(FIX)               -0.228464125555    -40.442649139812
 SCS-DF-MP2-F12/3C(FIX)                -0.228442071301    -40.442627085558
 Symmetry transformation completed.

 Number of N-1 electron functions:               4
 Number of N-2 electron functions:              10
 Number of singly external CSFs:               900
 Number of doubly external CSFs:            405450
 Total number of CSFs:                      406351

 Pair and operator lists are different

 Length of J-op  integral file:              81.60 MB
 Length of K-op  integral file:             128.10 MB
 Length of 3-ext integral record:             0.00 MB

 Memory could be reduced to 75.63 Mwords without degradation in triples

 Integral transformation finished. Total CPU:  12.34 sec, npass=  1  Memory used:  32.52 MW

 Reference energy:                    -40.21418501

 Adding F12 terms to K(Cij), methodcc=6,  factor= 1.0

 ITER.      SQ.NORM     CORR.ENERGY   TOTAL ENERGY   ENERGY CHANGE        DEN1      VAR(S)    VAR(P)  DIIS     TIME  TIME/IT
   1      1.06946311    -0.21558479   -40.42976980    -0.01505899    -0.00938198  0.67D-03  0.94D-03  1  1    33.96     3.99
   2      1.07449010    -0.21615246   -40.43033747    -0.00056767    -0.00524330  0.16D-04  0.83D-04  2  2    37.90     4.02
   3      1.07589815    -0.21630741   -40.43049243    -0.00015495    -0.00097978  0.20D-05  0.51D-05  3  3    41.82     4.03
   4      1.07623629    -0.21631975   -40.43050477    -0.00001234    -0.00017408  0.10D-06  0.25D-06  4  4    45.83     4.05
   5      1.07628104    -0.21631849   -40.43050350     0.00000126    -0.00000983  0.77D-08  0.17D-07  5  5    49.85     4.06
   6      1.07628691    -0.21631751   -40.43050252     0.00000098    -0.00000185  0.59D-09  0.12D-08  6  6    53.83     4.06
   7      1.07628806    -0.21631719   -40.43050220     0.00000032    -0.00000073  0.40D-10  0.99D-10  6  1    57.75     4.07
   8      1.07628809    -0.21631729   -40.43050230    -0.00000010     0.00000012  0.39D-11  0.60D-11  6  3    61.72     4.08
   9      1.07628820    -0.21631728   -40.43050229     0.00000001    -0.00000007  0.34D-12  0.50D-12  6  2    65.73     4.08
  10      1.07628820    -0.21631727   -40.43050229     0.00000000     0.00000001  0.36D-13  0.49D-13  6  4    69.80     4.09
  11      1.07628820    -0.21631727   -40.43050229     0.00000000     0.00000000  0.27D-14  0.51D-14  6  5    73.78     4.09
  12      1.07628820    -0.21631727   -40.43050229     0.00000000     0.00000000  0.56D-16  0.60D-15  6  6    77.74     4.09
  13      1.07628820    -0.21631727   -40.43050229    -0.00000000     0.00000000  0.79D-17  0.65D-16  6  1    81.71     4.09
  14      1.07628820    -0.21631727   -40.43050229    -0.00000000     0.00000000  0.15D-17  0.78D-17  6  3    85.67     4.09

 Norm of t1 vector:      0.03361830      S-energy:     0.00000000      T1 diagnostic:  0.00840457
                                                                       D1 diagnostic:  0.01339648

 Adding energy correction from Wij-K(Fij), methodcc=6  factor= 1.0

  CCSD correlation energy              -0.216317271923
  MP2-F12 correction (uncoupled)       -0.017233548065
  C*T doubles correction               -0.000193108733
  f12b correction                       0.003653391869

 Total CPU time for triples:     35.41 sec

  Ecorr(MP2)                           -0.200525796346
  Ecorr(MP2-F12)                       -0.217747084940
  Scale factor for triples energy       1.085880664273


 RESULTS
 =======

  Reference energy                    -40.213274342916
  F12 singles correction               -0.000910671340

 F12 singles corrections added to reference energy

  New reference energy                -40.214185014256

  F12a singlet correction              -0.015624950820
  F12a triplet correction              -0.001801705978
  F12a total correction                -0.017426656798

 F12a corrections for ansatz F12/3C(FIX) added to CCSD energy

  CCSD-F12a singlet pair energy        -0.178526741769
  CCSD-F12a triplet pair energy        -0.055217186978
  CCSD-F12a correlation energy         -0.233743928721

  Triples (T) contribution (scaled)    -0.006801884404
  Total correlation energy             -0.240545813124

  CCSD-F12a total energy              -40.447928942977
  CCSD[T]-F12a energy                 -40.454969981621
  CCSD-T-F12a energy                  -40.454656072650
 !CCSD(T)-F12a total energy           -40.454730827381

 F12b corrections for ansatz F12/3C(FIX) added to CCSD(T)-F12a energy

  CCSD-F12b singlet pair energy        -0.175044113793
  CCSD-F12b triplet pair energy        -0.055046423086
  CCSD-F12b correlation energy         -0.230090536852

  Triples (T) contribution (scaled)    -0.006801884404
  Total correlation energy             -0.236892421256

  CCSD-F12b total energy              -40.444275551109
  CCSD[T]-F12b energy                 -40.451316589752
  CCSD-T-F12b energy                  -40.451002680781
 !CCSD(T)-F12b total energy           -40.451077435512

 Timing summary (sec):

 STEP                 CPU(USER)    SYS     CPU(TOT)    WALL
 Transformation         12.40      0.48     12.88     12.90
 CCSD iterations        55.59      1.66     57.25     57.32
 Triples                35.41      0.14     35.55     35.59
 MP2-F12                17.68      0.41     18.09     18.10
 F12b energy             3.36      0.13      3.49      3.49

 Program statistics:

 Available memory in ccsd:              1999999866
 Min. memory needed in ccsd:               1862772
 Max. memory used in ccsd:                 2158322
 Max. memory used in cckext:               1445635 (15 integral passes)



 **********************************************************************************************************************************
 DATASETS  * FILE   NREC   LENGTH (MB)   RECORD NAMES
              1      19      222.31       500      610      700      900      950      970     1000      129      960     1100   
                                          VAR    BASINP    GEOM    SYMINP    ZMAT    AOBASIS   BASIS     P2S    ABASIS      S 
                                         1400     1410     1200     1210     1080     1600     1650     1700     1380   
                                           T        V       H0       H01     AOSYM     SMH    MOLCAS    OPER     JKOP   

              2       9       13.71       700     1000      520     2100     7360     7350      200     2101     2102   
                                         GEOM     BASIS   MCVARS     RHF    F12ABS    EF12    OPTIONS    RHF      RHF  

 PROGRAMS   *        TOTAL   CCSD(T)    HF-SCF       INT   CCSD(T)    HF-SCF       INT   CCSD(T)    HF-SCF       INT
 CPU TIMES  *       866.94    124.65     12.16      0.21    136.32     13.64      0.20    550.91     13.97     14.60
 REAL TIME  *       894.24 SEC
 DISK USED  *       570.60 MB (local),        8.02 GB (total)
 SF USED    *         1.36 GB
 GA USED    *         4.87 MB       (max)       0.00 MB       (current)
 **********************************************************************************************************************************
 Molecular orbitals read from record     2102.2  Type=RHF/CANONICAL (state 1.1)
 Occupation numbers read from record     2102.2  Type=RHF/RHF (state 1.1)
 Orbital energies read from record       2102.2  Type=RHF/CANONICAL (state 1.1)
 Redundancy group numbers read from rec  2102.2  Type=RHF/RHF (state 1.1)

 CCSD(T)-F12/aug-cc-pVTZ energy=    -40.451077435512

     CCSD(T)-F12          HF-SCF     CCSD(T)-F12          HF-SCF     CCSD(T)-F12          HF-SCF
    -40.45107744    -40.21327434    -76.36226749    -76.05770067   -116.81366655   -116.27038055
 **********************************************************************************************************************************
 Molpro calculation terminated
