
 Primary working directories    : /scratch/klimes/383151/molpro.A7BUyPMICV
 Secondary working directories  : /scratch/klimes/383151/molpro.A7BUyPMICV
 Wavefunction directory         : /scratch/klimes/383151/
 Main file repository           : /scratch/klimes/383151/molpro.A7BUyPMICV/

 id        : karlovklimes

 Nodes                      nprocs
 nc-04.cc.karlov.mff.cuni.cz    4

 Using customized tuning parameters: mindgm=1; mindgv=20; mindgc=4; mindgr=1; noblas=0; minvec=7
 default implementation of scratch files=sf  


 Variables initialized (930), CPU time= 0.01 sec
                                                                                 !gdirect
 memory,2000,m
 gthresh,orbital=1d-10,energy=1d-10,grid=1d-8
 
 symmetry,nosym
 angstrom
 geometry={
 O5        -0.319200000000      2.341100000000      3.764400000000
 H9         0.407500000000      2.568500000000      4.358500000000
 H10        -0.153000000000      1.405800000000      3.495900000000
 C1        -3.277200000000      1.482500000000      1.271900000000
 H41        -2.464000000000      0.899600000000      1.651000000000
 H42        -3.160800000000      2.501000000000      1.578500000000
 H43        -4.201800000000      1.099200000000      1.650100000000
 H44        -3.268500000000      1.421000000000      0.203700000000
 }
 
 nkerna=1
 nkernb=1
 
 gf=0
 sing=1
 thrdum=1d-4
 gridthr=1d-8
 
 basis={
 set,orbital
 default,avtz
 set,jkfit
 default,avqz/jkfit
 set,mp2fit
 default,avqz/mp2fit
 set,ri
 default,avqz/optri
 set,tddft
 default,avqz/mp2fit
 }
 
 proc set_monomer1
 dummy,4,5,6,7,8
 endproc
 
 proc set_monomer2
 dummy,1,2,3
 endproc
 
                                                                                 !12 energy
 {hf,accu=1.d-16}
 {ccsd(t)-f12,df_basis=mp2fit,df_basis_exch=jkfit,ri_basis=ri,scale_trip=1,THRAOF12=1d-10}
 
 set_monomer1
 {hf,accu=1.d-16}
 {ccsd(t)-f12,df_basis=mp2fit,df_basis_exch=jkfit,ri_basis=ri,scale_trip=1,THRAOF12=1d-10}
 
 set_monomer2
 {hf,accu=1.d-16}
 {ccsd(t)-f12,df_basis=mp2fit,df_basis_exch=jkfit,ri_basis=ri,scale_trip=1,THRAOF12=1d-10}
 
 Commands  initialized (760), CPU time= 0.01 sec, 617 directives.
 Default parameters read. Elapsed time= 0.21 sec

 Checking input...
 Passed
1


                                         ***  PROGRAM SYSTEM MOLPRO  ***
                                       Copyright, TTI GmbH Stuttgart, 2015
                                    Version 2019.1 linked Jan 14 2019 13:09:19


 **********************************************************************************************************************************
 LABEL *                                                                                 
  64 bit mpp version                                                                     DATE: 11-Mar-20          TIME: 16:08:24  
 **********************************************************************************************************************************

 SHA1:             d688ac825633d238f2093ded1675ba87ccd55965
 **********************************************************************************************************************************

 THRESHOLDS:

 ZERO    =  1.00D-12  ONEINT  =  1.00D-12  TWOINT  =  1.00D-11  PREFAC  =  1.00D-14  XXXXXX  =  1.00D-09  EORDER  =  1.00D-04
 ENERGY  =  1.00D-10  ETEST   =  0.00D+00  EDENS   =  0.00D+00  THRDEDEF=  1.00D-06  GRADIENT=  1.00D-02  STEP    =  1.00D-03
 ORBITAL =  1.00D-10  CIVEC   =  1.00D-05  COEFF   =  1.00D-04  PRINTCI =  5.00D-02  PUNCHCI =  9.90D+01  OPTGRAD =  3.00D-04
 OPTENERG=  1.00D-06  OPTSTEP =  3.00D-04  THRGRAD =  1.00D-10  COMPRESS=  1.00D-11  VARMIN  =  1.00D-07  VARMAX  =  1.00D-03
 THRDOUB =  0.00D+00  THRDIV  =  1.00D-05  THRRED  =  1.00D-07  THRPSP  =  1.00D+00  THRDC   =  1.00D-10  THRCS   =  1.00D-10
 THRNRM  =  1.00D-08  THREQ   =  0.00D+00  THRDE   =  1.00D+00  THRREF  =  1.00D-05  SPARFAC =  1.00D+00  THRDLP  =  1.00D-07
 THRDIA  =  1.00D-10  THRDLS  =  1.00D-07  THRGPS  =  0.00D+00  THRKEX  =  0.00D+00  THRDIS  =  2.00D-01  THRVAR  =  1.00D-10
 THRLOC  =  1.00D-06  THRGAP  =  1.00D-06  THRLOCT = -1.00D+00  THRGAPT = -1.00D+00  THRORB  =  1.00D-06  THRMLTP =  0.00D+00
 THRCPQCI=  1.00D-10  KEXTA   =  0.00D+00  THRCOARS=  0.00D+00  SYMTOL  =  1.00D-06  GRADTOL =  1.00D-06  THROVL  =  1.00D-08
 THRORTH =  1.00D-08  GRID    =  1.00D-08  GRIDMAX =  1.00D-03  DTMAX   =  0.00D+00  THROCCDE=  1.00D-01  THROCCDE=  1.00D-01
 THRPRINT=  2.50D-01


 Variable memory set to 2000000000 words,  buffer space 

 ZSYMEL=NOSYM
 ZUNIT=ANG


Geometry recognized as XYZ

 SETTING NKERNA         =         1.00000000                                  
 SETTING NKERNB         =         1.00000000                                  
 SETTING GF             =     0.00000000D+00                                  
 SETTING SING           =         1.00000000                                  
 SETTING THRDUM         =     1.00000000D-04                                  
 SETTING GRIDTHR        =     1.00000000D-08                                  
 SETTING BASIS          =    AVTZ


 Recomputing integrals since basis changed


 Using spherical harmonics

 Library entry O      S aug-cc-pVTZ          selected for orbital group  1
 Library entry O      P aug-cc-pVTZ          selected for orbital group  1
 Library entry O      D aug-cc-pVTZ          selected for orbital group  1
 Library entry O      F aug-cc-pVTZ          selected for orbital group  1
 Library entry H      S aug-cc-pVTZ          selected for orbital group  2
 Library entry H      P aug-cc-pVTZ          selected for orbital group  2
 Library entry H      D aug-cc-pVTZ          selected for orbital group  2
 Library entry C      S aug-cc-pVTZ          selected for orbital group  3
 Library entry C      P aug-cc-pVTZ          selected for orbital group  3
 Library entry C      D aug-cc-pVTZ          selected for orbital group  3
 Library entry C      F aug-cc-pVTZ          selected for orbital group  3


 PROGRAM * SEWARD (Integral evaluation for generally contracted gaussian basis sets)     Author: Roland Lindh, 1990

 Geometry written to block  1 of record 700


 Point group  C1  



 ATOMIC COORDINATES

 NR  ATOM    CHARGE       X              Y              Z

   1  O5      8.00   -0.603200579    4.424037830    7.113685023
   2  H9      1.00    0.770063396    4.853761551    8.236371314
   3  H10     1.00   -0.289128097    2.656576986    6.606293559
   4  C1      6.00   -6.193010455    2.801518980    2.403542658
   5  H41     1.00   -4.656285171    1.699997622    3.119937832
   6  H42     1.00   -5.973046335    4.726205038    2.982932688
   7  H43     1.00   -7.940251230    2.077186956    3.118237078
   8  H44     1.00   -6.176569838    2.685300823    0.384937212

 Bond lengths in Bohr (Angstrom)

 1-2  1.825086553  1-3  1.865477274  4-5  2.021904040  4-6  2.022002335  4-7  2.021953343
     ( 0.965794212)     ( 0.987168061)     ( 1.069945541)     ( 1.069997556)     ( 1.069971630)

 4-8  2.022015060
     ( 1.070004290)

 Bond angles

  2-1-3  105.29057030   5-4-6  109.53398059   5-4-7  109.65604535   5-4-8  108.43490854

  6-4-7  109.49436728   6-4-8  109.86987750   7-4-8  109.83468330

 NUCLEAR CHARGE:                   20
 NUMBER OF PRIMITIVE AOS:         296
 NUMBER OF SYMMETRY AOS:          266
 NUMBER OF CONTRACTIONS:          230   (  230A   )
 NUMBER OF CORE ORBITALS:           2   (    2A   )
 NUMBER OF VALENCE ORBITALS:       14   (   14A   )


 NUCLEAR REPULSION ENERGY   35.83278858


 Basis set:  JKFIT                   
 Basis size:   740
 Attributes:
 Sphericals:   T
 Basis set:  MP2FIT                  
 Basis size:   816
 Attributes:
 Sphericals:   T
 Basis set:  RI                      
 Basis size:   556
 Attributes:
 Sphericals:   T
 Basis set:  TDDFT                   
 Basis size:   816
 Attributes:
 Sphericals:   T

 **********************************************************************************************************************************


 Eigenvalues of metric

         1 0.664E-04 0.841E-04 0.103E-03 0.105E-03 0.331E-03 0.354E-03 0.702E-03 0.745E-03


 Contracted 2-electron integrals neglected if value below      1.0D-14
 AO integral compression algorithm  1   Integral accuracy      1.0D-14

     2078.015 MB (compressed) written to integral file ( 64.8%)

     Node minimum: 493.093 MB, node maximum: 536.871 MB


 NUMBER OF SORTED TWO-ELECTRON INTEGRALS:   88219044.     BUFFER LENGTH:  32768
 NUMBER OF SEGMENTS:   6  SEGMENT LENGTH:   15998348      RECORD LENGTH: 524288

 Memory used in sort:      16.56 MW

 SORT1 READ   400769927. AND WROTE    79457379. INTEGRALS IN    231 RECORDS. CPU TIME:     7.66 SEC, REAL TIME:     8.61 SEC
 SORT2 READ   318349129. AND WROTE   352862895. INTEGRALS IN   7896 RECORDS. CPU TIME:     2.41 SEC, REAL TIME:     3.21 SEC

 Node minimum:    88205762.  Node maximum:    88225686. integrals

 OPERATOR DM      FOR CENTER  0  COORDINATES:    0.000000    0.000000    0.000000


 **********************************************************************************************************************************
 DATASETS  * FILE   NREC   LENGTH (MB)   RECORD NAMES
              1      18       32.04       500      610      700      900      950      970     1000      129      960     1100   
                                          VAR    BASINP    GEOM    SYMINP    ZMAT    AOBASIS   BASIS     P2S    ABASIS      S 
                                         1400     1410     1200     1210     1080     1600     1650     1700   
                                           T        V       H0       H01     AOSYM     SMH    MOLCAS    OPER   

 PROGRAMS   *        TOTAL       INT
 CPU TIMES  *        15.03     14.83
 REAL TIME  *        20.12 SEC
 DISK USED  *        32.49 MB (local),        5.99 GB (total)
 GA USED    *         0.00 MB       (max)       0.00 MB       (current)
 **********************************************************************************************************************************


 PROGRAM * RHF-SCF (CLOSED SHELL)       Authors: W. Meyer, H.-J. Werner


 NUMBER OF ELECTRONS:      10+   10-    SPACE SYMMETRY=1    SPIN SYMMETRY: Singlet 
 CONVERGENCE THRESHOLDS:    1.00E-08 (Density)    1.00E-11 (Energy)
 MAX. NUMBER OF ITERATIONS:       60
 INTERPOLATION TYPE:            DIIS
 INTERPOLATION STEPS:              2 (START)      1 (STEP)
 LEVEL SHIFTS:                  0.00 (CLOSED)  0.00 (OPEN) 



 Orbital guess generated from atomic densities. Full valence occupancy:   16

 Molecular orbital dump at record        2100.2

 Initial occupancy:  10

 ITERATION    DDIFF          GRAD             ENERGY        2-EL.EN.            DIPOLE MOMENTS         DIIS   ORB.
    1      0.000D+00      0.000D+00      -116.21329996    157.367796    0.86685   -0.69297    0.31078    0    start
    2      0.000D+00      0.523D-02      -116.25730390    152.345947    0.51572   -0.35586    0.20948    1    diag
    3      0.551D-02      0.308D-02      -116.27075306    154.414797    0.60463   -0.43924    0.23569    2    diag
    4      0.182D-02      0.452D-03      -116.27140270    154.302978    0.59640   -0.43220    0.23271    3    diag
    5      0.394D-03      0.132D-03      -116.27146888    154.297749    0.59620   -0.43132    0.23297    4    diag
    6      0.145D-03      0.321D-04      -116.27147253    154.303561    0.59566   -0.43075    0.23281    5    diag
    7      0.413D-04      0.608D-05      -116.27147274    154.302085    0.59566   -0.43075    0.23281    6    diag
    8      0.111D-04      0.151D-05      -116.27147275    154.302220    0.59562   -0.43069    0.23281    7    diag
    9      0.204D-05      0.350D-06      -116.27147275    154.302196    0.59560   -0.43068    0.23280    8    diag
   10      0.700D-06      0.400D-07      -116.27147275    154.302197    0.59560   -0.43068    0.23280    9    orth
   11      0.560D-07      0.959D-08      -116.27147275    154.302198    0.59560   -0.43068    0.23280    9    diag
   12      0.221D-07      0.249D-08      -116.27147275    154.302198    0.59560   -0.43068    0.23280    9    diag
   13      0.358D-08      0.668D-09      -116.27147275    154.302198    0.59560   -0.43068    0.23280    0    orth

 Final occupancy:  10

 !RHF STATE  1.1 Energy              -116.271472754727
 Nuclear energy                        35.83278858
 One-electron energy                 -229.25536043
 Two-electron energy                   77.15109909
 Virial quotient                       -1.00104163
 !RHF STATE  1.1 Dipole moment          0.59560323    -0.43067629     0.23280063
 Dipole moment /Debye                   1.51377325    -1.09459826     0.59168141

 Orbital energies:

         1.1          2.1          3.1          4.1          5.1          6.1          7.1          8.1          9.1         10.1
    -20.570299   -11.190904    -1.343615    -0.944272    -0.709156    -0.580063    -0.545550    -0.542415    -0.541595    -0.508714

        11.1         12.1
      0.027449     0.039841


 HOMO     10.1    -0.508714 =     -13.8428eV
 LUMO     11.1     0.027449 =       0.7469eV
 LUMO-HOMO         0.536162 =      14.5897eV


 **********************************************************************************************************************************
 DATASETS  * FILE   NREC   LENGTH (MB)   RECORD NAMES
              1      18       32.04       500      610      700      900      950      970     1000      129      960     1100   
                                          VAR    BASINP    GEOM    SYMINP    ZMAT    AOBASIS   BASIS     P2S    ABASIS      S 
                                         1400     1410     1200     1210     1080     1600     1650     1700   
                                           T        V       H0       H01     AOSYM     SMH    MOLCAS    OPER   

              2       4        3.96       700     1000      520     2100   
                                         GEOM     BASIS   MCVARS     RHF  

 PROGRAMS   *        TOTAL    HF-SCF       INT
 CPU TIMES  *        29.14     14.11     14.83
 REAL TIME  *        35.69 SEC
 DISK USED  *        39.90 MB (local),        6.02 GB (total)
 SF USED    *         0.21 MB
 GA USED    *         0.00 MB       (max)       0.00 MB       (current)
 **********************************************************************************************************************************

 Basis set:  JKFIT                   
 Basis size:   740
 Attributes:
 Sphericals:   T
 Basis set:  MP2FIT                  
 Basis size:   816
 Attributes:
 Sphericals:   T
 Basis set:  RI                      
 Basis size:   556
 Attributes:
 Sphericals:   T
 Basis set:  TDDFT                   
 Basis size:   816
 Attributes:
 Sphericals:   T

 PROGRAM * CCSD (Closed-shell coupled cluster)     Authors: C. Hampel, H.-J. Werner, 1991, M. Deegan, P.J. Knowles, 1992

                                  CCSD-F12 implementation by  H.-J. Werner, 2007

                   Density fitting integral evaluation by F.R. Manby, 2003,2007, G. Knizia, 2010



 Convergence thresholds:  THRVAR = 1.00D-08  THRDEN = 1.00D-10

 CCSD(T)     terms to be evaluated (factor= 1.000)


 Number of core orbitals:           2 (   2 )
 Number of closed-shell orbitals:   8 (   8 )
 Number of external orbitals:     220 ( 220 )

 Molecular orbitals read from record     2100.2  Type=RHF/CANONICAL (state 1.1)

 MP2-F12 correlation treatment (H.-J. Werner, 2006)
 ==================================================

 Using MP2-F12 with ansatz 3C(FIX)

 Using projected zeroth-order Hamiltonian (+Z)

 FOCKRIB=T FOCKRIC=T FOCKRIP=T CABSP=T CABSA=T CABSK=T CABSF=T GBC=F EBC=F DMAT=T NOFIK=T NOPAO=1 SOLVE=-1  USEPAO=0
 EXCH_A= T EXCH_B= F EXCH_C= F EXCH_P= F

 Geminal basis:    OPTFULL  GEM_TYPE=SLATER  BETA=1.0  NGEM=6

 Optimizing Gaussian exponents for each gem_beta

 Geminal optimization for beta= 1.0000
 Weight function:   m=0, omega= 1.4646

 Augmented Hessian optimization of geminal fit. Trust ratio= 0.40000
 Convergence reached after   2 iterations. Final gradient= 7.85D-16, Step= 4.26D-06, Delta= 1.28D-09

 Alpha:                 0.19532     0.81920     2.85917     9.50073    35.69989   197.79328
 Coeff:                 0.27070     0.30552     0.18297     0.10986     0.06810     0.04224


 All pairs explicitly correlated. Number of r12-pairs:           36

 Excluding core orbitals from MO domains

 AO(A)-basis ORBITAL           loaded. Number of functions:     230
 RI(R)-basis RI                loaded. Number of functions:     556
 DF-basis JKFIT                loaded. Number of functions:     740

 Screening thresholds:   THRAO=  1.00D-10  THRMO=  1.00D-09  THRPROD=  1.00D-09
                         THRSW=  1.00D-05  THROV=  1.00D-12  THRAOF12= 1.00D-10

 CPU time for Fock operators                      3.93 sec

 Construction of ABS:
 Smallest eigenvalue of S          1.18E-04  (threshold= 1.00E-08)
 Ratio eigmin/eigmax               1.68E-05  (threshold= 1.00E-09)
 Smallest eigenvalue of S kept     1.18E-04  (threshold= 1.18E-04, 0 functions deleted, 556 kept)

 Construction of CABS:
 Smallest eigenvalue of S          6.03E-07  (threshold= 1.00E-08)
 Ratio eigmin/eigmax               6.03E-07  (threshold= 1.00E-09)
 Smallest eigenvalue of S kept     6.03E-07  (threshold= 6.03E-07, 0 functions deleted, 556 kept)

 CPU time for CABS singles                        0.70 sec

 CABS-singles contribution of  -0.00239793 patched into reference energy.
 New reference energy        -116.27387068

 AO(A)-basis ORBITAL           loaded. Number of functions:     230
 RI(R)-basis RI                loaded. Number of functions:     556
 DF-basis MP2FIT               loaded. Number of functions:     816

 Screening thresholds:   THRAO=  1.00D-10  THRMO=  1.00D-09  THRPROD=  1.00D-09
                         THRSW=  1.00D-05  THROV=  1.00D-12  THRAOF12= 1.00D-10

 CPU time for 3-index integral evaluation         5.86 sec
 CPU time for first  half transformation          1.41 sec ( 1873.8 MFLOP/sec)
 CPU time for second half transformation          0.01 sec ( 5785.0 MFLOP/sec)
 CPU time for sorting                             0.10 sec
 CPU time for fitting                             0.58 sec ( 3747.2 MFLOP/sec)
 CPU time for tilde quantities                    0.65 sec ( 4245.1 MFLOP/sec)
 CPU time for assembly                            4.88 sec ( 4058.6 MFLOP/sec)
 CPU time for tranop_f12                          4.66 sec ( 4096.5 MFLOP/sec)
 CPU time for f12 integrals (total)              25.43 sec, Elapsed time:     26.68 sec
 F12-matrices built in  4 passes.
 F12-matrices built in  4 passes.
 F12-matrices built in  4 passes.
 F12-matrices built in  4 passes.
 FC-matrix built in  4 passes.
 CPU time for f12 matrices (total)                1.39 sec, Elapsed time:      1.45 sec

 Diagonal F12 approximation with fixed coefficients:  TSING= 0.500,  TTRIP= 0.250 (scaled by -1/beta)

 DF-MP2-F12 energy corrections:
 ==============================
 Approx.                                    Singlet             Triplet             Total
 DF-MP2-F12/3*C(DX,FIX)                -0.046261969012     -0.006809740790     -0.053071709801
 DF-MP2-F12/3*C(FIX)                   -0.039945381812     -0.005616245286     -0.045561627098
 DF-MP2-F12/3C(FIX)                    -0.040060011285     -0.005580509803     -0.045640521088

 DF-MP2-F12 correlation energies:
 ================================
 Approx.                                    Singlet             Triplet             Ecorr            Total Energy
 DF-MP2                                -0.317254643915     -0.153651520728     -0.470906164643   -116.744776847944
 DF-MP2-F12/3*C(DX,FIX)                -0.363516612927     -0.160461261517     -0.523977874445   -116.797848557745
 DF-MP2-F12/3*C(FIX)                   -0.357200025727     -0.159267766014     -0.516467791741   -116.790338475042
 DF-MP2-F12/3C(FIX)                    -0.357314655200     -0.159232030531     -0.516546685731   -116.790417369031

 SCS-DF-MP2 energies (F_SING= 1.20000  F_TRIP= 0.62222  F_PARALLEL= 0.33333):
 ============================================================================
 SCS-DF-MP2                            -0.476310963374   -116.750181646674
 SCS-DF-MP2-F12/3*C(DX,FIX)            -0.536062498235   -116.809933181535
 SCS-DF-MP2-F12/3*C(FIX)               -0.527739974170   -116.801610657471
 SCS-DF-MP2-F12/3C(FIX)                -0.527855294126   -116.801725977426
 Symmetry transformation completed.

 Number of N-1 electron functions:               8
 Number of N-2 electron functions:              36
 Number of singly external CSFs:              1760
 Number of doubly external CSFs:           1549680
 Total number of CSFs:                     1551441

 Pair and operator lists are different

 Length of J-op  integral file:             315.61 MB
 Length of K-op  integral file:             368.50 MB
 Length of 3-ext integral record:             0.00 MB

 Memory could be reduced to 116.32 Mwords without degradation in triples

 Integral transformation finished. Total CPU:  27.23 sec, npass=  1  Memory used:  59.34 MW

 Reference energy:                   -116.27387068

 Adding F12 terms to K(Cij), methodcc=6,  factor= 1.0

 ITER.      SQ.NORM     CORR.ENERGY   TOTAL ENERGY   ENERGY CHANGE        DEN1      VAR(S)    VAR(P)  DIIS     TIME  TIME/IT
   1      1.13188492    -0.48556591  -116.75943660    -0.01464195    -0.00303877  0.15D-02  0.20D-02  1  1    75.54    14.83
   2      1.14009630    -0.48582384  -116.75969452    -0.00025793    -0.00967962  0.28D-04  0.22D-03  2  2    90.45    15.04
   3      1.14295521    -0.48608244  -116.75995312    -0.00025860    -0.00196127  0.12D-04  0.12D-04  3  3   105.37    15.08
   4      1.14382322    -0.48613773  -116.76000841    -0.00005529    -0.00047867  0.51D-06  0.10D-05  4  4   120.51    15.18
   5      1.14396529    -0.48613219  -116.76000287     0.00000554    -0.00003799  0.18D-06  0.73D-07  5  5   135.29    15.32
   6      1.14400434    -0.48612944  -116.76000012     0.00000275    -0.00000597  0.16D-07  0.51D-08  6  6   150.27    15.31
   7      1.14401328    -0.48612870  -116.75999939     0.00000073    -0.00000245  0.13D-08  0.68D-09  6  2   165.10    15.33
   8      1.14401511    -0.48612868  -116.75999936     0.00000002    -0.00000010  0.21D-09  0.66D-10  6  1   180.07    15.32
   9      1.14401577    -0.48612870  -116.75999938    -0.00000002    -0.00000006  0.20D-10  0.12D-10  6  3   195.44    15.36
  10      1.14401586    -0.48612870  -116.75999938     0.00000000     0.00000006  0.29D-11  0.15D-11  6  4   210.49    15.36
  11      1.14401581    -0.48612870  -116.75999939    -0.00000001     0.00000007  0.51D-12  0.22D-12  6  5   225.74    15.37
  12      1.14401577    -0.48612870  -116.75999939    -0.00000000     0.00000002  0.98D-13  0.30D-13  6  6   240.68    15.36
  13      1.14401575    -0.48612871  -116.75999939    -0.00000000     0.00000001  0.15D-13  0.44D-14  6  2   255.72    15.36
  14      1.14401575    -0.48612871  -116.75999939    -0.00000000     0.00000000  0.17D-14  0.96D-15  6  1   270.86    15.36
  15      1.14401574    -0.48612871  -116.75999939    -0.00000000    -0.00000000  0.18D-15  0.96D-16  6  3   286.08    15.37
  16      1.14401574    -0.48612871  -116.75999939     0.00000000    -0.00000000  0.18D-16  0.13D-16  6  4   301.17    15.37

 Norm of t1 vector:      0.05023006      S-energy:     0.00000000      T1 diagnostic:  0.00887950
                                                                       D1 diagnostic:  0.01862586

 Adding energy correction from Wij-K(Fij), methodcc=6  factor= 1.0

  CCSD correlation energy              -0.486128705811
  MP2-F12 correction (uncoupled)       -0.045380816871
  C*T doubles correction               -0.000610865650
  f12b correction                       0.008422589668


 Total CPU time for triples:    238.10 sec

  Ecorr(MP2)                           -0.470923962933
  Ecorr(MP2-F12)                       -0.516564484020
  Scale factor for triples energy       1.096916964691


 RESULTS
 =======

  Reference energy                   -116.271472754726
  F12 singles correction               -0.002397928574

 F12 singles corrections added to reference energy

  New reference energy               -116.273870683301

  F12a singlet correction              -0.040314980295
  F12a triplet correction              -0.005676702226
  F12a total correction                -0.045991682522

 F12a corrections for ansatz F12/3C(FIX) added to CCSD energy

  CCSD-F12a singlet pair energy        -0.385932382615
  CCSD-F12a triplet pair energy        -0.146188005869
  CCSD-F12a correlation energy         -0.532120388332

  Triples (T) contribution (scaled)    -0.016412470390
  Total correlation energy             -0.548532858722

  CCSD-F12a total energy             -116.805991071633
  CCSD[T]-F12a energy                -116.822991629728
  CCSD-T-F12a energy                 -116.822185653853
 !CCSD(T)-F12a total energy          -116.822403542023

 F12b corrections for ansatz F12/3C(FIX) added to CCSD(T)-F12a energy

  CCSD-F12b singlet pair energy        -0.378040765311
  CCSD-F12b triplet pair energy        -0.145657033504
  CCSD-F12b correlation energy         -0.523697798664

  Triples (T) contribution (scaled)    -0.016412470390
  Total correlation energy             -0.540110269054

  CCSD-F12b total energy             -116.797568481964
  CCSD[T]-F12b energy                -116.814569040060
  CCSD-T-F12b energy                 -116.813763064184
 !CCSD(T)-F12b total energy          -116.813980952354

 Timing summary (sec):

 STEP                 CPU(USER)    SYS     CPU(TOT)    WALL
 Transformation         27.40      0.89     28.29     28.31
 CCSD iterations       240.25      4.62    244.87    246.02
 Triples               238.10      1.38    239.48    239.79
 MP2-F12                33.55      1.49     35.04     35.10
 F12b energy            11.56      0.16     11.72     11.74

 Program statistics:

 Available memory in ccsd:              1999999554
 Min. memory needed in ccsd:               4597329
 Max. memory used in ccsd:                 5918289
 Max. memory used in cckext:               4231061 (17 integral passes)



 **********************************************************************************************************************************
 DATASETS  * FILE   NREC   LENGTH (MB)   RECORD NAMES
              1      19      398.06       500      610      700      900      950      970     1000      129      960     1100   
                                          VAR    BASINP    GEOM    SYMINP    ZMAT    AOBASIS   BASIS     P2S    ABASIS      S 
                                         1400     1410     1200     1210     1080     1600     1650     1700     1380   
                                           T        V       H0       H01     AOSYM     SMH    MOLCAS    OPER     JKOP   

              2       6        5.03       700     1000      520     2100     7360     7350   
                                         GEOM     BASIS   MCVARS     RHF    F12ABS    EF12   

 PROGRAMS   *        TOTAL   CCSD(T)    HF-SCF       INT
 CPU TIMES  *       580.22    551.07     14.11     14.83
 REAL TIME  *       597.52 SEC
 DISK USED  *       570.60 MB (local),        7.64 GB (total)
 SF USED    *         1.36 GB
 GA USED    *         4.87 MB       (max)       0.00 MB       (current)
 **********************************************************************************************************************************

 Running procedure: SET_MONOMER1

 Dummy atoms: C1  H41  H42  H43  H44


 Recomputing one-electron integrals since nuclear charges changed


 PROGRAM * SEWARD (Integral evaluation for generally contracted gaussian basis sets)     Author: Roland Lindh, 1990

 Geometry written to block  1 of record 700


 Point group  C1  



 ATOMIC COORDINATES

 NR  ATOM    CHARGE       X              Y              Z

   1  O5      8.00   -0.603200579    4.424037830    7.113685023
   2  H9      1.00    0.770063396    4.853761551    8.236371314
   3  H10     1.00   -0.289128097    2.656576986    6.606293559
   4  C1      0.00   -6.193010455    2.801518980    2.403542658
   5  H41     0.00   -4.656285171    1.699997622    3.119937832
   6  H42     0.00   -5.973046335    4.726205038    2.982932688
   7  H43     0.00   -7.940251230    2.077186956    3.118237078
   8  H44     0.00   -6.176569838    2.685300823    0.384937212

 Bond lengths in Bohr (Angstrom)

 1-2  1.825086553  1-3  1.865477274  4-5  2.021904040  4-6  2.022002335  4-7  2.021953343
     ( 0.965794212)     ( 0.987168061)     ( 1.069945541)     ( 1.069997556)     ( 1.069971630)

 4-8  2.022015060
     ( 1.070004290)

 Bond angles

  2-1-3  105.29057030   5-4-6  109.53398059   5-4-7  109.65604535   5-4-8  108.43490854

  6-4-7  109.49436728   6-4-8  109.86987750   7-4-8  109.83468330

 NUCLEAR CHARGE:                   10
 NUMBER OF PRIMITIVE AOS:         296
 NUMBER OF SYMMETRY AOS:          266
 NUMBER OF CONTRACTIONS:          230   (  230A   )
 NUMBER OF CORE ORBITALS:           1   (    1A   )
 NUMBER OF VALENCE ORBITALS:        6   (    6A   )

 MOLECULE CHANGED: INITIALIZING OCCUPATION AND DUMP RECORDS


 NUCLEAR REPULSION ENERGY    9.01266574

 Basis set:  JKFIT                   
 Basis size:   740
 Attributes:
 Sphericals:   T
 Basis set:  MP2FIT                  
 Basis size:   816
 Attributes:
 Sphericals:   T
 Basis set:  RI                      
 Basis size:   556
 Attributes:
 Sphericals:   T
 Basis set:  TDDFT                   
 Basis size:   816
 Attributes:
 Sphericals:   T

 Eigenvalues of metric

         1 0.664E-04 0.841E-04 0.103E-03 0.105E-03 0.331E-03 0.354E-03 0.702E-03 0.745E-03


 Contracted 2-electron integrals neglected if value below      1.0D-14

 OPERATOR DM      FOR CENTER  0  COORDINATES:    0.000000    0.000000    0.000000


 **********************************************************************************************************************************
 DATASETS  * FILE   NREC   LENGTH (MB)   RECORD NAMES
              1      18       32.04       500      610      700      900      950      970     1000      129      960     1100   
                                          VAR    BASINP    GEOM    SYMINP    ZMAT    AOBASIS   BASIS     P2S    ABASIS      S 
                                         1400     1410     1200     1210     1080     1600     1650     1700   
                                           T        V       H0       H01     AOSYM     SMH    MOLCAS    OPER   

              2       7        5.05       700     1000      520     2100     7360     7350      200   
                                         GEOM     BASIS   MCVARS     RHF    F12ABS    EF12    OPTIONS    

 PROGRAMS   *        TOTAL       INT   CCSD(T)    HF-SCF       INT
 CPU TIMES  *       580.46      0.24    551.07     14.11     14.83
 REAL TIME  *       598.29 SEC
 DISK USED  *       570.60 MB (local),        7.64 GB (total)
 SF USED    *         1.36 GB
 GA USED    *         4.87 MB       (max)       0.00 MB       (current)
 **********************************************************************************************************************************


 PROGRAM * RHF-SCF (CLOSED SHELL)       Authors: W. Meyer, H.-J. Werner


 NUMBER OF ELECTRONS:       5+    5-    SPACE SYMMETRY=1    SPIN SYMMETRY: Singlet 
 CONVERGENCE THRESHOLDS:    1.00E-08 (Density)    1.00E-11 (Energy)
 MAX. NUMBER OF ITERATIONS:       60
 INTERPOLATION TYPE:            DIIS
 INTERPOLATION STEPS:              2 (START)      1 (STEP)
 LEVEL SHIFTS:                  0.00 (CLOSED)  0.00 (OPEN) 



 Orbital guess generated from atomic densities. Full valence occupancy:    7

 Molecular orbital dump at record        2101.2

 Initial occupancy:   5

 ITERATION    DDIFF          GRAD             ENERGY        2-EL.EN.            DIPOLE MOMENTS         DIIS   ORB.
    1      0.000D+00      0.000D+00       -76.02029160     77.398436    0.86269   -0.69132    0.31157    0    start
    2      0.000D+00      0.640D-02       -76.04694096     73.773546    0.50503   -0.39787    0.18519    1    diag
    3      0.443D-02      0.407D-02       -76.05826488     75.375077    0.59419   -0.46954    0.21731    2    diag
    4      0.159D-02      0.376D-03       -76.05845545     75.285761    0.59129   -0.46587    0.21681    3    diag
    5      0.204D-03      0.104D-03       -76.05847535     75.299836    0.59022   -0.46446    0.21665    4    diag
    6      0.633D-04      0.203D-04       -76.05847659     75.298969    0.59005   -0.46414    0.21666    5    diag
    7      0.159D-04      0.401D-05       -76.05847665     75.299096    0.58997   -0.46403    0.21665    6    diag
    8      0.408D-05      0.743D-06       -76.05847665     75.299081    0.58994   -0.46401    0.21664    7    diag
    9      0.669D-06      0.949D-07       -76.05847665     75.299072    0.58994   -0.46400    0.21664    8    diag
   10      0.799D-07      0.237D-07       -76.05847665     75.299075    0.58994   -0.46400    0.21664    9    orth
   11      0.201D-07      0.491D-08       -76.05847665     75.299075    0.58994   -0.46400    0.21664    9    diag
   12      0.489D-08      0.918D-09       -76.05847665     75.299075    0.58994   -0.46400    0.21664    0    orth

 Final occupancy:   5

 !RHF STATE  1.1 Energy               -76.058476648402
 Nuclear energy                         9.01266574
 One-electron energy                 -122.72067968
 Two-electron energy                   37.64953730
 Virial quotient                       -1.00230136
 !RHF STATE  1.1 Dipole moment          0.58993845    -0.46400267     0.21664369
 Dipole moment /Debye                   1.49937575    -1.17929990     0.55061728

 Orbital energies:

         1.1          2.1          3.1          4.1          5.1          6.1          7.1
    -20.570176    -1.343443    -0.708899    -0.579709    -0.508576     0.023944     0.036038


 HOMO      5.1    -0.508576 =     -13.8390eV
 LUMO      6.1     0.023944 =       0.6516eV
 LUMO-HOMO         0.532520 =      14.4906eV


 **********************************************************************************************************************************
 DATASETS  * FILE   NREC   LENGTH (MB)   RECORD NAMES
              1      18       32.04       500      610      700      900      950      970     1000      129      960     1100   
                                          VAR    BASINP    GEOM    SYMINP    ZMAT    AOBASIS   BASIS     P2S    ABASIS      S 
                                         1400     1410     1200     1210     1080     1600     1650     1700   
                                           T        V       H0       H01     AOSYM     SMH    MOLCAS    OPER   

              2       8        9.09       700     1000      520     2100     7360     7350      200     2101   
                                         GEOM     BASIS   MCVARS     RHF    F12ABS    EF12    OPTIONS    RHF  

 PROGRAMS   *        TOTAL    HF-SCF       INT   CCSD(T)    HF-SCF       INT
 CPU TIMES  *       593.32     12.86      0.24    551.07     14.11     14.83
 REAL TIME  *       612.56 SEC
 DISK USED  *       570.60 MB (local),        7.64 GB (total)
 SF USED    *         1.36 GB
 GA USED    *         4.87 MB       (max)       0.00 MB       (current)
 **********************************************************************************************************************************

 Basis set:  JKFIT                   
 Basis size:   740
 Attributes:
 Sphericals:   T
 Basis set:  MP2FIT                  
 Basis size:   816
 Attributes:
 Sphericals:   T
 Basis set:  RI                      
 Basis size:   556
 Attributes:
 Sphericals:   T
 Basis set:  TDDFT                   
 Basis size:   816
 Attributes:
 Sphericals:   T

 PROGRAM * CCSD (Closed-shell coupled cluster)     Authors: C. Hampel, H.-J. Werner, 1991, M. Deegan, P.J. Knowles, 1992

                                  CCSD-F12 implementation by  H.-J. Werner, 2007

                   Density fitting integral evaluation by F.R. Manby, 2003,2007, G. Knizia, 2010



 Convergence thresholds:  THRVAR = 1.00D-08  THRDEN = 1.00D-10

 CCSD(T)     terms to be evaluated (factor= 1.000)


 Number of core orbitals:           1 (   1 )
 Number of closed-shell orbitals:   4 (   4 )
 Number of external orbitals:     225 ( 225 )

 Molecular orbitals read from record     2101.2  Type=RHF/CANONICAL (state 1.1)

 MP2-F12 correlation treatment (H.-J. Werner, 2006)
 ==================================================

 Using MP2-F12 with ansatz 3C(FIX)

 Using projected zeroth-order Hamiltonian (+Z)

 FOCKRIB=T FOCKRIC=T FOCKRIP=T CABSP=T CABSA=T CABSK=T CABSF=T GBC=F EBC=F DMAT=T NOFIK=T NOPAO=1 SOLVE=-1  USEPAO=0
 EXCH_A= T EXCH_B= F EXCH_C= F EXCH_P= F

 Geminal basis:    OPTFULL  GEM_TYPE=SLATER  BETA=1.0  NGEM=6

 Optimizing Gaussian exponents for each gem_beta

 Geminal optimization for beta= 1.0000
 Weight function:   m=0, omega= 1.4646

 Augmented Hessian optimization of geminal fit. Trust ratio= 0.40000
 Convergence reached after   2 iterations. Final gradient= 8.31D-16, Step= 4.24D-06, Delta= 1.28D-09

 Alpha:                 0.19532     0.81920     2.85917     9.50073    35.69989   197.79328
 Coeff:                 0.27070     0.30552     0.18297     0.10986     0.06810     0.04224


 All pairs explicitly correlated. Number of r12-pairs:           10

 Excluding core orbitals from MO domains

 AO(A)-basis ORBITAL           loaded. Number of functions:     230
 RI(R)-basis RI                loaded. Number of functions:     556
 DF-basis JKFIT                loaded. Number of functions:     740

 Screening thresholds:   THRAO=  1.00D-10  THRMO=  1.00D-09  THRPROD=  1.00D-09
                         THRSW=  1.00D-05  THROV=  1.00D-12  THRAOF12= 1.00D-10

 CPU time for Fock operators                      3.13 sec

 Construction of ABS:
 Smallest eigenvalue of S          1.18E-04  (threshold= 1.00E-08)
 Ratio eigmin/eigmax               1.68E-05  (threshold= 1.00E-09)
 Smallest eigenvalue of S kept     1.18E-04  (threshold= 1.18E-04, 0 functions deleted, 556 kept)

 Construction of CABS:
 Smallest eigenvalue of S          6.03E-07  (threshold= 1.00E-08)
 Ratio eigmin/eigmax               6.03E-07  (threshold= 1.00E-09)
 Smallest eigenvalue of S kept     6.03E-07  (threshold= 6.03E-07, 0 functions deleted, 556 kept)

 CPU time for CABS singles                        0.71 sec

 CABS-singles contribution of  -0.00148441 patched into reference energy.
 New reference energy         -76.05996106

 AO(A)-basis ORBITAL           loaded. Number of functions:     230
 RI(R)-basis RI                loaded. Number of functions:     556
 DF-basis MP2FIT               loaded. Number of functions:     816

 Screening thresholds:   THRAO=  1.00D-10  THRMO=  1.00D-09  THRPROD=  1.00D-09
                         THRSW=  1.00D-05  THROV=  1.00D-12  THRAOF12= 1.00D-10

 CPU time for 3-index integral evaluation         5.45 sec
 CPU time for first  half transformation          0.98 sec ( 1413.0 MFLOP/sec)
 CPU time for second half transformation          0.01 sec ( 1277.0 MFLOP/sec)
 CPU time for sorting                             0.03 sec
 CPU time for fitting                             0.35 sec ( 6057.4 MFLOP/sec)
 CPU time for tilde quantities                    0.55 sec ( 3261.5 MFLOP/sec)
 CPU time for assembly                            1.39 sec ( 3598.5 MFLOP/sec)
 CPU time for tranop_f12                          1.22 sec ( 3774.5 MFLOP/sec)
 CPU time for f12 integrals (total)              12.35 sec, Elapsed time:     12.85 sec
 F12-matrices built in  4 passes.
 F12-matrices built in  4 passes.
 F12-matrices built in  4 passes.
 F12-matrices built in  4 passes.
 FC-matrix built in  4 passes.
 CPU time for f12 matrices (total)                0.33 sec, Elapsed time:      0.33 sec

 Diagonal F12 approximation with fixed coefficients:  TSING= 0.500,  TTRIP= 0.250 (scaled by -1/beta)

 DF-MP2-F12 energy corrections:
 ==============================
 Approx.                                    Singlet             Triplet             Total
 DF-MP2-F12/3*C(DX,FIX)                -0.029543398656     -0.004874202098     -0.034417600754
 DF-MP2-F12/3*C(FIX)                   -0.024467492035     -0.003819997519     -0.028287489554
 DF-MP2-F12/3C(FIX)                    -0.024596440215     -0.003792373762     -0.028388813976

 DF-MP2-F12 correlation energies:
 ================================
 Approx.                                    Singlet             Triplet             Ecorr            Total Energy
 DF-MP2                                -0.171668551946     -0.098221853960     -0.269890405906    -76.329851467640
 DF-MP2-F12/3*C(DX,FIX)                -0.201211950602     -0.103096056058     -0.304308006660    -76.364269068394
 DF-MP2-F12/3*C(FIX)                   -0.196136043981     -0.102041851479     -0.298177895460    -76.358138957194
 DF-MP2-F12/3C(FIX)                    -0.196264992161     -0.102014227722     -0.298279219882    -76.358240281616

 SCS-DF-MP2 energies (F_SING= 1.20000  F_TRIP= 0.62222  F_PARALLEL= 0.33333):
 ============================================================================
 SCS-DF-MP2                            -0.267118082577    -76.327079144311
 SCS-DF-MP2-F12/3*C(DX,FIX)            -0.305602997826    -76.365564059559
 SCS-DF-MP2-F12/3*C(FIX)               -0.298855960364    -76.358817022098
 SCS-DF-MP2-F12/3C(FIX)                -0.298993510064    -76.358954571798
 Symmetry transformation completed.

 Number of N-1 electron functions:               4
 Number of N-2 electron functions:              10
 Number of singly external CSFs:               900
 Number of doubly external CSFs:            405450
 Total number of CSFs:                      406351

 Pair and operator lists are different

 Length of J-op  integral file:              81.60 MB
 Length of K-op  integral file:             128.10 MB
 Length of 3-ext integral record:             0.00 MB

 Memory could be reduced to 75.63 Mwords without degradation in triples

 Integral transformation finished. Total CPU:  12.99 sec, npass=  1  Memory used:  32.52 MW

 Reference energy:                    -76.05996106

 Adding F12 terms to K(Cij), methodcc=6,  factor= 1.0

 ITER.      SQ.NORM     CORR.ENERGY   TOTAL ENERGY   ENERGY CHANGE        DEN1      VAR(S)    VAR(P)  DIIS     TIME  TIME/IT
   1      1.06221802    -0.26951909   -76.32948015     0.00037920     0.00630004  0.79D-03  0.10D-02  1  1    35.00     3.92
   2      1.06562763    -0.26919464   -76.32915570     0.00032445    -0.00461690  0.13D-04  0.11D-03  2  2    38.90     3.98
   3      1.06686142    -0.26931623   -76.32927729    -0.00012159    -0.00082303  0.93D-05  0.59D-05  3  3    42.80     4.01
   4      1.06735322    -0.26935325   -76.32931431    -0.00003702    -0.00027645  0.40D-06  0.62D-06  4  4    46.70     4.04
   5      1.06744440    -0.26935002   -76.32931108     0.00000323    -0.00002723  0.15D-06  0.41D-07  5  5    50.79     4.08
   6      1.06747546    -0.26934797   -76.32930903     0.00000205    -0.00000452  0.12D-07  0.28D-08  6  6    54.68     4.07
   7      1.06748228    -0.26934756   -76.32930862     0.00000041    -0.00000142  0.96D-09  0.43D-09  6  1    58.61     4.07
   8      1.06748352    -0.26934765   -76.32930871    -0.00000009     0.00000012  0.13D-09  0.49D-10  6  2    62.45     4.07
   9      1.06748394    -0.26934766   -76.32930872    -0.00000001    -0.00000000  0.14D-10  0.82D-11  6  4    66.35     4.07
  10      1.06748405    -0.26934766   -76.32930872    -0.00000000     0.00000000  0.26D-11  0.78D-12  6  3    70.26     4.07
  11      1.06748404    -0.26934766   -76.32930872     0.00000000     0.00000002  0.51D-12  0.14D-12  6  5    74.20     4.07
  12      1.06748404    -0.26934766   -76.32930872     0.00000000     0.00000000  0.89D-13  0.26D-13  6  6    78.17     4.07
  13      1.06748402    -0.26934766   -76.32930872    -0.00000000     0.00000000  0.94D-14  0.37D-14  6  1    82.14     4.07
  14      1.06748402    -0.26934766   -76.32930872    -0.00000000     0.00000000  0.10D-14  0.75D-15  6  2    86.06     4.07
  15      1.06748401    -0.26934766   -76.32930872    -0.00000000     0.00000000  0.13D-15  0.80D-16  6  4    90.01     4.07
  16      1.06748401    -0.26934766   -76.32930872     0.00000000     0.00000000  0.12D-16  0.97D-17  6  3    93.93     4.07

 Norm of t1 vector:      0.03701393      S-energy:    -0.00000000      T1 diagnostic:  0.00925348
                                                                       D1 diagnostic:  0.01843060

 Adding energy correction from Wij-K(Fij), methodcc=6  factor= 1.0

  CCSD correlation energy              -0.269347660304
  MP2-F12 correction (uncoupled)       -0.028118560579
  C*T doubles correction               -0.000416149009
  f12b correction                       0.004761201388


 Total CPU time for triples:     37.79 sec

  Ecorr(MP2)                           -0.269898290212
  Ecorr(MP2-F12)                       -0.298287104189
  Scale factor for triples energy       1.105183378354


 RESULTS
 =======

  Reference energy                    -76.058476648401
  F12 singles correction               -0.001484413333

 F12 singles corrections added to reference energy

  New reference energy                -76.059961061734

  F12a singlet correction              -0.024671562221
  F12a triplet correction              -0.003863147367
  F12a total correction                -0.028534709588

 F12a corrections for ansatz F12/3C(FIX) added to CCSD energy

  CCSD-F12a singlet pair energy        -0.207290013643
  CCSD-F12a triplet pair energy        -0.090592356238
  CCSD-F12a correlation energy         -0.297882369892

  Triples (T) contribution (scaled)    -0.009521412172
  Total correlation energy             -0.307403782064

  CCSD-F12a total energy              -76.357843431626
  CCSD[T]-F12a energy                 -76.367711234885
  CCSD-T-F12a energy                  -76.367222741253
 !CCSD(T)-F12a total energy           -76.367364843798

 F12b corrections for ansatz F12/3C(FIX) added to CCSD(T)-F12a energy

  CCSD-F12b singlet pair energy        -0.202887702857
  CCSD-F12b triplet pair energy        -0.090233465636
  CCSD-F12b correlation energy         -0.293121168504

  Triples (T) contribution (scaled)    -0.009521412172
  Total correlation energy             -0.302642580676

  CCSD-F12b total energy              -76.353082230238
  CCSD[T]-F12b energy                 -76.362950033497
  CCSD-T-F12b energy                  -76.362461539865
 !CCSD(T)-F12b total energy           -76.362603642409

 Timing summary (sec):

 STEP                 CPU(USER)    SYS     CPU(TOT)    WALL
 Transformation         13.05      0.55     13.60     13.63
 CCSD iterations        62.69      2.46     65.15     65.25
 Triples                37.79      0.32     38.11     38.16
 MP2-F12                18.22      0.56     18.78     18.82
 F12b energy             3.32      0.10      3.42      3.42

 Program statistics:

 Available memory in ccsd:              1999999871
 Min. memory needed in ccsd:               1862772
 Max. memory used in ccsd:                 2158322
 Max. memory used in cckext:               1445635 (17 integral passes)



 **********************************************************************************************************************************
 DATASETS  * FILE   NREC   LENGTH (MB)   RECORD NAMES
              1      19      222.31       500      610      700      900      950      970     1000      129      960     1100   
                                          VAR    BASINP    GEOM    SYMINP    ZMAT    AOBASIS   BASIS     P2S    ABASIS      S 
                                         1400     1410     1200     1210     1080     1600     1650     1700     1380   
                                           T        V       H0       H01     AOSYM     SMH    MOLCAS    OPER     JKOP   

              2       8        9.09       700     1000      520     2100     7360     7350      200     2101   
                                         GEOM     BASIS   MCVARS     RHF    F12ABS    EF12    OPTIONS    RHF  

 PROGRAMS   *        TOTAL   CCSD(T)    HF-SCF       INT   CCSD(T)    HF-SCF       INT
 CPU TIMES  *       728.62    135.29     12.86      0.24    551.07     14.11     14.83
 REAL TIME  *       752.60 SEC
 DISK USED  *       570.60 MB (local),        7.64 GB (total)
 SF USED    *         1.36 GB
 GA USED    *         4.87 MB       (max)       0.00 MB       (current)
 **********************************************************************************************************************************

 Running procedure: SET_MONOMER2

 Dummy atoms: O5  H9  H10


 Recomputing one-electron integrals since nuclear charges changed


 PROGRAM * SEWARD (Integral evaluation for generally contracted gaussian basis sets)     Author: Roland Lindh, 1990

 Geometry written to block  1 of record 700


 Point group  C1  



 ATOMIC COORDINATES

 NR  ATOM    CHARGE       X              Y              Z

   1  O5      0.00   -0.603200579    4.424037830    7.113685023
   2  H9      0.00    0.770063396    4.853761551    8.236371314
   3  H10     0.00   -0.289128097    2.656576986    6.606293559
   4  C1      6.00   -6.193010455    2.801518980    2.403542658
   5  H41     1.00   -4.656285171    1.699997622    3.119937832
   6  H42     1.00   -5.973046335    4.726205038    2.982932688
   7  H43     1.00   -7.940251230    2.077186956    3.118237078
   8  H44     1.00   -6.176569838    2.685300823    0.384937212

 Bond lengths in Bohr (Angstrom)

 1-2  1.825086553  1-3  1.865477274  4-5  2.021904040  4-6  2.022002335  4-7  2.021953343
     ( 0.965794212)     ( 0.987168061)     ( 1.069945541)     ( 1.069997556)     ( 1.069971630)

 4-8  2.022015060
     ( 1.070004290)

 Bond angles

  2-1-3  105.29057030   5-4-6  109.53398059   5-4-7  109.65604535   5-4-8  108.43490854

  6-4-7  109.49436728   6-4-8  109.86987750   7-4-8  109.83468330

 NUCLEAR CHARGE:                   10
 NUMBER OF PRIMITIVE AOS:         296
 NUMBER OF SYMMETRY AOS:          266
 NUMBER OF CONTRACTIONS:          230   (  230A   )
 NUMBER OF CORE ORBITALS:           1   (    1A   )
 NUMBER OF VALENCE ORBITALS:        8   (    8A   )

 MOLECULE CHANGED: INITIALIZING OCCUPATION AND DUMP RECORDS


 NUCLEAR REPULSION ENERGY   13.68681606

 Basis set:  JKFIT                   
 Basis size:   740
 Attributes:
 Sphericals:   T
 Basis set:  MP2FIT                  
 Basis size:   816
 Attributes:
 Sphericals:   T
 Basis set:  RI                      
 Basis size:   556
 Attributes:
 Sphericals:   T
 Basis set:  TDDFT                   
 Basis size:   816
 Attributes:
 Sphericals:   T

 Eigenvalues of metric

         1 0.664E-04 0.841E-04 0.103E-03 0.105E-03 0.331E-03 0.354E-03 0.702E-03 0.745E-03


 Contracted 2-electron integrals neglected if value below      1.0D-14

 OPERATOR DM      FOR CENTER  0  COORDINATES:    0.000000    0.000000    0.000000


 **********************************************************************************************************************************
 DATASETS  * FILE   NREC   LENGTH (MB)   RECORD NAMES
              1      18       32.04       500      610      700      900      950      970     1000      129      960     1100   
                                          VAR    BASINP    GEOM    SYMINP    ZMAT    AOBASIS   BASIS     P2S    ABASIS      S 
                                         1400     1410     1200     1210     1080     1600     1650     1700   
                                           T        V       H0       H01     AOSYM     SMH    MOLCAS    OPER   

              2       8        9.09       700     1000      520     2100     7360     7350      200     2101   
                                         GEOM     BASIS   MCVARS     RHF    F12ABS    EF12    OPTIONS    RHF  

 PROGRAMS   *        TOTAL       INT   CCSD(T)    HF-SCF       INT   CCSD(T)    HF-SCF       INT
 CPU TIMES  *       728.86      0.23    135.29     12.86      0.24    551.07     14.11     14.83
 REAL TIME  *       753.35 SEC
 DISK USED  *       570.60 MB (local),        7.64 GB (total)
 SF USED    *         1.36 GB
 GA USED    *         4.87 MB       (max)       0.00 MB       (current)
 **********************************************************************************************************************************


 PROGRAM * RHF-SCF (CLOSED SHELL)       Authors: W. Meyer, H.-J. Werner


 NUMBER OF ELECTRONS:       5+    5-    SPACE SYMMETRY=1    SPIN SYMMETRY: Singlet 
 CONVERGENCE THRESHOLDS:    1.00E-08 (Density)    1.00E-11 (Energy)
 MAX. NUMBER OF ITERATIONS:       60
 INTERPOLATION TYPE:            DIIS
 INTERPOLATION STEPS:              2 (START)      1 (STEP)
 LEVEL SHIFTS:                  0.00 (CLOSED)  0.00 (OPEN) 



 Orbital guess generated from atomic densities. Full valence occupancy:    9

 Molecular orbital dump at record        2102.2

 Initial occupancy:   5

 ITERATION    DDIFF          GRAD             ENERGY        2-EL.EN.            DIPOLE MOMENTS         DIIS   ORB.
    1      0.000D+00      0.000D+00       -40.19358564     53.494043    0.00410   -0.00277   -0.00131    0    start
    2      0.000D+00      0.353D-02       -40.21070238     52.213707    0.00129   -0.00090   -0.00039    1    diag
    3      0.323D-02      0.137D-02       -40.21295067     52.664870    0.00182   -0.00126   -0.00056    2    diag
    4      0.896D-03      0.342D-03       -40.21326608     52.609843    0.00162   -0.00112   -0.00049    3    diag
    5      0.298D-03      0.443D-04       -40.21327147     52.612184    0.00159   -0.00110   -0.00048    4    diag
    6      0.834D-04      0.344D-05       -40.21327151     52.612281    0.00159   -0.00110   -0.00048    5    diag
    7      0.679D-05      0.264D-06       -40.21327151     52.612246    0.00159   -0.00110   -0.00048    6    diag
    8      0.102D-05      0.221D-07       -40.21327151     52.612247    0.00159   -0.00110   -0.00048    7    diag
    9      0.188D-06      0.286D-08       -40.21327151     52.612247    0.00159   -0.00110   -0.00048    8    diag
   10      0.102D-07      0.798D-09       -40.21327151     52.612247    0.00159   -0.00110   -0.00048    9    orth
   11      0.122D-08      0.106D-09       -40.21327151     52.612247    0.00159   -0.00110   -0.00048    0    orth

 Final occupancy:   5

 !RHF STATE  1.1 Energy               -40.213271507594
 Nuclear energy                        13.68681606
 One-electron energy                  -80.20621101
 Two-electron energy                   26.30612345
 Virial quotient                       -0.99870182
 !RHF STATE  1.1 Dipole moment          0.00158577    -0.00110285    -0.00047943
 Dipole moment /Debye                   0.00403035    -0.00280298    -0.00121851

 Orbital energies:

         1.1          2.1          3.1          4.1          5.1          6.1          7.1
    -11.197206    -0.950741    -0.551695    -0.549759    -0.547581     0.026349     0.039533


 HOMO      5.1    -0.547581 =     -14.9004eV
 LUMO      6.1     0.026349 =       0.7170eV
 LUMO-HOMO         0.573930 =      15.6174eV


 **********************************************************************************************************************************
 DATASETS  * FILE   NREC   LENGTH (MB)   RECORD NAMES
              1      18       32.04       500      610      700      900      950      970     1000      129      960     1100   
                                          VAR    BASINP    GEOM    SYMINP    ZMAT    AOBASIS   BASIS     P2S    ABASIS      S 
                                         1400     1410     1200     1210     1080     1600     1650     1700   
                                           T        V       H0       H01     AOSYM     SMH    MOLCAS    OPER   

              2       9       13.71       700     1000      520     2100     7360     7350      200     2101     2102   
                                         GEOM     BASIS   MCVARS     RHF    F12ABS    EF12    OPTIONS    RHF      RHF  

 PROGRAMS   *        TOTAL    HF-SCF       INT   CCSD(T)    HF-SCF       INT   CCSD(T)    HF-SCF       INT
 CPU TIMES  *       740.89     12.03      0.23    135.29     12.86      0.24    551.07     14.11     14.83
 REAL TIME  *       766.50 SEC
 DISK USED  *       570.60 MB (local),        7.64 GB (total)
 SF USED    *         1.36 GB
 GA USED    *         4.87 MB       (max)       0.00 MB       (current)
 **********************************************************************************************************************************

 Basis set:  JKFIT                   
 Basis size:   740
 Attributes:
 Sphericals:   T
 Basis set:  MP2FIT                  
 Basis size:   816
 Attributes:
 Sphericals:   T
 Basis set:  RI                      
 Basis size:   556
 Attributes:
 Sphericals:   T
 Basis set:  TDDFT                   
 Basis size:   816
 Attributes:
 Sphericals:   T

 PROGRAM * CCSD (Closed-shell coupled cluster)     Authors: C. Hampel, H.-J. Werner, 1991, M. Deegan, P.J. Knowles, 1992

                                  CCSD-F12 implementation by  H.-J. Werner, 2007

                   Density fitting integral evaluation by F.R. Manby, 2003,2007, G. Knizia, 2010



 Convergence thresholds:  THRVAR = 1.00D-08  THRDEN = 1.00D-10

 CCSD(T)     terms to be evaluated (factor= 1.000)


 Number of core orbitals:           1 (   1 )
 Number of closed-shell orbitals:   4 (   4 )
 Number of external orbitals:     225 ( 225 )

 Molecular orbitals read from record     2102.2  Type=RHF/CANONICAL (state 1.1)

 MP2-F12 correlation treatment (H.-J. Werner, 2006)
 ==================================================

 Using MP2-F12 with ansatz 3C(FIX)

 Using projected zeroth-order Hamiltonian (+Z)

 FOCKRIB=T FOCKRIC=T FOCKRIP=T CABSP=T CABSA=T CABSK=T CABSF=T GBC=F EBC=F DMAT=T NOFIK=T NOPAO=1 SOLVE=-1  USEPAO=0
 EXCH_A= T EXCH_B= F EXCH_C= F EXCH_P= F

 Geminal basis:    OPTFULL  GEM_TYPE=SLATER  BETA=1.0  NGEM=6

 Optimizing Gaussian exponents for each gem_beta

 Geminal optimization for beta= 1.0000
 Weight function:   m=0, omega= 1.4646

 Augmented Hessian optimization of geminal fit. Trust ratio= 0.40000
 Convergence reached after   2 iterations. Final gradient= 7.85D-16, Step= 4.26D-06, Delta= 1.28D-09

 Alpha:                 0.19532     0.81920     2.85917     9.50073    35.69989   197.79328
 Coeff:                 0.27070     0.30552     0.18297     0.10986     0.06810     0.04224


 All pairs explicitly correlated. Number of r12-pairs:           10

 Excluding core orbitals from MO domains

 AO(A)-basis ORBITAL           loaded. Number of functions:     230
 RI(R)-basis RI                loaded. Number of functions:     556
 DF-basis JKFIT                loaded. Number of functions:     740

 Screening thresholds:   THRAO=  1.00D-10  THRMO=  1.00D-09  THRPROD=  1.00D-09
                         THRSW=  1.00D-05  THROV=  1.00D-12  THRAOF12= 1.00D-10

 CPU time for Fock operators                      3.19 sec

 Construction of ABS:
 Smallest eigenvalue of S          1.18E-04  (threshold= 1.00E-08)
 Ratio eigmin/eigmax               1.68E-05  (threshold= 1.00E-09)
 Smallest eigenvalue of S kept     1.18E-04  (threshold= 1.18E-04, 0 functions deleted, 556 kept)

 Construction of CABS:
 Smallest eigenvalue of S          6.03E-07  (threshold= 1.00E-08)
 Ratio eigmin/eigmax               6.03E-07  (threshold= 1.00E-09)
 Smallest eigenvalue of S kept     6.03E-07  (threshold= 6.03E-07, 0 functions deleted, 556 kept)

 CPU time for CABS singles                        0.70 sec

 CABS-singles contribution of  -0.00091297 patched into reference energy.
 New reference energy         -40.21418448

 AO(A)-basis ORBITAL           loaded. Number of functions:     230
 RI(R)-basis RI                loaded. Number of functions:     556
 DF-basis MP2FIT               loaded. Number of functions:     816

 Screening thresholds:   THRAO=  1.00D-10  THRMO=  1.00D-09  THRPROD=  1.00D-09
                         THRSW=  1.00D-05  THROV=  1.00D-12  THRAOF12= 1.00D-10

 CPU time for 3-index integral evaluation         5.53 sec
 CPU time for first  half transformation          0.84 sec ( 1577.3 MFLOP/sec)
 CPU time for second half transformation          0.01 sec ( 1415.0 MFLOP/sec)
 CPU time for sorting                             0.04 sec
 CPU time for fitting                             0.35 sec (  989.3 MFLOP/sec)
 CPU time for tilde quantities                    0.38 sec ( 5561.6 MFLOP/sec)
 CPU time for assembly                            1.44 sec ( 4054.3 MFLOP/sec)
 CPU time for tranop_f12                          1.29 sec ( 2868.3 MFLOP/sec)
 CPU time for f12 integrals (total)              12.10 sec, Elapsed time:     12.49 sec
 F12-matrices built in  4 passes.
 F12-matrices built in  4 passes.
 F12-matrices built in  4 passes.
 F12-matrices built in  4 passes.
 FC-matrix built in  4 passes.
 CPU time for f12 matrices (total)                0.31 sec, Elapsed time:      0.30 sec

 Diagonal F12 approximation with fixed coefficients:  TSING= 0.500,  TTRIP= 0.250 (scaled by -1/beta)

 DF-MP2-F12 energy corrections:
 ==============================
 Approx.                                    Singlet             Triplet             Total
 DF-MP2-F12/3*C(DX,FIX)                -0.016713689621     -0.001929361064     -0.018643050685
 DF-MP2-F12/3*C(FIX)                   -0.015473452361     -0.001787272381     -0.017260724742
 DF-MP2-F12/3C(FIX)                    -0.015458738388     -0.001778140524     -0.017236878912

 DF-MP2-F12 correlation energies:
 ================================
 Approx.                                    Singlet             Triplet             Ecorr            Total Energy
 DF-MP2                                -0.145433400178     -0.055065012765     -0.200498412943    -40.414682891163
 DF-MP2-F12/3*C(DX,FIX)                -0.162147089799     -0.056994373829     -0.219141463628    -40.433325941847
 DF-MP2-F12/3*C(FIX)                   -0.160906852540     -0.056852285146     -0.217759137686    -40.431943615905
 DF-MP2-F12/3C(FIX)                    -0.160892138566     -0.056843153289     -0.217735291856    -40.431919770075

 SCS-DF-MP2 energies (F_SING= 1.20000  F_TRIP= 0.62222  F_PARALLEL= 0.33333):
 ============================================================================
 SCS-DF-MP2                            -0.208782754823    -40.422967233043
 SCS-DF-MP2-F12/3*C(DX,FIX)            -0.230039673697    -40.444224151916
 SCS-DF-MP2-F12/3*C(FIX)               -0.228462978250    -40.442647456469
 SCS-DF-MP2-F12/3C(FIX)                -0.228439639437    -40.442624117657
 Symmetry transformation completed.

 Number of N-1 electron functions:               4
 Number of N-2 electron functions:              10
 Number of singly external CSFs:               900
 Number of doubly external CSFs:            405450
 Total number of CSFs:                      406351

 Pair and operator lists are different

 Length of J-op  integral file:              81.60 MB
 Length of K-op  integral file:             128.10 MB
 Length of 3-ext integral record:             0.00 MB

 Memory could be reduced to 75.63 Mwords without degradation in triples

 Integral transformation finished. Total CPU:  12.95 sec, npass=  1  Memory used:  32.52 MW

 Reference energy:                    -40.21418448

 Adding F12 terms to K(Cij), methodcc=6,  factor= 1.0

 ITER.      SQ.NORM     CORR.ENERGY   TOTAL ENERGY   ENERGY CHANGE        DEN1      VAR(S)    VAR(P)  DIIS     TIME  TIME/IT
   1      1.06946020    -0.21556705   -40.42975152    -0.01505870    -0.00938216  0.67D-03  0.94D-03  1  1    34.83     3.95
   2      1.07448792    -0.21613399   -40.43031847    -0.00056695    -0.00524379  0.17D-04  0.83D-04  2  2    38.69     4.01
   3      1.07589451    -0.21628902   -40.43047349    -0.00015502    -0.00097832  0.20D-05  0.51D-05  3  3    42.61     4.02
   4      1.07623264    -0.21630142   -40.43048590    -0.00001240    -0.00017399  0.10D-06  0.25D-06  4  4    46.51     4.04
   5      1.07627732    -0.21630014   -40.43048462     0.00000128    -0.00000982  0.76D-08  0.16D-07  5  5    50.40     4.04
   6      1.07628317    -0.21629916   -40.43048363     0.00000099    -0.00000186  0.56D-09  0.12D-08  6  6    54.44     4.06
   7      1.07628430    -0.21629884   -40.43048332     0.00000031    -0.00000072  0.38D-10  0.92D-10  6  1    58.47     4.07
   8      1.07628431    -0.21629895   -40.43048343    -0.00000011     0.00000013  0.36D-11  0.51D-11  6  3    62.42     4.07
   9      1.07628441    -0.21629893   -40.43048341     0.00000002    -0.00000007  0.29D-12  0.44D-12  6  2    66.34     4.07
  10      1.07628442    -0.21629893   -40.43048341     0.00000000     0.00000000  0.34D-13  0.46D-13  6  4    70.19     4.07
  11      1.07628442    -0.21629893   -40.43048341     0.00000000     0.00000000  0.26D-14  0.46D-14  6  5    74.16     4.08
  12      1.07628442    -0.21629893   -40.43048341     0.00000000     0.00000000  0.53D-16  0.55D-15  6  6    78.10     4.08
  13      1.07628442    -0.21629893   -40.43048341    -0.00000000     0.00000000  0.74D-17  0.62D-16  6  1    82.06     4.08
  14      1.07628442    -0.21629893   -40.43048341    -0.00000000     0.00000000  0.14D-17  0.78D-17  6  3    86.07     4.09

 Norm of t1 vector:      0.03362002      S-energy:     0.00000000      T1 diagnostic:  0.00840501
                                                                       D1 diagnostic:  0.01339582

 Adding energy correction from Wij-K(Fij), methodcc=6  factor= 1.0

  CCSD correlation energy              -0.216298929257
  MP2-F12 correction (uncoupled)       -0.017249588883
  C*T doubles correction               -0.000193316327
  f12b correction                       0.003655826581

 Total CPU time for triples:     37.85 sec

  Ecorr(MP2)                           -0.200508344282
  Ecorr(MP2-F12)                       -0.217745223194
  Scale factor for triples energy       1.085965893210


 RESULTS
 =======

  Reference energy                    -40.213271507594
  F12 singles correction               -0.000912970626

 F12 singles corrections added to reference energy

  New reference energy                -40.214184478220

  F12a singlet correction              -0.015638734732
  F12a triplet correction              -0.001804170478
  F12a total correction                -0.017442905210

 F12a corrections for ansatz F12/3C(FIX) added to CCSD energy

  CCSD-F12a singlet pair energy        -0.178524120093
  CCSD-F12a triplet pair energy        -0.055217714399
  CCSD-F12a correlation energy         -0.233741834467

  Triples (T) contribution (scaled)    -0.006801215567
  Total correlation energy             -0.240543050034

  CCSD-F12a total energy              -40.447926312687
  CCSD[T]-F12a energy                 -40.454966712476
  CCSD-T-F12a energy                  -40.454652748971
 !CCSD(T)-F12a total energy           -40.454727528253

 F12b corrections for ansatz F12/3C(FIX) added to CCSD(T)-F12a energy

  CCSD-F12b singlet pair energy        -0.175039242389
  CCSD-F12b triplet pair energy        -0.055046765521
  CCSD-F12b correlation energy         -0.230086007886

  Triples (T) contribution (scaled)    -0.006801215567
  Total correlation energy             -0.236887223453

  CCSD-F12b total energy              -40.444270486105
  CCSD[T]-F12b energy                 -40.451310885895
  CCSD-T-F12b energy                  -40.450996922390
 !CCSD(T)-F12b total energy           -40.451071701672

 Timing summary (sec):

 STEP                 CPU(USER)    SYS     CPU(TOT)    WALL
 Transformation         13.00      0.64     13.64     13.65
 CCSD iterations        55.11      2.06     57.17     57.25
 Triples                37.85      0.24     38.09     38.15
 MP2-F12                17.97      0.54     18.51     18.53
 F12b energy             3.37      0.08      3.45      3.45

 Program statistics:

 Available memory in ccsd:              1999999866
 Min. memory needed in ccsd:               1862772
 Max. memory used in ccsd:                 2158322
 Max. memory used in cckext:               1445635 (15 integral passes)



 **********************************************************************************************************************************
 DATASETS  * FILE   NREC   LENGTH (MB)   RECORD NAMES
              1      19      222.31       500      610      700      900      950      970     1000      129      960     1100   
                                          VAR    BASINP    GEOM    SYMINP    ZMAT    AOBASIS   BASIS     P2S    ABASIS      S 
                                         1400     1410     1200     1210     1080     1600     1650     1700     1380   
                                           T        V       H0       H01     AOSYM     SMH    MOLCAS    OPER     JKOP   

              2       9       13.71       700     1000      520     2100     7360     7350      200     2101     2102   
                                         GEOM     BASIS   MCVARS     RHF    F12ABS    EF12    OPTIONS    RHF      RHF  

 PROGRAMS   *        TOTAL   CCSD(T)    HF-SCF       INT   CCSD(T)    HF-SCF       INT   CCSD(T)    HF-SCF       INT
 CPU TIMES  *       868.42    127.53     12.03      0.23    135.29     12.86      0.24    551.07     14.11     14.83
 REAL TIME  *       898.29 SEC
 DISK USED  *       570.60 MB (local),        7.64 GB (total)
 SF USED    *         1.36 GB
 GA USED    *         4.87 MB       (max)       0.00 MB       (current)
 **********************************************************************************************************************************
 Molecular orbitals read from record     2102.2  Type=RHF/CANONICAL (state 1.1)
 Occupation numbers read from record     2102.2  Type=RHF/RHF (state 1.1)
 Orbital energies read from record       2102.2  Type=RHF/CANONICAL (state 1.1)
 Redundancy group numbers read from rec  2102.2  Type=RHF/RHF (state 1.1)

 CCSD(T)-F12/aug-cc-pVTZ energy=    -40.451071701672

     CCSD(T)-F12          HF-SCF     CCSD(T)-F12          HF-SCF     CCSD(T)-F12          HF-SCF
    -40.45107170    -40.21327151    -76.36260364    -76.05847665   -116.81398095   -116.27147275
 **********************************************************************************************************************************
 Molpro calculation terminated
