
 Primary working directories    : /scratch/klimes/383152/molpro.T14xGHNJuy
 Secondary working directories  : /scratch/klimes/383152/molpro.T14xGHNJuy
 Wavefunction directory         : /scratch/klimes/383152/
 Main file repository           : /scratch/klimes/383152/molpro.T14xGHNJuy/

 id        : karlovklimes

 Nodes                      nprocs
 nc-22.cc.karlov.mff.cuni.cz    4

 Using customized tuning parameters: mindgm=1; mindgv=20; mindgc=4; mindgr=1; noblas=0; minvec=7
 default implementation of scratch files=sf  


 Variables initialized (930), CPU time= 0.01 sec
                                                                                 !gdirect
 memory,2000,m
 gthresh,orbital=1d-10,energy=1d-10,grid=1d-8
 
 symmetry,nosym
 angstrom
 geometry={
 O6        -0.534600000000      4.167800000000      1.543100000000
 H11        -0.433700000000      3.518000000000      2.262500000000
 H12        -0.341300000000      3.668400000000      0.725200000000
 C1        -3.277200000000      1.482500000000      1.271900000000
 H41        -2.464000000000      0.899600000000      1.651000000000
 H42        -3.160800000000      2.501000000000      1.578500000000
 H43        -4.201800000000      1.099200000000      1.650100000000
 H44        -3.268500000000      1.421000000000      0.203700000000
 }
 
 nkerna=1
 nkernb=1
 
 gf=0
 sing=1
 thrdum=1d-4
 gridthr=1d-8
 
 basis={
 set,orbital
 default,avtz
 set,jkfit
 default,avqz/jkfit
 set,mp2fit
 default,avqz/mp2fit
 set,ri
 default,avqz/optri
 set,tddft
 default,avqz/mp2fit
 }
 
 proc set_monomer1
 dummy,4,5,6,7,8
 endproc
 
 proc set_monomer2
 dummy,1,2,3
 endproc
 
                                                                                 !12 energy
 {hf,accu=1.d-16}
 {ccsd(t)-f12,df_basis=mp2fit,df_basis_exch=jkfit,ri_basis=ri,scale_trip=1,THRAOF12=1d-10}
 
 set_monomer1
 {hf,accu=1.d-16}
 {ccsd(t)-f12,df_basis=mp2fit,df_basis_exch=jkfit,ri_basis=ri,scale_trip=1,THRAOF12=1d-10}
 
 set_monomer2
 {hf,accu=1.d-16}
 {ccsd(t)-f12,df_basis=mp2fit,df_basis_exch=jkfit,ri_basis=ri,scale_trip=1,THRAOF12=1d-10}
 
 Commands  initialized (760), CPU time= 0.01 sec, 617 directives.
 Default parameters read. Elapsed time= 0.21 sec

 Checking input...
 Passed
1


                                         ***  PROGRAM SYSTEM MOLPRO  ***
                                       Copyright, TTI GmbH Stuttgart, 2015
                                    Version 2019.1 linked Jan 14 2019 13:09:19


 **********************************************************************************************************************************
 LABEL *                                                                                 
  64 bit mpp version                                                                     DATE: 11-Mar-20          TIME: 16:08:46  
 **********************************************************************************************************************************

 SHA1:             d688ac825633d238f2093ded1675ba87ccd55965
 **********************************************************************************************************************************

 THRESHOLDS:

 ZERO    =  1.00D-12  ONEINT  =  1.00D-12  TWOINT  =  1.00D-11  PREFAC  =  1.00D-14  XXXXXX  =  1.00D-09  EORDER  =  1.00D-04
 ENERGY  =  1.00D-10  ETEST   =  0.00D+00  EDENS   =  0.00D+00  THRDEDEF=  1.00D-06  GRADIENT=  1.00D-02  STEP    =  1.00D-03
 ORBITAL =  1.00D-10  CIVEC   =  1.00D-05  COEFF   =  1.00D-04  PRINTCI =  5.00D-02  PUNCHCI =  9.90D+01  OPTGRAD =  3.00D-04
 OPTENERG=  1.00D-06  OPTSTEP =  3.00D-04  THRGRAD =  1.00D-10  COMPRESS=  1.00D-11  VARMIN  =  1.00D-07  VARMAX  =  1.00D-03
 THRDOUB =  0.00D+00  THRDIV  =  1.00D-05  THRRED  =  1.00D-07  THRPSP  =  1.00D+00  THRDC   =  1.00D-10  THRCS   =  1.00D-10
 THRNRM  =  1.00D-08  THREQ   =  0.00D+00  THRDE   =  1.00D+00  THRREF  =  1.00D-05  SPARFAC =  1.00D+00  THRDLP  =  1.00D-07
 THRDIA  =  1.00D-10  THRDLS  =  1.00D-07  THRGPS  =  0.00D+00  THRKEX  =  0.00D+00  THRDIS  =  2.00D-01  THRVAR  =  1.00D-10
 THRLOC  =  1.00D-06  THRGAP  =  1.00D-06  THRLOCT = -1.00D+00  THRGAPT = -1.00D+00  THRORB  =  1.00D-06  THRMLTP =  0.00D+00
 THRCPQCI=  1.00D-10  KEXTA   =  0.00D+00  THRCOARS=  0.00D+00  SYMTOL  =  1.00D-06  GRADTOL =  1.00D-06  THROVL  =  1.00D-08
 THRORTH =  1.00D-08  GRID    =  1.00D-08  GRIDMAX =  1.00D-03  DTMAX   =  0.00D+00  THROCCDE=  1.00D-01  THROCCDE=  1.00D-01
 THRPRINT=  2.50D-01


 Variable memory set to 2000000000 words,  buffer space 

 ZSYMEL=NOSYM
 ZUNIT=ANG


Geometry recognized as XYZ

 SETTING NKERNA         =         1.00000000                                  
 SETTING NKERNB         =         1.00000000                                  
 SETTING GF             =     0.00000000D+00                                  
 SETTING SING           =         1.00000000                                  
 SETTING THRDUM         =     1.00000000D-04                                  
 SETTING GRIDTHR        =     1.00000000D-08                                  
 SETTING BASIS          =    AVTZ


 Recomputing integrals since basis changed


 Using spherical harmonics

 Library entry O      S aug-cc-pVTZ          selected for orbital group  1
 Library entry O      P aug-cc-pVTZ          selected for orbital group  1
 Library entry O      D aug-cc-pVTZ          selected for orbital group  1
 Library entry O      F aug-cc-pVTZ          selected for orbital group  1
 Library entry H      S aug-cc-pVTZ          selected for orbital group  2
 Library entry H      P aug-cc-pVTZ          selected for orbital group  2
 Library entry H      D aug-cc-pVTZ          selected for orbital group  2
 Library entry C      S aug-cc-pVTZ          selected for orbital group  3
 Library entry C      P aug-cc-pVTZ          selected for orbital group  3
 Library entry C      D aug-cc-pVTZ          selected for orbital group  3
 Library entry C      F aug-cc-pVTZ          selected for orbital group  3


 PROGRAM * SEWARD (Integral evaluation for generally contracted gaussian basis sets)     Author: Roland Lindh, 1990

 Geometry written to block  1 of record 700


 Point group  C1  



 ATOMIC COORDINATES

 NR  ATOM    CHARGE       X              Y              Z

   1  O6      8.00   -1.010247586    7.876000542    2.916036383
   2  H11     1.00   -0.819574220    6.648056506    4.275505357
   3  H12     1.00   -0.644963526    6.932271315    1.370429386
   4  C1      6.00   -6.193010455    2.801518980    2.403542658
   5  H41     1.00   -4.656285171    1.699997622    3.119937832
   6  H42     1.00   -5.973046335    4.726205038    2.982932688
   7  H43     1.00   -7.940251230    2.077186956    3.118237078
   8  H44     1.00   -6.176569838    2.685300823    0.384937212

 Bond lengths in Bohr (Angstrom)

 1-2  1.841835709  1-3  1.847419359  4-5  2.021904040  4-6  2.022002335  4-7  2.021953343
     ( 0.974657483)     ( 0.977612224)     ( 1.069945541)     ( 1.069997556)     ( 1.069971630)

 4-8  2.022015060
     ( 1.070004290)

 Bond angles

  2-1-3  104.86126985   5-4-6  109.53398059   5-4-7  109.65604535   5-4-8  108.43490854

  6-4-7  109.49436728   6-4-8  109.86987750   7-4-8  109.83468330

 NUCLEAR CHARGE:                   20
 NUMBER OF PRIMITIVE AOS:         296
 NUMBER OF SYMMETRY AOS:          266
 NUMBER OF CONTRACTIONS:          230   (  230A   )
 NUMBER OF CORE ORBITALS:           2   (    2A   )
 NUMBER OF VALENCE ORBITALS:       14   (   14A   )


 NUCLEAR REPULSION ENERGY   36.57703656


 Basis set:  JKFIT                   
 Basis size:   740
 Attributes:
 Sphericals:   T
 Basis set:  MP2FIT                  
 Basis size:   816
 Attributes:
 Sphericals:   T
 Basis set:  RI                      
 Basis size:   556
 Attributes:
 Sphericals:   T
 Basis set:  TDDFT                   
 Basis size:   816
 Attributes:
 Sphericals:   T

 **********************************************************************************************************************************


 Eigenvalues of metric

         1 0.611E-04 0.699E-04 0.938E-04 0.103E-03 0.334E-03 0.392E-03 0.621E-03 0.744E-03


 Contracted 2-electron integrals neglected if value below      1.0D-14
 AO integral compression algorithm  1   Integral accuracy      1.0D-14

     2229.797 MB (compressed) written to integral file ( 69.5%)

     Node minimum: 536.347 MB, node maximum: 568.590 MB


 NUMBER OF SORTED TWO-ELECTRON INTEGRALS:   88219044.     BUFFER LENGTH:  32768
 NUMBER OF SEGMENTS:   6  SEGMENT LENGTH:   15998348      RECORD LENGTH: 524288

 Memory used in sort:      16.56 MW

 SORT1 READ   400769927. AND WROTE    82633868. INTEGRALS IN    239 RECORDS. CPU TIME:     7.66 SEC, REAL TIME:     8.43 SEC
 SORT2 READ   330507529. AND WROTE   352862895. INTEGRALS IN   8568 RECORDS. CPU TIME:     1.64 SEC, REAL TIME:     2.41 SEC

 Node minimum:    88205762.  Node maximum:    88225686. integrals

 OPERATOR DM      FOR CENTER  0  COORDINATES:    0.000000    0.000000    0.000000


 **********************************************************************************************************************************
 DATASETS  * FILE   NREC   LENGTH (MB)   RECORD NAMES
              1      18       32.04       500      610      700      900      950      970     1000      129      960     1100   
                                          VAR    BASINP    GEOM    SYMINP    ZMAT    AOBASIS   BASIS     P2S    ABASIS      S 
                                         1400     1410     1200     1210     1080     1600     1650     1700   
                                           T        V       H0       H01     AOSYM     SMH    MOLCAS    OPER   

 PROGRAMS   *        TOTAL       INT
 CPU TIMES  *        14.11     13.89
 REAL TIME  *        18.48 SEC
 DISK USED  *        32.49 MB (local),        6.27 GB (total)
 GA USED    *         0.00 MB       (max)       0.00 MB       (current)
 **********************************************************************************************************************************


 PROGRAM * RHF-SCF (CLOSED SHELL)       Authors: W. Meyer, H.-J. Werner


 NUMBER OF ELECTRONS:      10+   10-    SPACE SYMMETRY=1    SPIN SYMMETRY: Singlet 
 CONVERGENCE THRESHOLDS:    1.00E-08 (Density)    1.00E-11 (Energy)
 MAX. NUMBER OF ITERATIONS:       60
 INTERPOLATION TYPE:            DIIS
 INTERPOLATION STEPS:              2 (START)      1 (STEP)
 LEVEL SHIFTS:                  0.00 (CLOSED)  0.00 (OPEN) 



 Orbital guess generated from atomic densities. Full valence occupancy:   16

 Molecular orbital dump at record        2100.2

 Initial occupancy:  10

 ITERATION    DDIFF          GRAD             ENERGY        2-EL.EN.            DIPOLE MOMENTS         DIIS   ORB.
    1      0.000D+00      0.000D+00      -116.21445434    158.524079    0.29103   -1.11226   -0.09784    0    start
    2      0.000D+00      0.521D-02      -116.25803177    153.739526    0.13556   -0.62498   -0.05752    1    diag
    3      0.549D-02      0.305D-02      -116.27119993    155.731209    0.17612   -0.74544   -0.06691    2    diag
    4      0.182D-02      0.452D-03      -116.27184617    155.620379    0.17436   -0.73399   -0.06533    3    diag
    5      0.402D-03      0.132D-03      -116.27191238    155.614439    0.17367   -0.73321   -0.06505    4    diag
    6      0.141D-03      0.323D-04      -116.27191612    155.620350    0.17335   -0.73236   -0.06488    5    diag
    7      0.396D-04      0.628D-05      -116.27191634    155.618765    0.17333   -0.73236   -0.06486    6    diag
    8      0.109D-04      0.158D-05      -116.27191636    155.618910    0.17329   -0.73229   -0.06484    7    diag
    9      0.237D-05      0.352D-06      -116.27191636    155.618885    0.17329   -0.73228   -0.06484    8    diag
   10      0.743D-06      0.412D-07      -116.27191636    155.618887    0.17329   -0.73228   -0.06484    9    orth
   11      0.585D-07      0.104D-07      -116.27191636    155.618888    0.17329   -0.73228   -0.06484    9    diag
   12      0.226D-07      0.268D-08      -116.27191636    155.618888    0.17329   -0.73228   -0.06484    9    diag
   13      0.442D-08      0.691D-09      -116.27191636    155.618888    0.17329   -0.73228   -0.06484    0    orth

 Final occupancy:  10

 !RHF STATE  1.1 Energy              -116.271916360805
 Nuclear energy                        36.57703656
 One-electron energy                 -230.65839714
 Two-electron energy                   77.80944423
 Virial quotient                       -1.00101085
 !RHF STATE  1.1 Dipole moment          0.17328986    -0.73227704    -0.06484110
 Dipole moment /Debye                   0.44043004    -1.86114068    -0.16479885

 Orbital energies:

         1.1          2.1          3.1          4.1          5.1          6.1          7.1          8.1          9.1         10.1
    -20.569686   -11.199479    -1.343436    -0.953466    -0.707861    -0.580507    -0.554426    -0.552444    -0.550866    -0.507583

        11.1         12.1
      0.025535     0.041001


 HOMO     10.1    -0.507583 =     -13.8120eV
 LUMO     11.1     0.025535 =       0.6948eV
 LUMO-HOMO         0.533118 =      14.5069eV


 **********************************************************************************************************************************
 DATASETS  * FILE   NREC   LENGTH (MB)   RECORD NAMES
              1      18       32.04       500      610      700      900      950      970     1000      129      960     1100   
                                          VAR    BASINP    GEOM    SYMINP    ZMAT    AOBASIS   BASIS     P2S    ABASIS      S 
                                         1400     1410     1200     1210     1080     1600     1650     1700   
                                           T        V       H0       H01     AOSYM     SMH    MOLCAS    OPER   

              2       4        3.96       700     1000      520     2100   
                                         GEOM     BASIS   MCVARS     RHF  

 PROGRAMS   *        TOTAL    HF-SCF       INT
 CPU TIMES  *        28.35     14.24     13.89
 REAL TIME  *        34.16 SEC
 DISK USED  *        39.90 MB (local),        6.30 GB (total)
 SF USED    *         0.21 MB
 GA USED    *         0.00 MB       (max)       0.00 MB       (current)
 **********************************************************************************************************************************

 Basis set:  JKFIT                   
 Basis size:   740
 Attributes:
 Sphericals:   T
 Basis set:  MP2FIT                  
 Basis size:   816
 Attributes:
 Sphericals:   T
 Basis set:  RI                      
 Basis size:   556
 Attributes:
 Sphericals:   T
 Basis set:  TDDFT                   
 Basis size:   816
 Attributes:
 Sphericals:   T

 PROGRAM * CCSD (Closed-shell coupled cluster)     Authors: C. Hampel, H.-J. Werner, 1991, M. Deegan, P.J. Knowles, 1992

                                  CCSD-F12 implementation by  H.-J. Werner, 2007

                   Density fitting integral evaluation by F.R. Manby, 2003,2007, G. Knizia, 2010



 Convergence thresholds:  THRVAR = 1.00D-08  THRDEN = 1.00D-10

 CCSD(T)     terms to be evaluated (factor= 1.000)


 Number of core orbitals:           2 (   2 )
 Number of closed-shell orbitals:   8 (   8 )
 Number of external orbitals:     220 ( 220 )

 Molecular orbitals read from record     2100.2  Type=RHF/CANONICAL (state 1.1)

 MP2-F12 correlation treatment (H.-J. Werner, 2006)
 ==================================================

 Using MP2-F12 with ansatz 3C(FIX)

 Using projected zeroth-order Hamiltonian (+Z)

 FOCKRIB=T FOCKRIC=T FOCKRIP=T CABSP=T CABSA=T CABSK=T CABSF=T GBC=F EBC=F DMAT=T NOFIK=T NOPAO=1 SOLVE=-1  USEPAO=0
 EXCH_A= T EXCH_B= F EXCH_C= F EXCH_P= F

 Geminal basis:    OPTFULL  GEM_TYPE=SLATER  BETA=1.0  NGEM=6

 Optimizing Gaussian exponents for each gem_beta

 Geminal optimization for beta= 1.0000
 Weight function:   m=0, omega= 1.4646

 Augmented Hessian optimization of geminal fit. Trust ratio= 0.40000
 Convergence reached after   2 iterations. Final gradient= 7.85D-16, Step= 4.26D-06, Delta= 1.28D-09

 Alpha:                 0.19532     0.81920     2.85917     9.50073    35.69989   197.79328
 Coeff:                 0.27070     0.30552     0.18297     0.10986     0.06810     0.04224


 All pairs explicitly correlated. Number of r12-pairs:           36

 Excluding core orbitals from MO domains

 AO(A)-basis ORBITAL           loaded. Number of functions:     230
 RI(R)-basis RI                loaded. Number of functions:     556
 DF-basis JKFIT                loaded. Number of functions:     740

 Screening thresholds:   THRAO=  1.00D-10  THRMO=  1.00D-09  THRPROD=  1.00D-09
                         THRSW=  1.00D-05  THROV=  1.00D-12  THRAOF12= 1.00D-10

 CPU time for Fock operators                      3.52 sec

 Construction of ABS:
 Smallest eigenvalue of S          1.15E-04  (threshold= 1.00E-08)
 Ratio eigmin/eigmax               1.63E-05  (threshold= 1.00E-09)
 Smallest eigenvalue of S kept     1.15E-04  (threshold= 1.15E-04, 0 functions deleted, 556 kept)

 Construction of CABS:
 Smallest eigenvalue of S          6.72E-07  (threshold= 1.00E-08)
 Ratio eigmin/eigmax               6.72E-07  (threshold= 1.00E-09)
 Smallest eigenvalue of S kept     6.72E-07  (threshold= 6.72E-07, 0 functions deleted, 556 kept)

 CPU time for CABS singles                        0.65 sec

 CABS-singles contribution of  -0.00238381 patched into reference energy.
 New reference energy        -116.27430017

 AO(A)-basis ORBITAL           loaded. Number of functions:     230
 RI(R)-basis RI                loaded. Number of functions:     556
 DF-basis MP2FIT               loaded. Number of functions:     816

 Screening thresholds:   THRAO=  1.00D-10  THRMO=  1.00D-09  THRPROD=  1.00D-09
                         THRSW=  1.00D-05  THROV=  1.00D-12  THRAOF12= 1.00D-10

 CPU time for 3-index integral evaluation         5.43 sec
 CPU time for first  half transformation          0.83 sec ( 3301.8 MFLOP/sec)
 CPU time for second half transformation          0.04 sec ( 1278.8 MFLOP/sec)
 CPU time for sorting                             0.07 sec
 CPU time for fitting                             0.52 sec ( 4179.5 MFLOP/sec)
 CPU time for tilde quantities                    0.62 sec ( 4450.5 MFLOP/sec)
 CPU time for assembly                            4.48 sec ( 4421.0 MFLOP/sec)
 CPU time for tranop_f12                          4.42 sec ( 4319.0 MFLOP/sec)
 CPU time for f12 integrals (total)              23.20 sec, Elapsed time:     23.84 sec
 F12-matrices built in  4 passes.
 F12-matrices built in  4 passes.
 F12-matrices built in  4 passes.
 F12-matrices built in  4 passes.
 FC-matrix built in  4 passes.
 CPU time for f12 matrices (total)                1.10 sec, Elapsed time:      1.15 sec

 Diagonal F12 approximation with fixed coefficients:  TSING= 0.500,  TTRIP= 0.250 (scaled by -1/beta)

 DF-MP2-F12 energy corrections:
 ==============================
 Approx.                                    Singlet             Triplet             Total
 DF-MP2-F12/3*C(DX,FIX)                -0.046234244277     -0.006810194617     -0.053044438894
 DF-MP2-F12/3*C(FIX)                   -0.039916107854     -0.005616845746     -0.045532953600
 DF-MP2-F12/3C(FIX)                    -0.040032543645     -0.005582674210     -0.045615217855

 DF-MP2-F12 correlation energies:
 ================================
 Approx.                                    Singlet             Triplet             Ecorr            Total Energy
 DF-MP2                                -0.317298526479     -0.153847553069     -0.471146079547   -116.745446252790
 DF-MP2-F12/3*C(DX,FIX)                -0.363532770756     -0.160657747686     -0.524190518441   -116.798490691684
 DF-MP2-F12/3*C(FIX)                   -0.357214634333     -0.159464398815     -0.516679033148   -116.790979206390
 DF-MP2-F12/3C(FIX)                    -0.357331070124     -0.159430227278     -0.516761297402   -116.791061470645

 SCS-DF-MP2 energies (F_SING= 1.20000  F_TRIP= 0.62222  F_PARALLEL= 0.33333):
 ============================================================================
 SCS-DF-MP2                            -0.476485598128   -116.750785771371
 SCS-DF-MP2-F12/3*C(DX,FIX)            -0.536204145689   -116.810504318931
 SCS-DF-MP2-F12/3*C(FIX)               -0.527879853795   -116.802180027037
 SCS-DF-MP2-F12/3C(FIX)                -0.527998314455   -116.802298487698
 Symmetry transformation completed.

 Number of N-1 electron functions:               8
 Number of N-2 electron functions:              36
 Number of singly external CSFs:              1760
 Number of doubly external CSFs:           1549680
 Total number of CSFs:                     1551441

 Pair and operator lists are different

 Length of J-op  integral file:             315.61 MB
 Length of K-op  integral file:             368.50 MB
 Length of 3-ext integral record:             0.00 MB

 Memory could be reduced to 116.32 Mwords without degradation in triples

 Integral transformation finished. Total CPU:  23.95 sec, npass=  1  Memory used:  59.34 MW

 Reference energy:                   -116.27430017

 Adding F12 terms to K(Cij), methodcc=6,  factor= 1.0

 ITER.      SQ.NORM     CORR.ENERGY   TOTAL ENERGY   ENERGY CHANGE        DEN1      VAR(S)    VAR(P)  DIIS     TIME  TIME/IT
   1      1.13191621    -0.48581702  -116.76011719    -0.01465356    -0.00305246  0.15D-02  0.20D-02  1  1    68.82    14.39
   2      1.14012867    -0.48608006  -116.76038023    -0.00026304    -0.00967620  0.28D-04  0.22D-03  2  2    83.40    15.14
   3      1.14299354    -0.48633704  -116.76063721    -0.00025698    -0.00196349  0.12D-04  0.12D-04  3  3    97.92    15.02
   4      1.14386201    -0.48639147  -116.76069164    -0.00005443    -0.00047923  0.52D-06  0.11D-05  4  4   112.80    15.04
   5      1.14400652    -0.48638618  -116.76068636     0.00000528    -0.00003914  0.20D-06  0.75D-07  5  5   127.22    14.99
   6      1.14404644    -0.48638326  -116.76068344     0.00000292    -0.00000597  0.18D-07  0.59D-08  6  6   141.79    14.96
   7      1.14405577    -0.48638255  -116.76068272     0.00000072    -0.00000244  0.17D-08  0.91D-09  6  2   156.37    14.94
   8      1.14405786    -0.48638243  -116.76068260     0.00000012    -0.00000027  0.32D-09  0.10D-09  6  1   170.98    14.93
   9      1.14405864    -0.48638250  -116.76068268    -0.00000007     0.00000000  0.30D-10  0.15D-10  6  3   185.61    14.92
  10      1.14405882    -0.48638249  -116.76068267     0.00000001     0.00000003  0.34D-11  0.20D-11  6  4   200.10    14.91
  11      1.14405877    -0.48638250  -116.76068267    -0.00000001     0.00000008  0.61D-12  0.28D-12  6  5   214.67    14.90
  12      1.14405874    -0.48638250  -116.76068267    -0.00000000     0.00000002  0.12D-12  0.38D-13  6  6   229.26    14.89
  13      1.14405872    -0.48638250  -116.76068267     0.00000000     0.00000001  0.19D-13  0.58D-14  6  2   243.83    14.88
  14      1.14405872    -0.48638250  -116.76068267    -0.00000000     0.00000000  0.25D-14  0.12D-14  6  1   258.38    14.87
  15      1.14405871    -0.48638250  -116.76068267    -0.00000000    -0.00000000  0.26D-15  0.15D-15  6  3   272.93    14.87
  16      1.14405871    -0.48638250  -116.76068267     0.00000000    -0.00000000  0.39D-16  0.20D-16  6  4   287.59    14.87
  17      1.14405871    -0.48638250  -116.76068267     0.00000000    -0.00000000  0.81D-17  0.34D-17  6  5   302.07    14.86

 Norm of t1 vector:      0.05047988      S-energy:     0.00000000      T1 diagnostic:  0.00892367
                                                                       D1 diagnostic:  0.01904444

 Adding energy correction from Wij-K(Fij), methodcc=6  factor= 1.0

  CCSD correlation energy              -0.486382501699
  MP2-F12 correction (uncoupled)       -0.045361130952
  C*T doubles correction               -0.000606796491
  f12b correction                       0.008419890389


 Total CPU time for triples:    218.63 sec

  Ecorr(MP2)                           -0.471163457700
  Ecorr(MP2-F12)                       -0.516778675555
  Scale factor for triples energy       1.096813997583


 RESULTS
 =======

  Reference energy                   -116.271916360804
  F12 singles correction               -0.002383812439

 F12 singles corrections added to reference energy

  New reference energy               -116.274300173242

  F12a singlet correction              -0.040289758772
  F12a triplet correction              -0.005678168671
  F12a total correction                -0.045967927443

 F12a corrections for ansatz F12/3C(FIX) added to CCSD energy

  CCSD-F12a singlet pair energy        -0.385913138358
  CCSD-F12a triplet pair energy        -0.146437290878
  CCSD-F12a correlation energy         -0.532350429141

  Triples (T) contribution (scaled)    -0.016467333130
  Total correlation energy             -0.548817762272

  CCSD-F12a total energy             -116.806650602384
  CCSD[T]-F12a energy                -116.823707977780
  CCSD-T-F12a energy                 -116.822898952607
 !CCSD(T)-F12a total energy          -116.823117935514

 F12b corrections for ansatz F12/3C(FIX) added to CCSD(T)-F12a energy

  CCSD-F12b singlet pair energy        -0.378024780118
  CCSD-F12b triplet pair energy        -0.145905758730
  CCSD-F12b correlation energy         -0.523930538753

  Triples (T) contribution (scaled)    -0.016467333130
  Total correlation energy             -0.540397871883

  CCSD-F12b total energy             -116.798230711995
  CCSD[T]-F12b energy                -116.815288087392
  CCSD-T-F12b energy                 -116.814479062218
 !CCSD(T)-F12b total energy          -116.814698045126

 Timing summary (sec):

 STEP                 CPU(USER)    SYS     CPU(TOT)    WALL
 Transformation         24.12      1.02     25.14     25.32
 CCSD iterations       247.56      3.85    251.41    252.73
 Triples               218.63      1.14    219.77    220.02
 MP2-F12                30.41      0.86     31.27     31.38
 F12b energy            11.24      0.06     11.30     11.31

 Program statistics:

 Available memory in ccsd:              1999999554
 Min. memory needed in ccsd:               4597329
 Max. memory used in ccsd:                 5918289
 Max. memory used in cckext:               4231061 (18 integral passes)



 **********************************************************************************************************************************
 DATASETS  * FILE   NREC   LENGTH (MB)   RECORD NAMES
              1      19      398.06       500      610      700      900      950      970     1000      129      960     1100   
                                          VAR    BASINP    GEOM    SYMINP    ZMAT    AOBASIS   BASIS     P2S    ABASIS      S 
                                         1400     1410     1200     1210     1080     1600     1650     1700     1380   
                                           T        V       H0       H01     AOSYM     SMH    MOLCAS    OPER     JKOP   

              2       6        5.03       700     1000      520     2100     7360     7350   
                                         GEOM     BASIS   MCVARS     RHF    F12ABS    EF12   

 PROGRAMS   *        TOTAL   CCSD(T)    HF-SCF       INT
 CPU TIMES  *       560.54    532.18     14.24     13.89
 REAL TIME  *       575.75 SEC
 DISK USED  *       570.60 MB (local),        7.92 GB (total)
 SF USED    *         1.36 GB
 GA USED    *         4.87 MB       (max)       0.00 MB       (current)
 **********************************************************************************************************************************

 Running procedure: SET_MONOMER1

 Dummy atoms: C1  H41  H42  H43  H44


 Recomputing one-electron integrals since nuclear charges changed


 PROGRAM * SEWARD (Integral evaluation for generally contracted gaussian basis sets)     Author: Roland Lindh, 1990

 Geometry written to block  1 of record 700


 Point group  C1  



 ATOMIC COORDINATES

 NR  ATOM    CHARGE       X              Y              Z

   1  O6      8.00   -1.010247586    7.876000542    2.916036383
   2  H11     1.00   -0.819574220    6.648056506    4.275505357
   3  H12     1.00   -0.644963526    6.932271315    1.370429386
   4  C1      0.00   -6.193010455    2.801518980    2.403542658
   5  H41     0.00   -4.656285171    1.699997622    3.119937832
   6  H42     0.00   -5.973046335    4.726205038    2.982932688
   7  H43     0.00   -7.940251230    2.077186956    3.118237078
   8  H44     0.00   -6.176569838    2.685300823    0.384937212

 Bond lengths in Bohr (Angstrom)

 1-2  1.841835709  1-3  1.847419359  4-5  2.021904040  4-6  2.022002335  4-7  2.021953343
     ( 0.974657483)     ( 0.977612224)     ( 1.069945541)     ( 1.069997556)     ( 1.069971630)

 4-8  2.022015060
     ( 1.070004290)

 Bond angles

  2-1-3  104.86126985   5-4-6  109.53398059   5-4-7  109.65604535   5-4-8  108.43490854

  6-4-7  109.49436728   6-4-8  109.86987750   7-4-8  109.83468330

 NUCLEAR CHARGE:                   10
 NUMBER OF PRIMITIVE AOS:         296
 NUMBER OF SYMMETRY AOS:          266
 NUMBER OF CONTRACTIONS:          230   (  230A   )
 NUMBER OF CORE ORBITALS:           1   (    1A   )
 NUMBER OF VALENCE ORBITALS:        6   (    6A   )

 MOLECULE CHANGED: INITIALIZING OCCUPATION AND DUMP RECORDS


 NUCLEAR REPULSION ENERGY    9.01583577

 Basis set:  JKFIT                   
 Basis size:   740
 Attributes:
 Sphericals:   T
 Basis set:  MP2FIT                  
 Basis size:   816
 Attributes:
 Sphericals:   T
 Basis set:  RI                      
 Basis size:   556
 Attributes:
 Sphericals:   T
 Basis set:  TDDFT                   
 Basis size:   816
 Attributes:
 Sphericals:   T

 Eigenvalues of metric

         1 0.611E-04 0.699E-04 0.938E-04 0.103E-03 0.334E-03 0.392E-03 0.621E-03 0.744E-03


 Contracted 2-electron integrals neglected if value below      1.0D-14

 OPERATOR DM      FOR CENTER  0  COORDINATES:    0.000000    0.000000    0.000000


 **********************************************************************************************************************************
 DATASETS  * FILE   NREC   LENGTH (MB)   RECORD NAMES
              1      18       32.04       500      610      700      900      950      970     1000      129      960     1100   
                                          VAR    BASINP    GEOM    SYMINP    ZMAT    AOBASIS   BASIS     P2S    ABASIS      S 
                                         1400     1410     1200     1210     1080     1600     1650     1700   
                                           T        V       H0       H01     AOSYM     SMH    MOLCAS    OPER   

              2       7        5.05       700     1000      520     2100     7360     7350      200   
                                         GEOM     BASIS   MCVARS     RHF    F12ABS    EF12    OPTIONS    

 PROGRAMS   *        TOTAL       INT   CCSD(T)    HF-SCF       INT
 CPU TIMES  *       560.77      0.22    532.18     14.24     13.89
 REAL TIME  *       576.49 SEC
 DISK USED  *       570.60 MB (local),        7.92 GB (total)
 SF USED    *         1.36 GB
 GA USED    *         4.87 MB       (max)       0.00 MB       (current)
 **********************************************************************************************************************************


 PROGRAM * RHF-SCF (CLOSED SHELL)       Authors: W. Meyer, H.-J. Werner


 NUMBER OF ELECTRONS:       5+    5-    SPACE SYMMETRY=1    SPIN SYMMETRY: Singlet 
 CONVERGENCE THRESHOLDS:    1.00E-08 (Density)    1.00E-11 (Energy)
 MAX. NUMBER OF ITERATIONS:       60
 INTERPOLATION TYPE:            DIIS
 INTERPOLATION STEPS:              2 (START)      1 (STEP)
 LEVEL SHIFTS:                  0.00 (CLOSED)  0.00 (OPEN) 



 Orbital guess generated from atomic densities. Full valence occupancy:    7

 Molecular orbital dump at record        2101.2

 Initial occupancy:   5

 ITERATION    DDIFF          GRAD             ENERGY        2-EL.EN.            DIPOLE MOMENTS         DIIS   ORB.
    1      0.000D+00      0.000D+00       -76.02053138     77.399126    0.28483   -1.11213   -0.09631    0    start
    2      0.000D+00      0.640D-02       -76.04720622     73.777747    0.16587   -0.64772   -0.05517    1    diag
    3      0.446D-02      0.407D-02       -76.05852808     75.378618    0.19535   -0.76290   -0.06518    2    diag
    4      0.161D-02      0.376D-03       -76.05871793     75.289208    0.19423   -0.75859   -0.06463    3    diag
    5      0.206D-03      0.104D-03       -76.05873775     75.303358    0.19381   -0.75697   -0.06442    4    diag
    6      0.649D-04      0.202D-04       -76.05873897     75.302495    0.19373   -0.75668   -0.06437    5    diag
    7      0.168D-04      0.399D-05       -76.05873903     75.302621    0.19370   -0.75656   -0.06435    6    diag
    8      0.450D-05      0.735D-06       -76.05873903     75.302607    0.19369   -0.75653   -0.06435    7    diag
    9      0.739D-06      0.923D-07       -76.05873903     75.302598    0.19369   -0.75652   -0.06435    8    diag
   10      0.932D-07      0.224D-07       -76.05873903     75.302601    0.19369   -0.75652   -0.06435    9    orth
   11      0.241D-07      0.410D-08       -76.05873903     75.302600    0.19369   -0.75652   -0.06435    9    diag
   12      0.495D-08      0.602D-09       -76.05873903     75.302600    0.19369   -0.75652   -0.06435    0    orth

 Final occupancy:   5

 !RHF STATE  1.1 Energy               -76.058739030513
 Nuclear energy                         9.01583577
 One-electron energy                 -122.72587501
 Two-electron energy                   37.65130021
 Virial quotient                       -1.00228577
 !RHF STATE  1.1 Dipole moment          0.19368749    -0.75652157    -0.06435054
 Dipole moment /Debye                   0.49227225    -1.92276009    -0.16355204

 Orbital energies:

         1.1          2.1          3.1          4.1          5.1          6.1          7.1
    -20.570298    -1.343778    -0.708221    -0.580620    -0.508720     0.019157     0.038202


 HOMO      5.1    -0.508720 =     -13.8430eV
 LUMO      6.1     0.019157 =       0.5213eV
 LUMO-HOMO         0.527877 =      14.3643eV


 **********************************************************************************************************************************
 DATASETS  * FILE   NREC   LENGTH (MB)   RECORD NAMES
              1      18       32.04       500      610      700      900      950      970     1000      129      960     1100   
                                          VAR    BASINP    GEOM    SYMINP    ZMAT    AOBASIS   BASIS     P2S    ABASIS      S 
                                         1400     1410     1200     1210     1080     1600     1650     1700   
                                           T        V       H0       H01     AOSYM     SMH    MOLCAS    OPER   

              2       8        9.09       700     1000      520     2100     7360     7350      200     2101   
                                         GEOM     BASIS   MCVARS     RHF    F12ABS    EF12    OPTIONS    RHF  

 PROGRAMS   *        TOTAL    HF-SCF       INT   CCSD(T)    HF-SCF       INT
 CPU TIMES  *       574.08     13.31      0.22    532.18     14.24     13.89
 REAL TIME  *       591.03 SEC
 DISK USED  *       570.60 MB (local),        7.92 GB (total)
 SF USED    *         1.36 GB
 GA USED    *         4.87 MB       (max)       0.00 MB       (current)
 **********************************************************************************************************************************

 Basis set:  JKFIT                   
 Basis size:   740
 Attributes:
 Sphericals:   T
 Basis set:  MP2FIT                  
 Basis size:   816
 Attributes:
 Sphericals:   T
 Basis set:  RI                      
 Basis size:   556
 Attributes:
 Sphericals:   T
 Basis set:  TDDFT                   
 Basis size:   816
 Attributes:
 Sphericals:   T

 PROGRAM * CCSD (Closed-shell coupled cluster)     Authors: C. Hampel, H.-J. Werner, 1991, M. Deegan, P.J. Knowles, 1992

                                  CCSD-F12 implementation by  H.-J. Werner, 2007

                   Density fitting integral evaluation by F.R. Manby, 2003,2007, G. Knizia, 2010



 Convergence thresholds:  THRVAR = 1.00D-08  THRDEN = 1.00D-10

 CCSD(T)     terms to be evaluated (factor= 1.000)


 Number of core orbitals:           1 (   1 )
 Number of closed-shell orbitals:   4 (   4 )
 Number of external orbitals:     225 ( 225 )

 Molecular orbitals read from record     2101.2  Type=RHF/CANONICAL (state 1.1)

 MP2-F12 correlation treatment (H.-J. Werner, 2006)
 ==================================================

 Using MP2-F12 with ansatz 3C(FIX)

 Using projected zeroth-order Hamiltonian (+Z)

 FOCKRIB=T FOCKRIC=T FOCKRIP=T CABSP=T CABSA=T CABSK=T CABSF=T GBC=F EBC=F DMAT=T NOFIK=T NOPAO=1 SOLVE=-1  USEPAO=0
 EXCH_A= T EXCH_B= F EXCH_C= F EXCH_P= F

 Geminal basis:    OPTFULL  GEM_TYPE=SLATER  BETA=1.0  NGEM=6

 Optimizing Gaussian exponents for each gem_beta

 Geminal optimization for beta= 1.0000
 Weight function:   m=0, omega= 1.4646

 Augmented Hessian optimization of geminal fit. Trust ratio= 0.40000
 Convergence reached after   2 iterations. Final gradient= 8.31D-16, Step= 4.24D-06, Delta= 1.28D-09

 Alpha:                 0.19532     0.81920     2.85917     9.50073    35.69989   197.79328
 Coeff:                 0.27070     0.30552     0.18297     0.10986     0.06810     0.04224


 All pairs explicitly correlated. Number of r12-pairs:           10

 Excluding core orbitals from MO domains

 AO(A)-basis ORBITAL           loaded. Number of functions:     230
 RI(R)-basis RI                loaded. Number of functions:     556
 DF-basis JKFIT                loaded. Number of functions:     740

 Screening thresholds:   THRAO=  1.00D-10  THRMO=  1.00D-09  THRPROD=  1.00D-09
                         THRSW=  1.00D-05  THROV=  1.00D-12  THRAOF12= 1.00D-10

 CPU time for Fock operators                      3.05 sec

 Construction of ABS:
 Smallest eigenvalue of S          1.15E-04  (threshold= 1.00E-08)
 Ratio eigmin/eigmax               1.63E-05  (threshold= 1.00E-09)
 Smallest eigenvalue of S kept     1.15E-04  (threshold= 1.15E-04, 0 functions deleted, 556 kept)

 Construction of CABS:
 Smallest eigenvalue of S          6.72E-07  (threshold= 1.00E-08)
 Ratio eigmin/eigmax               6.72E-07  (threshold= 1.00E-09)
 Smallest eigenvalue of S kept     6.72E-07  (threshold= 6.72E-07, 0 functions deleted, 556 kept)

 CPU time for CABS singles                        0.68 sec

 CABS-singles contribution of  -0.00147536 patched into reference energy.
 New reference energy         -76.06021439

 AO(A)-basis ORBITAL           loaded. Number of functions:     230
 RI(R)-basis RI                loaded. Number of functions:     556
 DF-basis MP2FIT               loaded. Number of functions:     816

 Screening thresholds:   THRAO=  1.00D-10  THRMO=  1.00D-09  THRPROD=  1.00D-09
                         THRSW=  1.00D-05  THROV=  1.00D-12  THRAOF12= 1.00D-10

 CPU time for 3-index integral evaluation         5.44 sec
 CPU time for first  half transformation          0.59 sec ( 2347.1 MFLOP/sec)
 CPU time for sorting                             0.05 sec
 CPU time for fitting                             0.32 sec ( 1040.4 MFLOP/sec)
 CPU time for tilde quantities                    0.42 sec ( 5729.5 MFLOP/sec)
 CPU time for assembly                            1.40 sec ( 4170.2 MFLOP/sec)
 CPU time for tranop_f12                          1.25 sec ( 3704.1 MFLOP/sec)
 CPU time for f12 integrals (total)              11.89 sec, Elapsed time:     12.16 sec
 F12-matrices built in  4 passes.
 F12-matrices built in  4 passes.
 F12-matrices built in  4 passes.
 F12-matrices built in  4 passes.
 FC-matrix built in  4 passes.
 CPU time for f12 matrices (total)                0.28 sec, Elapsed time:      0.31 sec

 Diagonal F12 approximation with fixed coefficients:  TSING= 0.500,  TTRIP= 0.250 (scaled by -1/beta)

 DF-MP2-F12 energy corrections:
 ==============================
 Approx.                                    Singlet             Triplet             Total
 DF-MP2-F12/3*C(DX,FIX)                -0.029501998597     -0.004869816643     -0.034371815240
 DF-MP2-F12/3*C(FIX)                   -0.024422845838     -0.003814800382     -0.028237646220
 DF-MP2-F12/3C(FIX)                    -0.024553344636     -0.003788289926     -0.028341634562

 DF-MP2-F12 correlation energies:
 ================================
 Approx.                                    Singlet             Triplet             Ecorr            Total Energy
 DF-MP2                                -0.171712308530     -0.098231896840     -0.269944205370    -76.330158592131
 DF-MP2-F12/3*C(DX,FIX)                -0.201214307127     -0.103101713483     -0.304316020610    -76.364530407371
 DF-MP2-F12/3*C(FIX)                   -0.196135154368     -0.102046697222     -0.298181851590    -76.358396238351
 DF-MP2-F12/3C(FIX)                    -0.196265653166     -0.102020186766     -0.298285839932    -76.358500226693

 SCS-DF-MP2 energies (F_SING= 1.20000  F_TRIP= 0.62222  F_PARALLEL= 0.33333):
 ============================================================================
 SCS-DF-MP2                            -0.267176839380    -76.327391226142
 SCS-DF-MP2-F12/3*C(DX,FIX)            -0.305609345831    -76.365823732592
 SCS-DF-MP2-F12/3*C(FIX)               -0.298857907957    -76.359072294719
 SCS-DF-MP2-F12/3C(FIX)                -0.298998011120    -76.359212397881
 Symmetry transformation completed.

 Number of N-1 electron functions:               4
 Number of N-2 electron functions:              10
 Number of singly external CSFs:               900
 Number of doubly external CSFs:            405450
 Total number of CSFs:                      406351

 Pair and operator lists are different

 Length of J-op  integral file:              81.60 MB
 Length of K-op  integral file:             128.10 MB
 Length of 3-ext integral record:             0.00 MB

 Memory could be reduced to 75.63 Mwords without degradation in triples

 Integral transformation finished. Total CPU:  12.45 sec, npass=  1  Memory used:  32.52 MW

 Reference energy:                    -76.06021439

 Adding F12 terms to K(Cij), methodcc=6,  factor= 1.0

 ITER.      SQ.NORM     CORR.ENERGY   TOTAL ENERGY   ENERGY CHANGE        DEN1      VAR(S)    VAR(P)  DIIS     TIME  TIME/IT
   1      1.06221488    -0.26957116   -76.32978554     0.00038056     0.00630416  0.78D-03  0.10D-02  1  1    33.94     3.97
   2      1.06562364    -0.26924607   -76.32946046     0.00032508    -0.00461931  0.13D-04  0.11D-03  2  2    37.89     4.01
   3      1.06685264    -0.26936689   -76.32958127    -0.00012081    -0.00082251  0.92D-05  0.59D-05  3  3    41.89     4.02
   4      1.06733955    -0.26940370   -76.32961809    -0.00003682    -0.00027485  0.41D-06  0.65D-06  4  4    45.83     4.04
   5      1.06743142    -0.26940080   -76.32961518     0.00000291    -0.00002829  0.16D-06  0.45D-07  5  5    49.74     4.04
   6      1.06746256    -0.26939871   -76.32961309     0.00000209    -0.00000436  0.16D-07  0.36D-08  6  6    53.68     4.05
   7      1.06747020    -0.26939838   -76.32961276     0.00000033    -0.00000144  0.14D-08  0.71D-09  6  1    57.52     4.06
   8      1.06747145    -0.26939837   -76.32961276     0.00000001     0.00000018  0.31D-09  0.93D-10  6  3    61.41     4.06
   9      1.06747247    -0.26939837   -76.32961276    -0.00000000    -0.00000025  0.19D-10  0.82D-11  6  2    65.30     4.05
  10      1.06747262    -0.26939836   -76.32961275     0.00000001    -0.00000000  0.28D-11  0.12D-11  6  4    69.22     4.05
  11      1.06747261    -0.26939836   -76.32961275     0.00000000     0.00000002  0.64D-12  0.19D-12  6  5    73.08     4.06
  12      1.06747260    -0.26939836   -76.32961275    -0.00000000     0.00000001  0.13D-12  0.35D-13  6  3    77.03     4.06
  13      1.06747258    -0.26939836   -76.32961275    -0.00000000     0.00000001  0.14D-13  0.42D-14  6  6    80.89     4.06
  14      1.06747258    -0.26939836   -76.32961275    -0.00000000     0.00000000  0.17D-14  0.70D-15  6  1    84.75     4.05
  15      1.06747258    -0.26939836   -76.32961275    -0.00000000    -0.00000000  0.21D-15  0.12D-15  6  2    88.69     4.06
  16      1.06747258    -0.26939836   -76.32961275     0.00000000    -0.00000000  0.31D-16  0.18D-16  6  4    92.62     4.06

 Norm of t1 vector:      0.03692045      S-energy:     0.00000000      T1 diagnostic:  0.00923011
                                                                       D1 diagnostic:  0.01835967

 Adding energy correction from Wij-K(Fij), methodcc=6  factor= 1.0

  CCSD correlation energy              -0.269398363365
  MP2-F12 correction (uncoupled)       -0.028077952400
  C*T doubles correction               -0.000412014775
  f12b correction                       0.004755810758


 Total CPU time for triples:     34.38 sec

  Ecorr(MP2)                           -0.269951714484
  Ecorr(MP2-F12)                       -0.298293349047
  Scale factor for triples energy       1.104987792414


 RESULTS
 =======

  Reference energy                    -76.058739030512
  F12 singles correction               -0.001475356249

 F12 singles corrections added to reference energy

  New reference energy                -76.060214386761

  F12a singlet correction              -0.024631290627
  F12a triplet correction              -0.003858676547
  F12a total correction                -0.028489967174

 F12a corrections for ansatz F12/3C(FIX) added to CCSD energy

  CCSD-F12a singlet pair energy        -0.207288581400
  CCSD-F12a triplet pair energy        -0.090599749170
  CCSD-F12a correlation energy         -0.297888330540

  Triples (T) contribution (scaled)    -0.009527442882
  Total correlation energy             -0.307415773422

  CCSD-F12a total energy              -76.358102717301
  CCSD[T]-F12a energy                 -76.367976369505
  CCSD-T-F12a energy                  -76.367487884398
 !CCSD(T)-F12a total energy           -76.367630160183

 F12b corrections for ansatz F12/3C(FIX) added to CCSD(T)-F12a energy

  CCSD-F12b singlet pair energy        -0.202891263438
  CCSD-F12b triplet pair energy        -0.090241256373
  CCSD-F12b correlation energy         -0.293132519781

  Triples (T) contribution (scaled)    -0.009527442882
  Total correlation energy             -0.302659962663

  CCSD-F12b total energy              -76.353346906543
  CCSD[T]-F12b energy                 -76.363220558746
  CCSD-T-F12b energy                  -76.362732073640
 !CCSD(T)-F12b total energy           -76.362874349425

 Timing summary (sec):

 STEP                 CPU(USER)    SYS     CPU(TOT)    WALL
 Transformation         12.51      0.39     12.90     12.92
 CCSD iterations        62.60      2.13     64.73     65.01
 Triples                34.38      0.15     34.53     34.57
 MP2-F12                17.51      0.38     17.89     17.91
 F12b energy             3.30      0.08      3.38      3.38

 Program statistics:

 Available memory in ccsd:              1999999871
 Min. memory needed in ccsd:               1862772
 Max. memory used in ccsd:                 2158322
 Max. memory used in cckext:               1445635 (17 integral passes)



 **********************************************************************************************************************************
 DATASETS  * FILE   NREC   LENGTH (MB)   RECORD NAMES
              1      19      222.31       500      610      700      900      950      970     1000      129      960     1100   
                                          VAR    BASINP    GEOM    SYMINP    ZMAT    AOBASIS   BASIS     P2S    ABASIS      S 
                                         1400     1410     1200     1210     1080     1600     1650     1700     1380   
                                           T        V       H0       H01     AOSYM     SMH    MOLCAS    OPER     JKOP   

              2       8        9.09       700     1000      520     2100     7360     7350      200     2101   
                                         GEOM     BASIS   MCVARS     RHF    F12ABS    EF12    OPTIONS    RHF  

 PROGRAMS   *        TOTAL   CCSD(T)    HF-SCF       INT   CCSD(T)    HF-SCF       INT
 CPU TIMES  *       704.59    130.51     13.31      0.22    532.18     14.24     13.89
 REAL TIME  *       725.56 SEC
 DISK USED  *       570.60 MB (local),        7.92 GB (total)
 SF USED    *         1.36 GB
 GA USED    *         4.87 MB       (max)       0.00 MB       (current)
 **********************************************************************************************************************************

 Running procedure: SET_MONOMER2

 Dummy atoms: O6  H11  H12


 Recomputing one-electron integrals since nuclear charges changed


 PROGRAM * SEWARD (Integral evaluation for generally contracted gaussian basis sets)     Author: Roland Lindh, 1990

 Geometry written to block  1 of record 700


 Point group  C1  



 ATOMIC COORDINATES

 NR  ATOM    CHARGE       X              Y              Z

   1  O6      0.00   -1.010247586    7.876000542    2.916036383
   2  H11     0.00   -0.819574220    6.648056506    4.275505357
   3  H12     0.00   -0.644963526    6.932271315    1.370429386
   4  C1      6.00   -6.193010455    2.801518980    2.403542658
   5  H41     1.00   -4.656285171    1.699997622    3.119937832
   6  H42     1.00   -5.973046335    4.726205038    2.982932688
   7  H43     1.00   -7.940251230    2.077186956    3.118237078
   8  H44     1.00   -6.176569838    2.685300823    0.384937212

 Bond lengths in Bohr (Angstrom)

 1-2  1.841835709  1-3  1.847419359  4-5  2.021904040  4-6  2.022002335  4-7  2.021953343
     ( 0.974657483)     ( 0.977612224)     ( 1.069945541)     ( 1.069997556)     ( 1.069971630)

 4-8  2.022015060
     ( 1.070004290)

 Bond angles

  2-1-3  104.86126985   5-4-6  109.53398059   5-4-7  109.65604535   5-4-8  108.43490854

  6-4-7  109.49436728   6-4-8  109.86987750   7-4-8  109.83468330

 NUCLEAR CHARGE:                   10
 NUMBER OF PRIMITIVE AOS:         296
 NUMBER OF SYMMETRY AOS:          266
 NUMBER OF CONTRACTIONS:          230   (  230A   )
 NUMBER OF CORE ORBITALS:           1   (    1A   )
 NUMBER OF VALENCE ORBITALS:        8   (    8A   )

 MOLECULE CHANGED: INITIALIZING OCCUPATION AND DUMP RECORDS


 NUCLEAR REPULSION ENERGY   13.68681606

 Basis set:  JKFIT                   
 Basis size:   740
 Attributes:
 Sphericals:   T
 Basis set:  MP2FIT                  
 Basis size:   816
 Attributes:
 Sphericals:   T
 Basis set:  RI                      
 Basis size:   556
 Attributes:
 Sphericals:   T
 Basis set:  TDDFT                   
 Basis size:   816
 Attributes:
 Sphericals:   T

 Eigenvalues of metric

         1 0.611E-04 0.699E-04 0.938E-04 0.103E-03 0.334E-03 0.392E-03 0.621E-03 0.744E-03


 Contracted 2-electron integrals neglected if value below      1.0D-14

 OPERATOR DM      FOR CENTER  0  COORDINATES:    0.000000    0.000000    0.000000


 **********************************************************************************************************************************
 DATASETS  * FILE   NREC   LENGTH (MB)   RECORD NAMES
              1      18       32.04       500      610      700      900      950      970     1000      129      960     1100   
                                          VAR    BASINP    GEOM    SYMINP    ZMAT    AOBASIS   BASIS     P2S    ABASIS      S 
                                         1400     1410     1200     1210     1080     1600     1650     1700   
                                           T        V       H0       H01     AOSYM     SMH    MOLCAS    OPER   

              2       8        9.09       700     1000      520     2100     7360     7350      200     2101   
                                         GEOM     BASIS   MCVARS     RHF    F12ABS    EF12    OPTIONS    RHF  

 PROGRAMS   *        TOTAL       INT   CCSD(T)    HF-SCF       INT   CCSD(T)    HF-SCF       INT
 CPU TIMES  *       704.82      0.22    130.51     13.31      0.22    532.18     14.24     13.89
 REAL TIME  *       726.26 SEC
 DISK USED  *       570.60 MB (local),        7.92 GB (total)
 SF USED    *         1.36 GB
 GA USED    *         4.87 MB       (max)       0.00 MB       (current)
 **********************************************************************************************************************************


 PROGRAM * RHF-SCF (CLOSED SHELL)       Authors: W. Meyer, H.-J. Werner


 NUMBER OF ELECTRONS:       5+    5-    SPACE SYMMETRY=1    SPIN SYMMETRY: Singlet 
 CONVERGENCE THRESHOLDS:    1.00E-08 (Density)    1.00E-11 (Energy)
 MAX. NUMBER OF ITERATIONS:       60
 INTERPOLATION TYPE:            DIIS
 INTERPOLATION STEPS:              2 (START)      1 (STEP)
 LEVEL SHIFTS:                  0.00 (CLOSED)  0.00 (OPEN) 



 Orbital guess generated from atomic densities. Full valence occupancy:    9

 Molecular orbital dump at record        2102.2

 Initial occupancy:   5

 ITERATION    DDIFF          GRAD             ENERGY        2-EL.EN.            DIPOLE MOMENTS         DIIS   ORB.
    1      0.000D+00      0.000D+00       -40.19358807     53.494043    0.00409   -0.00277   -0.00132    0    start
    2      0.000D+00      0.353D-02       -40.21070565     52.213678    0.00128   -0.00089   -0.00040    1    diag
    3      0.324D-02      0.137D-02       -40.21295415     52.664851    0.00181   -0.00124   -0.00057    2    diag
    4      0.909D-03      0.342D-03       -40.21326963     52.609824    0.00161   -0.00111   -0.00050    3    diag
    5      0.300D-03      0.444D-04       -40.21327502     52.612162    0.00158   -0.00109   -0.00049    4    diag
    6      0.787D-04      0.345D-05       -40.21327506     52.612259    0.00158   -0.00109   -0.00049    5    diag
    7      0.665D-05      0.264D-06       -40.21327506     52.612225    0.00158   -0.00109   -0.00049    6    diag
    8      0.978D-06      0.222D-07       -40.21327506     52.612226    0.00158   -0.00109   -0.00049    7    diag
    9      0.190D-06      0.288D-08       -40.21327506     52.612226    0.00158   -0.00109   -0.00049    8    diag
   10      0.114D-07      0.802D-09       -40.21327506     52.612226    0.00158   -0.00109   -0.00049    9    orth
   11      0.127D-08      0.106D-09       -40.21327506     52.612226    0.00158   -0.00109   -0.00049    0    orth

 Final occupancy:   5

 !RHF STATE  1.1 Energy               -40.213275060775
 Nuclear energy                        13.68681606
 One-electron energy                  -80.20620399
 Two-electron energy                   26.30611288
 Virial quotient                       -0.99870140
 !RHF STATE  1.1 Dipole moment          0.00157923    -0.00109119    -0.00049366
 Dipole moment /Debye                   0.00401373    -0.00277335    -0.00125467

 Orbital energies:

         1.1          2.1          3.1          4.1          5.1          6.1          7.1
    -11.197211    -0.950742    -0.551697    -0.549759    -0.547581     0.027674     0.041088


 HOMO      5.1    -0.547581 =     -14.9004eV
 LUMO      6.1     0.027674 =       0.7531eV
 LUMO-HOMO         0.575255 =      15.6535eV


 **********************************************************************************************************************************
 DATASETS  * FILE   NREC   LENGTH (MB)   RECORD NAMES
              1      18       32.04       500      610      700      900      950      970     1000      129      960     1100   
                                          VAR    BASINP    GEOM    SYMINP    ZMAT    AOBASIS   BASIS     P2S    ABASIS      S 
                                         1400     1410     1200     1210     1080     1600     1650     1700   
                                           T        V       H0       H01     AOSYM     SMH    MOLCAS    OPER   

              2       9       13.71       700     1000      520     2100     7360     7350      200     2101     2102   
                                         GEOM     BASIS   MCVARS     RHF    F12ABS    EF12    OPTIONS    RHF      RHF  

 PROGRAMS   *        TOTAL    HF-SCF       INT   CCSD(T)    HF-SCF       INT   CCSD(T)    HF-SCF       INT
 CPU TIMES  *       717.08     12.26      0.22    130.51     13.31      0.22    532.18     14.24     13.89
 REAL TIME  *       739.55 SEC
 DISK USED  *       570.60 MB (local),        7.92 GB (total)
 SF USED    *         1.36 GB
 GA USED    *         4.87 MB       (max)       0.00 MB       (current)
 **********************************************************************************************************************************

 Basis set:  JKFIT                   
 Basis size:   740
 Attributes:
 Sphericals:   T
 Basis set:  MP2FIT                  
 Basis size:   816
 Attributes:
 Sphericals:   T
 Basis set:  RI                      
 Basis size:   556
 Attributes:
 Sphericals:   T
 Basis set:  TDDFT                   
 Basis size:   816
 Attributes:
 Sphericals:   T

 PROGRAM * CCSD (Closed-shell coupled cluster)     Authors: C. Hampel, H.-J. Werner, 1991, M. Deegan, P.J. Knowles, 1992

                                  CCSD-F12 implementation by  H.-J. Werner, 2007

                   Density fitting integral evaluation by F.R. Manby, 2003,2007, G. Knizia, 2010



 Convergence thresholds:  THRVAR = 1.00D-08  THRDEN = 1.00D-10

 CCSD(T)     terms to be evaluated (factor= 1.000)


 Number of core orbitals:           1 (   1 )
 Number of closed-shell orbitals:   4 (   4 )
 Number of external orbitals:     225 ( 225 )

 Molecular orbitals read from record     2102.2  Type=RHF/CANONICAL (state 1.1)

 MP2-F12 correlation treatment (H.-J. Werner, 2006)
 ==================================================

 Using MP2-F12 with ansatz 3C(FIX)

 Using projected zeroth-order Hamiltonian (+Z)

 FOCKRIB=T FOCKRIC=T FOCKRIP=T CABSP=T CABSA=T CABSK=T CABSF=T GBC=F EBC=F DMAT=T NOFIK=T NOPAO=1 SOLVE=-1  USEPAO=0
 EXCH_A= T EXCH_B= F EXCH_C= F EXCH_P= F

 Geminal basis:    OPTFULL  GEM_TYPE=SLATER  BETA=1.0  NGEM=6

 Optimizing Gaussian exponents for each gem_beta

 Geminal optimization for beta= 1.0000
 Weight function:   m=0, omega= 1.4646

 Augmented Hessian optimization of geminal fit. Trust ratio= 0.40000
 Convergence reached after   2 iterations. Final gradient= 7.85D-16, Step= 4.26D-06, Delta= 1.28D-09

 Alpha:                 0.19532     0.81920     2.85917     9.50073    35.69989   197.79328
 Coeff:                 0.27070     0.30552     0.18297     0.10986     0.06810     0.04224


 All pairs explicitly correlated. Number of r12-pairs:           10

 Excluding core orbitals from MO domains

 AO(A)-basis ORBITAL           loaded. Number of functions:     230
 RI(R)-basis RI                loaded. Number of functions:     556
 DF-basis JKFIT                loaded. Number of functions:     740

 Screening thresholds:   THRAO=  1.00D-10  THRMO=  1.00D-09  THRPROD=  1.00D-09
                         THRSW=  1.00D-05  THROV=  1.00D-12  THRAOF12= 1.00D-10

 CPU time for Fock operators                      3.06 sec

 Construction of ABS:
 Smallest eigenvalue of S          1.15E-04  (threshold= 1.00E-08)
 Ratio eigmin/eigmax               1.63E-05  (threshold= 1.00E-09)
 Smallest eigenvalue of S kept     1.15E-04  (threshold= 1.15E-04, 0 functions deleted, 556 kept)

 Construction of CABS:
 Smallest eigenvalue of S          6.72E-07  (threshold= 1.00E-08)
 Ratio eigmin/eigmax               6.72E-07  (threshold= 1.00E-09)
 Smallest eigenvalue of S kept     6.72E-07  (threshold= 6.72E-07, 0 functions deleted, 556 kept)

 CPU time for CABS singles                        0.69 sec

 CABS-singles contribution of  -0.00091002 patched into reference energy.
 New reference energy         -40.21418509

 AO(A)-basis ORBITAL           loaded. Number of functions:     230
 RI(R)-basis RI                loaded. Number of functions:     556
 DF-basis MP2FIT               loaded. Number of functions:     816

 Screening thresholds:   THRAO=  1.00D-10  THRMO=  1.00D-09  THRPROD=  1.00D-09
                         THRSW=  1.00D-05  THROV=  1.00D-12  THRAOF12= 1.00D-10

 CPU time for 3-index integral evaluation         5.22 sec
 CPU time for first  half transformation          0.69 sec ( 2047.7 MFLOP/sec)
 CPU time for second half transformation          0.01 sec ( 1313.8 MFLOP/sec)
 CPU time for sorting                             0.03 sec
 CPU time for fitting                             0.41 sec (  812.0 MFLOP/sec)
 CPU time for tilde quantities                    0.43 sec ( 3905.3 MFLOP/sec)
 CPU time for assembly                            1.33 sec ( 4324.8 MFLOP/sec)
 CPU time for tranop_f12                          1.21 sec ( 3562.9 MFLOP/sec)
 CPU time for f12 integrals (total)              11.70 sec, Elapsed time:     12.04 sec
 F12-matrices built in  4 passes.
 F12-matrices built in  4 passes.
 F12-matrices built in  4 passes.
 F12-matrices built in  4 passes.
 FC-matrix built in  4 passes.
 CPU time for f12 matrices (total)                0.31 sec, Elapsed time:      0.31 sec

 Diagonal F12 approximation with fixed coefficients:  TSING= 0.500,  TTRIP= 0.250 (scaled by -1/beta)

 DF-MP2-F12 energy corrections:
 ==============================
 Approx.                                    Singlet             Triplet             Total
 DF-MP2-F12/3*C(DX,FIX)                -0.016703169555     -0.001927195730     -0.018630365285
 DF-MP2-F12/3*C(FIX)                   -0.015464342280     -0.001785222093     -0.017249564373
 DF-MP2-F12/3C(FIX)                    -0.015449993229     -0.001776389133     -0.017226382362

 DF-MP2-F12 correlation energies:
 ================================
 Approx.                                    Singlet             Triplet             Ecorr            Total Energy
 DF-MP2                                -0.145443807946     -0.055066252823     -0.200510060769    -40.414695146223
 DF-MP2-F12/3*C(DX,FIX)                -0.162146977501     -0.056993448554     -0.219140426054    -40.433325511508
 DF-MP2-F12/3*C(FIX)                   -0.160908150226     -0.056851474916     -0.217759625142    -40.431944710595
 DF-MP2-F12/3C(FIX)                    -0.160893801175     -0.056842641956     -0.217736443131    -40.431921528585

 SCS-DF-MP2 energies (F_SING= 1.20000  F_TRIP= 0.62222  F_PARALLEL= 0.33333):
 ============================================================================
 SCS-DF-MP2                            -0.208796015736    -40.422981101190
 SCS-DF-MP2-F12/3*C(DX,FIX)            -0.230038963212    -40.444224048665
 SCS-DF-MP2-F12/3*C(FIX)               -0.228464031330    -40.442649116783
 SCS-DF-MP2-F12/3C(FIX)                -0.228441316405    -40.442626401858
 Symmetry transformation completed.

 Number of N-1 electron functions:               4
 Number of N-2 electron functions:              10
 Number of singly external CSFs:               900
 Number of doubly external CSFs:            405450
 Total number of CSFs:                      406351

 Pair and operator lists are different

 Length of J-op  integral file:              81.60 MB
 Length of K-op  integral file:             128.10 MB
 Length of 3-ext integral record:             0.00 MB

 Memory could be reduced to 75.63 Mwords without degradation in triples

 Integral transformation finished. Total CPU:  12.31 sec, npass=  1  Memory used:  32.52 MW

 Reference energy:                    -40.21418509

 Adding F12 terms to K(Cij), methodcc=6,  factor= 1.0

 ITER.      SQ.NORM     CORR.ENERGY   TOTAL ENERGY   ENERGY CHANGE        DEN1      VAR(S)    VAR(P)  DIIS     TIME  TIME/IT
   1      1.06946184    -0.21557903   -40.42976411    -0.01505905    -0.00938244  0.67D-03  0.94D-03  1  1    33.66     3.95
   2      1.07448894    -0.21614692   -40.43033201    -0.00056790    -0.00524346  0.16D-04  0.83D-04  2  2    37.64     4.03
   3      1.07589670    -0.21630188   -40.43048696    -0.00015496    -0.00097947  0.20D-05  0.51D-05  3  3    41.59     4.06
   4      1.07623485    -0.21631421   -40.43049930    -0.00001233    -0.00017406  0.10D-06  0.25D-06  4  4    45.56     4.06
   5      1.07627958    -0.21631295   -40.43049803     0.00000127    -0.00000982  0.77D-08  0.17D-07  5  5    49.47     4.07
   6      1.07628544    -0.21631196   -40.43049705     0.00000098    -0.00000185  0.58D-09  0.12D-08  6  6    53.39     4.07
   7      1.07628659    -0.21631164   -40.43049673     0.00000032    -0.00000073  0.40D-10  0.98D-10  6  1    57.34     4.07
   8      1.07628661    -0.21631175   -40.43049684    -0.00000011     0.00000012  0.39D-11  0.59D-11  6  3    61.27     4.07
   9      1.07628672    -0.21631174   -40.43049682     0.00000001    -0.00000007  0.33D-12  0.49D-12  6  2    65.08     4.07
  10      1.07628672    -0.21631173   -40.43049682     0.00000000     0.00000001  0.36D-13  0.49D-13  6  4    68.90     4.07
  11      1.07628672    -0.21631173   -40.43049682     0.00000000     0.00000000  0.27D-14  0.50D-14  6  5    72.80     4.07
  12      1.07628672    -0.21631173   -40.43049682     0.00000000     0.00000000  0.54D-16  0.59D-15  6  6    76.63     4.07
  13      1.07628672    -0.21631173   -40.43049682    -0.00000000     0.00000000  0.77D-17  0.64D-16  6  1    80.62     4.08
  14      1.07628672    -0.21631173   -40.43049682    -0.00000000     0.00000000  0.15D-17  0.78D-17  6  3    84.59     4.08

 Norm of t1 vector:      0.03361783      S-energy:     0.00000000      T1 diagnostic:  0.00840446
                                                                       D1 diagnostic:  0.01339665

 Adding energy correction from Wij-K(Fij), methodcc=6  factor= 1.0

  CCSD correlation energy              -0.216311730664
  MP2-F12 correction (uncoupled)       -0.017238682186
  C*T doubles correction               -0.000193140632
  f12b correction                       0.003654323795

 Total CPU time for triples:     34.53 sec

  Ecorr(MP2)                           -0.200519972073
  Ecorr(MP2-F12)                       -0.217746354435
  Scale factor for triples energy       1.085908561546


 RESULTS
 =======

  Reference energy                    -40.213275060775
  F12 singles correction               -0.000910024679

 F12 singles corrections added to reference energy

  New reference energy                -40.214185085454

  F12a singlet correction              -0.015629647454
  F12a triplet correction              -0.001802175364
  F12a total correction                -0.017431822818

 F12a corrections for ansatz F12/3C(FIX) added to CCSD energy

  CCSD-F12a singlet pair energy        -0.178526702331
  CCSD-F12a triplet pair energy        -0.055216851178
  CCSD-F12a correlation energy         -0.233743553482

  Triples (T) contribution (scaled)    -0.006801482225
  Total correlation energy             -0.240545035707

  CCSD-F12a total energy              -40.447928638935
  CCSD[T]-F12a energy                 -40.454969283755
  CCSD-T-F12a energy                  -40.454655358943
 !CCSD(T)-F12a total energy           -40.454730121161

 F12b corrections for ansatz F12/3C(FIX) added to CCSD(T)-F12a energy

  CCSD-F12b singlet pair energy        -0.175043258781
  CCSD-F12b triplet pair energy        -0.055045970932
  CCSD-F12b correlation energy         -0.230089229686

  Triples (T) contribution (scaled)    -0.006801482225
  Total correlation energy             -0.236890711912

  CCSD-F12b total energy              -40.444274315140
  CCSD[T]-F12b energy                 -40.451314959959
  CCSD-T-F12b energy                  -40.451001035147
 !CCSD(T)-F12b total energy           -40.451075797365

 Timing summary (sec):

 STEP                 CPU(USER)    SYS     CPU(TOT)    WALL
 Transformation         12.37      0.39     12.76     12.78
 CCSD iterations        54.86      2.03     56.89     57.15
 Triples                34.53      0.12     34.65     34.69
 MP2-F12                17.38      0.43     17.81     17.83
 F12b energy             3.29      0.15      3.44      3.45

 Program statistics:

 Available memory in ccsd:              1999999866
 Min. memory needed in ccsd:               1862772
 Max. memory used in ccsd:                 2158322
 Max. memory used in cckext:               1445635 (15 integral passes)



 **********************************************************************************************************************************
 DATASETS  * FILE   NREC   LENGTH (MB)   RECORD NAMES
              1      19      222.31       500      610      700      900      950      970     1000      129      960     1100   
                                          VAR    BASINP    GEOM    SYMINP    ZMAT    AOBASIS   BASIS     P2S    ABASIS      S 
                                         1400     1410     1200     1210     1080     1600     1650     1700     1380   
                                           T        V       H0       H01     AOSYM     SMH    MOLCAS    OPER     JKOP   

              2       9       13.71       700     1000      520     2100     7360     7350      200     2101     2102   
                                         GEOM     BASIS   MCVARS     RHF    F12ABS    EF12    OPTIONS    RHF      RHF  

 PROGRAMS   *        TOTAL   CCSD(T)    HF-SCF       INT   CCSD(T)    HF-SCF       INT   CCSD(T)    HF-SCF       INT
 CPU TIMES  *       839.74    122.64     12.26      0.22    130.51     13.31      0.22    532.18     14.24     13.89
 REAL TIME  *       866.18 SEC
 DISK USED  *       570.60 MB (local),        7.92 GB (total)
 SF USED    *         1.36 GB
 GA USED    *         4.87 MB       (max)       0.00 MB       (current)
 **********************************************************************************************************************************
 Molecular orbitals read from record     2102.2  Type=RHF/CANONICAL (state 1.1)
 Occupation numbers read from record     2102.2  Type=RHF/RHF (state 1.1)
 Orbital energies read from record       2102.2  Type=RHF/CANONICAL (state 1.1)
 Redundancy group numbers read from rec  2102.2  Type=RHF/RHF (state 1.1)

 CCSD(T)-F12/aug-cc-pVTZ energy=    -40.451075797365

     CCSD(T)-F12          HF-SCF     CCSD(T)-F12          HF-SCF     CCSD(T)-F12          HF-SCF
    -40.45107580    -40.21327506    -76.36287435    -76.05873903   -116.81469805   -116.27191636
 **********************************************************************************************************************************
 Molpro calculation terminated
