
 Primary working directories    : /scratch/klimes/383154/molpro.541GXaPXDy
 Secondary working directories  : /scratch/klimes/383154/molpro.541GXaPXDy
 Wavefunction directory         : /scratch/klimes/383154/
 Main file repository           : /scratch/klimes/383154/molpro.541GXaPXDy/

 id        : karlovklimes

 Nodes                      nprocs
 nc-22.cc.karlov.mff.cuni.cz    4

 Using customized tuning parameters: mindgm=1; mindgv=20; mindgc=4; mindgr=1; noblas=0; minvec=7
 default implementation of scratch files=sf  


 Variables initialized (930), CPU time= 0.01 sec
                                                                                 !gdirect
 memory,2000,m
 gthresh,orbital=1d-10,energy=1d-10,grid=1d-8
 
 symmetry,nosym
 angstrom
 geometry={
 O7        -2.308700000000     -1.513700000000      3.385000000000
 H13        -2.780100000000     -1.810400000000      2.580800000000
 H14        -2.957300000000     -0.995700000000      3.906300000000
 C1        -3.277200000000      1.482500000000      1.271900000000
 H41        -2.464000000000      0.899600000000      1.651000000000
 H42        -3.160800000000      2.501000000000      1.578500000000
 H43        -4.201800000000      1.099200000000      1.650100000000
 H44        -3.268500000000      1.421000000000      0.203700000000
 }
 
 nkerna=1
 nkernb=1
 
 gf=0
 sing=1
 thrdum=1d-4
 gridthr=1d-8
 
 basis={
 set,orbital
 default,avtz
 set,jkfit
 default,avqz/jkfit
 set,mp2fit
 default,avqz/mp2fit
 set,ri
 default,avqz/optri
 set,tddft
 default,avqz/mp2fit
 }
 
 proc set_monomer1
 dummy,4,5,6,7,8
 endproc
 
 proc set_monomer2
 dummy,1,2,3
 endproc
 
                                                                                 !12 energy
 {hf,accu=1.d-16}
 {ccsd(t)-f12,df_basis=mp2fit,df_basis_exch=jkfit,ri_basis=ri,scale_trip=1,THRAOF12=1d-10}
 
 set_monomer1
 {hf,accu=1.d-16}
 {ccsd(t)-f12,df_basis=mp2fit,df_basis_exch=jkfit,ri_basis=ri,scale_trip=1,THRAOF12=1d-10}
 
 set_monomer2
 {hf,accu=1.d-16}
 {ccsd(t)-f12,df_basis=mp2fit,df_basis_exch=jkfit,ri_basis=ri,scale_trip=1,THRAOF12=1d-10}
 
 Commands  initialized (760), CPU time= 0.02 sec, 617 directives.
 Default parameters read. Elapsed time= 0.20 sec

 Checking input...
 Passed
1


                                         ***  PROGRAM SYSTEM MOLPRO  ***
                                       Copyright, TTI GmbH Stuttgart, 2015
                                    Version 2019.1 linked Jan 14 2019 13:09:19


 **********************************************************************************************************************************
 LABEL *                                                                                 
  64 bit mpp version                                                                     DATE: 11-Mar-20          TIME: 16:09:59  
 **********************************************************************************************************************************

 SHA1:             d688ac825633d238f2093ded1675ba87ccd55965
 **********************************************************************************************************************************

 THRESHOLDS:

 ZERO    =  1.00D-12  ONEINT  =  1.00D-12  TWOINT  =  1.00D-11  PREFAC  =  1.00D-14  XXXXXX  =  1.00D-09  EORDER  =  1.00D-04
 ENERGY  =  1.00D-10  ETEST   =  0.00D+00  EDENS   =  0.00D+00  THRDEDEF=  1.00D-06  GRADIENT=  1.00D-02  STEP    =  1.00D-03
 ORBITAL =  1.00D-10  CIVEC   =  1.00D-05  COEFF   =  1.00D-04  PRINTCI =  5.00D-02  PUNCHCI =  9.90D+01  OPTGRAD =  3.00D-04
 OPTENERG=  1.00D-06  OPTSTEP =  3.00D-04  THRGRAD =  1.00D-10  COMPRESS=  1.00D-11  VARMIN  =  1.00D-07  VARMAX  =  1.00D-03
 THRDOUB =  0.00D+00  THRDIV  =  1.00D-05  THRRED  =  1.00D-07  THRPSP  =  1.00D+00  THRDC   =  1.00D-10  THRCS   =  1.00D-10
 THRNRM  =  1.00D-08  THREQ   =  0.00D+00  THRDE   =  1.00D+00  THRREF  =  1.00D-05  SPARFAC =  1.00D+00  THRDLP  =  1.00D-07
 THRDIA  =  1.00D-10  THRDLS  =  1.00D-07  THRGPS  =  0.00D+00  THRKEX  =  0.00D+00  THRDIS  =  2.00D-01  THRVAR  =  1.00D-10
 THRLOC  =  1.00D-06  THRGAP  =  1.00D-06  THRLOCT = -1.00D+00  THRGAPT = -1.00D+00  THRORB  =  1.00D-06  THRMLTP =  0.00D+00
 THRCPQCI=  1.00D-10  KEXTA   =  0.00D+00  THRCOARS=  0.00D+00  SYMTOL  =  1.00D-06  GRADTOL =  1.00D-06  THROVL  =  1.00D-08
 THRORTH =  1.00D-08  GRID    =  1.00D-08  GRIDMAX =  1.00D-03  DTMAX   =  0.00D+00  THROCCDE=  1.00D-01  THROCCDE=  1.00D-01
 THRPRINT=  2.50D-01


 Variable memory set to 2000000000 words,  buffer space 

 ZSYMEL=NOSYM
 ZUNIT=ANG


Geometry recognized as XYZ

 SETTING NKERNA         =         1.00000000                                  
 SETTING NKERNB         =         1.00000000                                  
 SETTING GF             =     0.00000000D+00                                  
 SETTING SING           =         1.00000000                                  
 SETTING THRDUM         =     1.00000000D-04                                  
 SETTING GRIDTHR        =     1.00000000D-08                                  
 SETTING BASIS          =    AVTZ


 Recomputing integrals since basis changed


 Using spherical harmonics

 Library entry O      S aug-cc-pVTZ          selected for orbital group  1
 Library entry O      P aug-cc-pVTZ          selected for orbital group  1
 Library entry O      D aug-cc-pVTZ          selected for orbital group  1
 Library entry O      F aug-cc-pVTZ          selected for orbital group  1
 Library entry H      S aug-cc-pVTZ          selected for orbital group  2
 Library entry H      P aug-cc-pVTZ          selected for orbital group  2
 Library entry H      D aug-cc-pVTZ          selected for orbital group  2
 Library entry C      S aug-cc-pVTZ          selected for orbital group  3
 Library entry C      P aug-cc-pVTZ          selected for orbital group  3
 Library entry C      D aug-cc-pVTZ          selected for orbital group  3
 Library entry C      F aug-cc-pVTZ          selected for orbital group  3


 PROGRAM * SEWARD (Integral evaluation for generally contracted gaussian basis sets)     Author: Roland Lindh, 1990

 Geometry written to block  1 of record 700


 Point group  C1  



 ATOMIC COORDINATES

 NR  ATOM    CHARGE       X              Y              Z

   1  O7      8.00   -4.362810704   -2.860478435    6.396722932
   2  H13     1.00   -5.253627599   -3.421160176    4.877005182
   3  H14     1.00   -5.588487068   -1.881600302    7.381837160
   4  C1      6.00   -6.193010455    2.801518980    2.403542658
   5  H41     1.00   -4.656285171    1.699997622    3.119937832
   6  H42     1.00   -5.973046335    4.726205038    2.982932688
   7  H43     1.00   -7.940251230    2.077186956    3.118237078
   8  H44     1.00   -6.176569838    2.685300823    0.384937212

 Bond lengths in Bohr (Angstrom)

 1-2  1.848637551  1-3  1.852278325  4-5  2.021904040  4-6  2.022002335  4-7  2.021953343
     ( 0.978256863)     ( 0.980183478)     ( 1.069945541)     ( 1.069997556)     ( 1.069971630)

 4-8  2.022015060
     ( 1.070004290)

 Bond angles

  2-1-3  106.17843926   5-4-6  109.53398059   5-4-7  109.65604535   5-4-8  108.43490854

  6-4-7  109.49436728   6-4-8  109.86987750   7-4-8  109.83468330

 NUCLEAR CHARGE:                   20
 NUMBER OF PRIMITIVE AOS:         296
 NUMBER OF SYMMETRY AOS:          266
 NUMBER OF CONTRACTIONS:          230   (  230A   )
 NUMBER OF CORE ORBITALS:           2   (    2A   )
 NUMBER OF VALENCE ORBITALS:       14   (   14A   )


 NUCLEAR REPULSION ENERGY   36.78088270


 Basis set:  JKFIT                   
 Basis size:   740
 Attributes:
 Sphericals:   T
 Basis set:  MP2FIT                  
 Basis size:   816
 Attributes:
 Sphericals:   T
 Basis set:  RI                      
 Basis size:   556
 Attributes:
 Sphericals:   T
 Basis set:  TDDFT                   
 Basis size:   816
 Attributes:
 Sphericals:   T

 **********************************************************************************************************************************


 Eigenvalues of metric

         1 0.652E-04 0.852E-04 0.972E-04 0.103E-03 0.336E-03 0.396E-03 0.672E-03 0.733E-03


 Contracted 2-electron integrals neglected if value below      1.0D-14
 AO integral compression algorithm  1   Integral accuracy      1.0D-14

     2269.381 MB (compressed) written to integral file ( 70.8%)

     Node minimum: 531.628 MB, node maximum: 593.232 MB


 NUMBER OF SORTED TWO-ELECTRON INTEGRALS:   88219044.     BUFFER LENGTH:  32768
 NUMBER OF SEGMENTS:   6  SEGMENT LENGTH:   15998348      RECORD LENGTH: 524288

 Memory used in sort:      16.56 MW

 SORT1 READ   400769927. AND WROTE    83073529. INTEGRALS IN    241 RECORDS. CPU TIME:     7.67 SEC, REAL TIME:     8.74 SEC
 SORT2 READ   332153605. AND WROTE   352862895. INTEGRALS IN   8112 RECORDS. CPU TIME:     1.84 SEC, REAL TIME:     2.63 SEC

 Node minimum:    88205762.  Node maximum:    88225686. integrals

 OPERATOR DM      FOR CENTER  0  COORDINATES:    0.000000    0.000000    0.000000


 **********************************************************************************************************************************
 DATASETS  * FILE   NREC   LENGTH (MB)   RECORD NAMES
              1      18       32.04       500      610      700      900      950      970     1000      129      960     1100   
                                          VAR    BASINP    GEOM    SYMINP    ZMAT    AOBASIS   BASIS     P2S    ABASIS      S 
                                         1400     1410     1200     1210     1080     1600     1650     1700   
                                           T        V       H0       H01     AOSYM     SMH    MOLCAS    OPER   

 PROGRAMS   *        TOTAL       INT
 CPU TIMES  *        14.47     14.25
 REAL TIME  *        19.62 SEC
 DISK USED  *        32.49 MB (local),        6.33 GB (total)
 GA USED    *         0.00 MB       (max)       0.00 MB       (current)
 **********************************************************************************************************************************


 PROGRAM * RHF-SCF (CLOSED SHELL)       Authors: W. Meyer, H.-J. Werner


 NUMBER OF ELECTRONS:      10+   10-    SPACE SYMMETRY=1    SPIN SYMMETRY: Singlet 
 CONVERGENCE THRESHOLDS:    1.00E-08 (Density)    1.00E-11 (Energy)
 MAX. NUMBER OF ITERATIONS:       60
 INTERPOLATION TYPE:            DIIS
 INTERPOLATION STEPS:              2 (START)      1 (STEP)
 LEVEL SHIFTS:                  0.00 (CLOSED)  0.00 (OPEN) 



 Orbital guess generated from atomic densities. Full valence occupancy:   16

 Molecular orbital dump at record        2100.2

 Initial occupancy:  10

 ITERATION    DDIFF          GRAD             ENERGY        2-EL.EN.            DIPOLE MOMENTS         DIIS   ORB.
    1      0.000D+00      0.000D+00      -116.21409456    158.939403   -1.08125    0.20853   -0.27218    0    start
    2      0.000D+00      0.520D-02      -116.25748233    154.166684   -0.59457    0.13872   -0.16391    1    diag
    3      0.546D-02      0.304D-02      -116.27061764    156.156176   -0.71555    0.15427   -0.18968    2    diag
    4      0.181D-02      0.453D-03      -116.27126621    156.044970   -0.70462    0.15099   -0.18647    3    diag
    5      0.399D-03      0.132D-03      -116.27133291    156.038987   -0.70369    0.15124   -0.18650    4    diag
    6      0.143D-03      0.326D-04      -116.27133676    156.044856   -0.70275    0.15118   -0.18639    5    diag
    7      0.398D-04      0.640D-05      -116.27133698    156.043286   -0.70273    0.15120   -0.18640    6    diag
    8      0.108D-04      0.164D-05      -116.27133700    156.043438   -0.70265    0.15120   -0.18640    7    diag
    9      0.232D-05      0.364D-06      -116.27133700    156.043412   -0.70263    0.15120   -0.18640    8    diag
   10      0.746D-06      0.438D-07      -116.27133700    156.043414   -0.70263    0.15120   -0.18640    9    orth
   11      0.625D-07      0.115D-07      -116.27133700    156.043415   -0.70263    0.15120   -0.18640    9    diag
   12      0.249D-07      0.298D-08      -116.27133700    156.043415   -0.70263    0.15120   -0.18640    9    diag
   13      0.490D-08      0.756D-09      -116.27133700    156.043415   -0.70263    0.15120   -0.18640    0    orth

 Final occupancy:  10

 !RHF STATE  1.1 Energy              -116.271337003591
 Nuclear energy                        36.78088270
 One-electron energy                 -231.07392714
 Two-electron energy                   78.02170744
 Virial quotient                       -1.00111111
 !RHF STATE  1.1 Dipole moment         -0.70263138     0.15120313    -0.18639732
 Dipole moment /Debye                  -1.78579387     0.38429486    -0.47374370

 Orbital energies:

         1.1          2.1          3.1          4.1          5.1          6.1          7.1          8.1          9.1         10.1
    -20.569657   -11.199400    -1.341188    -0.953573    -0.708750    -0.577729    -0.554706    -0.553066    -0.550582    -0.506607

        11.1         12.1
      0.025588     0.041345


 HOMO     10.1    -0.506607 =     -13.7855eV
 LUMO     11.1     0.025588 =       0.6963eV
 LUMO-HOMO         0.532195 =      14.4818eV


 **********************************************************************************************************************************
 DATASETS  * FILE   NREC   LENGTH (MB)   RECORD NAMES
              1      18       32.04       500      610      700      900      950      970     1000      129      960     1100   
                                          VAR    BASINP    GEOM    SYMINP    ZMAT    AOBASIS   BASIS     P2S    ABASIS      S 
                                         1400     1410     1200     1210     1080     1600     1650     1700   
                                           T        V       H0       H01     AOSYM     SMH    MOLCAS    OPER   

              2       4        3.96       700     1000      520     2100   
                                         GEOM     BASIS   MCVARS     RHF  

 PROGRAMS   *        TOTAL    HF-SCF       INT
 CPU TIMES  *        28.78     14.31     14.25
 REAL TIME  *        35.94 SEC
 DISK USED  *        39.90 MB (local),        6.36 GB (total)
 SF USED    *         0.21 MB
 GA USED    *         0.00 MB       (max)       0.00 MB       (current)
 **********************************************************************************************************************************

 Basis set:  JKFIT                   
 Basis size:   740
 Attributes:
 Sphericals:   T
 Basis set:  MP2FIT                  
 Basis size:   816
 Attributes:
 Sphericals:   T
 Basis set:  RI                      
 Basis size:   556
 Attributes:
 Sphericals:   T
 Basis set:  TDDFT                   
 Basis size:   816
 Attributes:
 Sphericals:   T

 PROGRAM * CCSD (Closed-shell coupled cluster)     Authors: C. Hampel, H.-J. Werner, 1991, M. Deegan, P.J. Knowles, 1992

                                  CCSD-F12 implementation by  H.-J. Werner, 2007

                   Density fitting integral evaluation by F.R. Manby, 2003,2007, G. Knizia, 2010



 Convergence thresholds:  THRVAR = 1.00D-08  THRDEN = 1.00D-10

 CCSD(T)     terms to be evaluated (factor= 1.000)


 Number of core orbitals:           2 (   2 )
 Number of closed-shell orbitals:   8 (   8 )
 Number of external orbitals:     220 ( 220 )

 Molecular orbitals read from record     2100.2  Type=RHF/CANONICAL (state 1.1)

 MP2-F12 correlation treatment (H.-J. Werner, 2006)
 ==================================================

 Using MP2-F12 with ansatz 3C(FIX)

 Using projected zeroth-order Hamiltonian (+Z)

 FOCKRIB=T FOCKRIC=T FOCKRIP=T CABSP=T CABSA=T CABSK=T CABSF=T GBC=F EBC=F DMAT=T NOFIK=T NOPAO=1 SOLVE=-1  USEPAO=0
 EXCH_A= T EXCH_B= F EXCH_C= F EXCH_P= F

 Geminal basis:    OPTFULL  GEM_TYPE=SLATER  BETA=1.0  NGEM=6

 Optimizing Gaussian exponents for each gem_beta

 Geminal optimization for beta= 1.0000
 Weight function:   m=0, omega= 1.4646

 Augmented Hessian optimization of geminal fit. Trust ratio= 0.40000
 Convergence reached after   2 iterations. Final gradient= 7.85D-16, Step= 4.26D-06, Delta= 1.28D-09

 Alpha:                 0.19532     0.81920     2.85917     9.50073    35.69989   197.79328
 Coeff:                 0.27070     0.30552     0.18297     0.10986     0.06810     0.04224


 All pairs explicitly correlated. Number of r12-pairs:           36

 Excluding core orbitals from MO domains

 AO(A)-basis ORBITAL           loaded. Number of functions:     230
 RI(R)-basis RI                loaded. Number of functions:     556
 DF-basis JKFIT                loaded. Number of functions:     740

 Screening thresholds:   THRAO=  1.00D-10  THRMO=  1.00D-09  THRPROD=  1.00D-09
                         THRSW=  1.00D-05  THROV=  1.00D-12  THRAOF12= 1.00D-10

 CPU time for Fock operators                      3.59 sec

 Construction of ABS:
 Smallest eigenvalue of S          1.16E-04  (threshold= 1.00E-08)
 Ratio eigmin/eigmax               1.65E-05  (threshold= 1.00E-09)
 Smallest eigenvalue of S kept     1.16E-04  (threshold= 1.16E-04, 0 functions deleted, 556 kept)

 Construction of CABS:
 Smallest eigenvalue of S          5.81E-07  (threshold= 1.00E-08)
 Ratio eigmin/eigmax               5.81E-07  (threshold= 1.00E-09)
 Smallest eigenvalue of S kept     5.81E-07  (threshold= 5.81E-07, 0 functions deleted, 556 kept)

 CPU time for CABS singles                        0.66 sec

 CABS-singles contribution of  -0.00236399 patched into reference energy.
 New reference energy        -116.27370099

 AO(A)-basis ORBITAL           loaded. Number of functions:     230
 RI(R)-basis RI                loaded. Number of functions:     556
 DF-basis MP2FIT               loaded. Number of functions:     816

 Screening thresholds:   THRAO=  1.00D-10  THRMO=  1.00D-09  THRPROD=  1.00D-09
                         THRSW=  1.00D-05  THROV=  1.00D-12  THRAOF12= 1.00D-10

 CPU time for 3-index integral evaluation         5.39 sec
 CPU time for first  half transformation          0.92 sec ( 3154.6 MFLOP/sec)
 CPU time for second half transformation          0.04 sec ( 1284.3 MFLOP/sec)
 CPU time for sorting                             0.04 sec
 CPU time for fitting                             0.51 sec ( 4261.5 MFLOP/sec)
 CPU time for tilde quantities                    0.62 sec ( 4450.5 MFLOP/sec)
 CPU time for assembly                            4.50 sec ( 4401.3 MFLOP/sec)
 CPU time for tranop_f12                          4.34 sec ( 4398.6 MFLOP/sec)
 CPU time for f12 integrals (total)              23.10 sec, Elapsed time:     23.93 sec
 F12-matrices built in  4 passes.
 F12-matrices built in  4 passes.
 F12-matrices built in  4 passes.
 F12-matrices built in  4 passes.
 FC-matrix built in  4 passes.
 CPU time for f12 matrices (total)                1.13 sec, Elapsed time:      1.17 sec

 Diagonal F12 approximation with fixed coefficients:  TSING= 0.500,  TTRIP= 0.250 (scaled by -1/beta)

 DF-MP2-F12 energy corrections:
 ==============================
 Approx.                                    Singlet             Triplet             Total
 DF-MP2-F12/3*C(DX,FIX)                -0.046218875582     -0.006807646022     -0.053026521604
 DF-MP2-F12/3*C(FIX)                   -0.039908453321     -0.005616403808     -0.045524857129
 DF-MP2-F12/3C(FIX)                    -0.040026941857     -0.005582570276     -0.045609512134

 DF-MP2-F12 correlation energies:
 ================================
 Approx.                                    Singlet             Triplet             Ecorr            Total Energy
 DF-MP2                                -0.317441418984     -0.153995837259     -0.471437256242   -116.745138251113
 DF-MP2-F12/3*C(DX,FIX)                -0.363660294566     -0.160803483280     -0.524463777846   -116.798164772717
 DF-MP2-F12/3*C(FIX)                   -0.357349872304     -0.159612241067     -0.516962113371   -116.790663108242
 DF-MP2-F12/3C(FIX)                    -0.357468360841     -0.159578407535     -0.517046768376   -116.790747763247

 SCS-DF-MP2 energies (F_SING= 1.20000  F_TRIP= 0.62222  F_PARALLEL= 0.33333):
 ============================================================================
 SCS-DF-MP2                            -0.476749334852   -116.750450329723
 SCS-DF-MP2-F12/3*C(DX,FIX)            -0.536447854186   -116.810148849057
 SCS-DF-MP2-F12/3*C(FIX)               -0.528134130096   -116.801835124967
 SCS-DF-MP2-F12/3C(FIX)                -0.528255264364   -116.801956259235
 Symmetry transformation completed.

 Number of N-1 electron functions:               8
 Number of N-2 electron functions:              36
 Number of singly external CSFs:              1760
 Number of doubly external CSFs:           1549680
 Total number of CSFs:                     1551441

 Pair and operator lists are different

 Length of J-op  integral file:             315.61 MB
 Length of K-op  integral file:             368.50 MB
 Length of 3-ext integral record:             0.00 MB

 Memory could be reduced to 116.32 Mwords without degradation in triples

 Integral transformation finished. Total CPU:  23.65 sec, npass=  1  Memory used:  59.34 MW

 Reference energy:                   -116.27370099

 Adding F12 terms to K(Cij), methodcc=6,  factor= 1.0

 ITER.      SQ.NORM     CORR.ENERGY   TOTAL ENERGY   ENERGY CHANGE        DEN1      VAR(S)    VAR(P)  DIIS     TIME  TIME/IT
   1      1.13210094    -0.48608461  -116.75978561    -0.01463005    -0.00300648  0.15D-02  0.20D-02  1  1    68.50    14.46
   2      1.14034928    -0.48635236  -116.76005336    -0.00026775    -0.00970666  0.28D-04  0.23D-03  2  2    83.01    14.60
   3      1.14322092    -0.48661087  -116.76031186    -0.00025850    -0.00196017  0.13D-04  0.12D-04  3  3    97.46    14.65
   4      1.14409268    -0.48666548  -116.76036648    -0.00005462    -0.00048000  0.53D-06  0.11D-05  4  4   111.94    14.69
   5      1.14423860    -0.48666020  -116.76036120     0.00000528    -0.00003958  0.21D-06  0.76D-07  5  5   126.44    14.71
   6      1.14427947    -0.48665721  -116.76035821     0.00000299    -0.00000625  0.19D-07  0.60D-08  6  6   140.90    14.73
   7      1.14428919    -0.48665649  -116.76035748     0.00000073    -0.00000258  0.18D-08  0.96D-09  6  2   155.36    14.73
   8      1.14429140    -0.48665636  -116.76035736     0.00000013    -0.00000031  0.35D-09  0.11D-09  6  1   169.92    14.75
   9      1.14429221    -0.48665644  -116.76035744    -0.00000008     0.00000001  0.34D-10  0.16D-10  6  3   184.47    14.75
  10      1.14429239    -0.48665643  -116.76035743     0.00000001     0.00000003  0.40D-11  0.22D-11  6  4   199.01    14.76
  11      1.14429233    -0.48665644  -116.76035743    -0.00000001     0.00000008  0.72D-12  0.31D-12  6  5   213.56    14.77
  12      1.14429231    -0.48665644  -116.76035743    -0.00000000     0.00000002  0.14D-12  0.43D-13  6  6   228.14    14.77
  13      1.14429228    -0.48665644  -116.76035743    -0.00000000     0.00000001  0.20D-13  0.66D-14  6  2   242.73    14.78
  14      1.14429228    -0.48665644  -116.76035744    -0.00000000     0.00000000  0.26D-14  0.13D-14  6  1   257.32    14.78
  15      1.14429228    -0.48665644  -116.76035744    -0.00000000    -0.00000000  0.24D-15  0.15D-15  6  3   271.91    14.79
  16      1.14429228    -0.48665644  -116.76035744     0.00000000    -0.00000000  0.31D-16  0.20D-16  6  4   286.47    14.79
  17      1.14429228    -0.48665644  -116.76035744     0.00000000    -0.00000000  0.50D-17  0.31D-17  6  5   301.05    14.80

 Norm of t1 vector:      0.05062225      S-energy:     0.00000000      T1 diagnostic:  0.00894883
                                                                       D1 diagnostic:  0.01912027

 Adding energy correction from Wij-K(Fij), methodcc=6  factor= 1.0

  CCSD correlation energy              -0.486656440359
  MP2-F12 correction (uncoupled)       -0.045351836572
  C*T doubles correction               -0.000606752901
  f12b correction                       0.008422775602


 Total CPU time for triples:    219.10 sec

  Ecorr(MP2)                           -0.471454564736
  Ecorr(MP2-F12)                       -0.517064076870
  Scale factor for triples energy       1.096742115880


 RESULTS
 =======

  Reference energy                   -116.271337003590
  F12 singles correction               -0.002363991281

 F12 singles corrections added to reference energy

  New reference energy               -116.273700994871

  F12a singlet correction              -0.040280932597
  F12a triplet correction              -0.005677656875
  F12a total correction                -0.045958589472

 F12a corrections for ansatz F12/3C(FIX) added to CCSD energy

  CCSD-F12a singlet pair energy        -0.386061350786
  CCSD-F12a triplet pair energy        -0.146553679148
  CCSD-F12a correlation energy         -0.532615029831

  Triples (T) contribution (scaled)    -0.016518023703
  Total correlation energy             -0.549133053534

  CCSD-F12a total energy             -116.806316024702
  CCSD[T]-F12a energy                -116.823426128904
  CCSD-T-F12a energy                 -116.822614034679
 !CCSD(T)-F12a total energy          -116.822834048405

 F12b corrections for ansatz F12/3C(FIX) added to CCSD(T)-F12a energy

  CCSD-F12b singlet pair energy        -0.378170483180
  CCSD-F12b triplet pair energy        -0.146021771153
  CCSD-F12b correlation energy         -0.524192254229

  Triples (T) contribution (scaled)    -0.016518023703
  Total correlation energy             -0.540710277932

  CCSD-F12b total energy             -116.797893249100
  CCSD[T]-F12b energy                -116.815003353302
  CCSD-T-F12b energy                 -116.814191259078
 !CCSD(T)-F12b total energy          -116.814411272803

 Timing summary (sec):

 STEP                 CPU(USER)    SYS     CPU(TOT)    WALL
 Transformation         23.84      0.76     24.60     24.62
 CCSD iterations       246.83      4.54    251.37    251.65
 Triples               219.10      0.83    219.93    220.18
 MP2-F12                30.41      1.05     31.46     31.77
 F12b energy            11.18      0.21     11.39     11.41

 Program statistics:

 Available memory in ccsd:              1999999554
 Min. memory needed in ccsd:               4597329
 Max. memory used in ccsd:                 5918289
 Max. memory used in cckext:               4231061 (18 integral passes)



 **********************************************************************************************************************************
 DATASETS  * FILE   NREC   LENGTH (MB)   RECORD NAMES
              1      19      398.06       500      610      700      900      950      970     1000      129      960     1100   
                                          VAR    BASINP    GEOM    SYMINP    ZMAT    AOBASIS   BASIS     P2S    ABASIS      S 
                                         1400     1410     1200     1210     1080     1600     1650     1700     1380   
                                           T        V       H0       H01     AOSYM     SMH    MOLCAS    OPER     JKOP   

              2       6        5.03       700     1000      520     2100     7360     7350   
                                         GEOM     BASIS   MCVARS     RHF    F12ABS    EF12   

 PROGRAMS   *        TOTAL   CCSD(T)    HF-SCF       INT
 CPU TIMES  *       560.36    531.57     14.31     14.25
 REAL TIME  *       576.66 SEC
 DISK USED  *       570.60 MB (local),        7.98 GB (total)
 SF USED    *         1.36 GB
 GA USED    *         4.87 MB       (max)       0.00 MB       (current)
 **********************************************************************************************************************************

 Running procedure: SET_MONOMER1

 Dummy atoms: C1  H41  H42  H43  H44


 Recomputing one-electron integrals since nuclear charges changed


 PROGRAM * SEWARD (Integral evaluation for generally contracted gaussian basis sets)     Author: Roland Lindh, 1990

 Geometry written to block  1 of record 700


 Point group  C1  



 ATOMIC COORDINATES

 NR  ATOM    CHARGE       X              Y              Z

   1  O7      8.00   -4.362810704   -2.860478435    6.396722932
   2  H13     1.00   -5.253627599   -3.421160176    4.877005182
   3  H14     1.00   -5.588487068   -1.881600302    7.381837160
   4  C1      0.00   -6.193010455    2.801518980    2.403542658
   5  H41     0.00   -4.656285171    1.699997622    3.119937832
   6  H42     0.00   -5.973046335    4.726205038    2.982932688
   7  H43     0.00   -7.940251230    2.077186956    3.118237078
   8  H44     0.00   -6.176569838    2.685300823    0.384937212

 Bond lengths in Bohr (Angstrom)

 1-2  1.848637551  1-3  1.852278325  4-5  2.021904040  4-6  2.022002335  4-7  2.021953343
     ( 0.978256863)     ( 0.980183478)     ( 1.069945541)     ( 1.069997556)     ( 1.069971630)

 4-8  2.022015060
     ( 1.070004290)

 Bond angles

  2-1-3  106.17843926   5-4-6  109.53398059   5-4-7  109.65604535   5-4-8  108.43490854

  6-4-7  109.49436728   6-4-8  109.86987750   7-4-8  109.83468330

 NUCLEAR CHARGE:                   10
 NUMBER OF PRIMITIVE AOS:         296
 NUMBER OF SYMMETRY AOS:          266
 NUMBER OF CONTRACTIONS:          230   (  230A   )
 NUMBER OF CORE ORBITALS:           1   (    1A   )
 NUMBER OF VALENCE ORBITALS:        6   (    6A   )

 MOLECULE CHANGED: INITIALIZING OCCUPATION AND DUMP RECORDS


 NUCLEAR REPULSION ENERGY    8.98445179

 Basis set:  JKFIT                   
 Basis size:   740
 Attributes:
 Sphericals:   T
 Basis set:  MP2FIT                  
 Basis size:   816
 Attributes:
 Sphericals:   T
 Basis set:  RI                      
 Basis size:   556
 Attributes:
 Sphericals:   T
 Basis set:  TDDFT                   
 Basis size:   816
 Attributes:
 Sphericals:   T

 Eigenvalues of metric

         1 0.652E-04 0.852E-04 0.972E-04 0.103E-03 0.336E-03 0.396E-03 0.672E-03 0.733E-03


 Contracted 2-electron integrals neglected if value below      1.0D-14

 OPERATOR DM      FOR CENTER  0  COORDINATES:    0.000000    0.000000    0.000000


 **********************************************************************************************************************************
 DATASETS  * FILE   NREC   LENGTH (MB)   RECORD NAMES
              1      18       32.04       500      610      700      900      950      970     1000      129      960     1100   
                                          VAR    BASINP    GEOM    SYMINP    ZMAT    AOBASIS   BASIS     P2S    ABASIS      S 
                                         1400     1410     1200     1210     1080     1600     1650     1700   
                                           T        V       H0       H01     AOSYM     SMH    MOLCAS    OPER   

              2       7        5.05       700     1000      520     2100     7360     7350      200   
                                         GEOM     BASIS   MCVARS     RHF    F12ABS    EF12    OPTIONS    

 PROGRAMS   *        TOTAL       INT   CCSD(T)    HF-SCF       INT
 CPU TIMES  *       560.61      0.24    531.57     14.31     14.25
 REAL TIME  *       577.40 SEC
 DISK USED  *       570.60 MB (local),        7.98 GB (total)
 SF USED    *         1.36 GB
 GA USED    *         4.87 MB       (max)       0.00 MB       (current)
 **********************************************************************************************************************************


 PROGRAM * RHF-SCF (CLOSED SHELL)       Authors: W. Meyer, H.-J. Werner


 NUMBER OF ELECTRONS:       5+    5-    SPACE SYMMETRY=1    SPIN SYMMETRY: Singlet 
 CONVERGENCE THRESHOLDS:    1.00E-08 (Density)    1.00E-11 (Energy)
 MAX. NUMBER OF ITERATIONS:       60
 INTERPOLATION TYPE:            DIIS
 INTERPOLATION STEPS:              2 (START)      1 (STEP)
 LEVEL SHIFTS:                  0.00 (CLOSED)  0.00 (OPEN) 



 Orbital guess generated from atomic densities. Full valence occupancy:    7

 Molecular orbital dump at record        2101.2

 Initial occupancy:   5

 ITERATION    DDIFF          GRAD             ENERGY        2-EL.EN.            DIPOLE MOMENTS         DIIS   ORB.
    1      0.000D+00      0.000D+00       -76.02016583     77.364912   -1.08706    0.21510   -0.27402    0    start
    2      0.000D+00      0.639D-02       -76.04670580     73.731366   -0.63321    0.12497   -0.16014    1    diag
    3      0.444D-02      0.408D-02       -76.05806149     75.337078   -0.74531    0.14718   -0.18838    2    diag
    4      0.161D-02      0.375D-03       -76.05825280     75.247828   -0.74091    0.14625   -0.18738    3    diag
    5      0.203D-03      0.104D-03       -76.05827279     75.261830   -0.73921    0.14589   -0.18699    4    diag
    6      0.615D-04      0.204D-04       -76.05827403     75.260949   -0.73887    0.14582   -0.18692    5    diag
    7      0.157D-04      0.403D-05       -76.05827409     75.261079   -0.73874    0.14579   -0.18689    6    diag
    8      0.420D-05      0.754D-06       -76.05827409     75.261063   -0.73871    0.14578   -0.18688    7    diag
    9      0.702D-06      0.980D-07       -76.05827409     75.261054   -0.73870    0.14578   -0.18688    8    diag
   10      0.930D-07      0.243D-07       -76.05827409     75.261058   -0.73870    0.14578   -0.18688    9    orth
   11      0.256D-07      0.423D-08       -76.05827409     75.261057   -0.73870    0.14578   -0.18688    9    diag
   12      0.498D-08      0.614D-09       -76.05827409     75.261057   -0.73870    0.14578   -0.18688    0    orth

 Final occupancy:   5

 !RHF STATE  1.1 Energy               -76.058274094410
 Nuclear energy                         8.98445179
 One-electron energy                 -122.67325456
 Two-electron energy                   37.63052868
 Virial quotient                       -1.00246082
 !RHF STATE  1.1 Dipole moment         -0.73870135     0.14578253    -0.18687786
 Dipole moment /Debye                  -1.87746859     0.37051797    -0.47496504

 Orbital energies:

         1.1          2.1          3.1          4.1          5.1          6.1          7.1
    -20.570210    -1.341358    -0.708978    -0.577482    -0.508071     0.019089     0.039135


 HOMO      5.1    -0.508071 =     -13.8253eV
 LUMO      6.1     0.019089 =       0.5194eV
 LUMO-HOMO         0.527160 =      14.3448eV


 **********************************************************************************************************************************
 DATASETS  * FILE   NREC   LENGTH (MB)   RECORD NAMES
              1      18       32.04       500      610      700      900      950      970     1000      129      960     1100   
                                          VAR    BASINP    GEOM    SYMINP    ZMAT    AOBASIS   BASIS     P2S    ABASIS      S 
                                         1400     1410     1200     1210     1080     1600     1650     1700   
                                           T        V       H0       H01     AOSYM     SMH    MOLCAS    OPER   

              2       8        9.09       700     1000      520     2100     7360     7350      200     2101   
                                         GEOM     BASIS   MCVARS     RHF    F12ABS    EF12    OPTIONS    RHF  

 PROGRAMS   *        TOTAL    HF-SCF       INT   CCSD(T)    HF-SCF       INT
 CPU TIMES  *       573.96     13.35      0.24    531.57     14.31     14.25
 REAL TIME  *       592.49 SEC
 DISK USED  *       570.60 MB (local),        7.98 GB (total)
 SF USED    *         1.36 GB
 GA USED    *         4.87 MB       (max)       0.00 MB       (current)
 **********************************************************************************************************************************

 Basis set:  JKFIT                   
 Basis size:   740
 Attributes:
 Sphericals:   T
 Basis set:  MP2FIT                  
 Basis size:   816
 Attributes:
 Sphericals:   T
 Basis set:  RI                      
 Basis size:   556
 Attributes:
 Sphericals:   T
 Basis set:  TDDFT                   
 Basis size:   816
 Attributes:
 Sphericals:   T

 PROGRAM * CCSD (Closed-shell coupled cluster)     Authors: C. Hampel, H.-J. Werner, 1991, M. Deegan, P.J. Knowles, 1992

                                  CCSD-F12 implementation by  H.-J. Werner, 2007

                   Density fitting integral evaluation by F.R. Manby, 2003,2007, G. Knizia, 2010



 Convergence thresholds:  THRVAR = 1.00D-08  THRDEN = 1.00D-10

 CCSD(T)     terms to be evaluated (factor= 1.000)


 Number of core orbitals:           1 (   1 )
 Number of closed-shell orbitals:   4 (   4 )
 Number of external orbitals:     225 ( 225 )

 Molecular orbitals read from record     2101.2  Type=RHF/CANONICAL (state 1.1)

 MP2-F12 correlation treatment (H.-J. Werner, 2006)
 ==================================================

 Using MP2-F12 with ansatz 3C(FIX)

 Using projected zeroth-order Hamiltonian (+Z)

 FOCKRIB=T FOCKRIC=T FOCKRIP=T CABSP=T CABSA=T CABSK=T CABSF=T GBC=F EBC=F DMAT=T NOFIK=T NOPAO=1 SOLVE=-1  USEPAO=0
 EXCH_A= T EXCH_B= F EXCH_C= F EXCH_P= F

 Geminal basis:    OPTFULL  GEM_TYPE=SLATER  BETA=1.0  NGEM=6

 Optimizing Gaussian exponents for each gem_beta

 Geminal optimization for beta= 1.0000
 Weight function:   m=0, omega= 1.4646

 Augmented Hessian optimization of geminal fit. Trust ratio= 0.40000
 Convergence reached after   2 iterations. Final gradient= 8.31D-16, Step= 4.24D-06, Delta= 1.28D-09

 Alpha:                 0.19532     0.81920     2.85917     9.50073    35.69989   197.79328
 Coeff:                 0.27070     0.30552     0.18297     0.10986     0.06810     0.04224


 All pairs explicitly correlated. Number of r12-pairs:           10

 Excluding core orbitals from MO domains

 AO(A)-basis ORBITAL           loaded. Number of functions:     230
 RI(R)-basis RI                loaded. Number of functions:     556
 DF-basis JKFIT                loaded. Number of functions:     740

 Screening thresholds:   THRAO=  1.00D-10  THRMO=  1.00D-09  THRPROD=  1.00D-09
                         THRSW=  1.00D-05  THROV=  1.00D-12  THRAOF12= 1.00D-10

 CPU time for Fock operators                      3.01 sec

 Construction of ABS:
 Smallest eigenvalue of S          1.16E-04  (threshold= 1.00E-08)
 Ratio eigmin/eigmax               1.65E-05  (threshold= 1.00E-09)
 Smallest eigenvalue of S kept     1.16E-04  (threshold= 1.16E-04, 0 functions deleted, 556 kept)

 Construction of CABS:
 Smallest eigenvalue of S          5.81E-07  (threshold= 1.00E-08)
 Ratio eigmin/eigmax               5.81E-07  (threshold= 1.00E-09)
 Smallest eigenvalue of S kept     5.81E-07  (threshold= 5.81E-07, 0 functions deleted, 556 kept)

 CPU time for CABS singles                        0.68 sec

 CABS-singles contribution of  -0.00145512 patched into reference energy.
 New reference energy         -76.05972921

 AO(A)-basis ORBITAL           loaded. Number of functions:     230
 RI(R)-basis RI                loaded. Number of functions:     556
 DF-basis MP2FIT               loaded. Number of functions:     816

 Screening thresholds:   THRAO=  1.00D-10  THRMO=  1.00D-09  THRPROD=  1.00D-09
                         THRSW=  1.00D-05  THROV=  1.00D-12  THRAOF12= 1.00D-10

 CPU time for 3-index integral evaluation         5.37 sec
 CPU time for first  half transformation          0.66 sec ( 2092.7 MFLOP/sec)
 CPU time for sorting                             0.04 sec
 CPU time for fitting                             0.32 sec ( 5584.9 MFLOP/sec)
 CPU time for tilde quantities                    0.40 sec ( 5283.6 MFLOP/sec)
 CPU time for assembly                            1.40 sec ( 3985.2 MFLOP/sec)
 CPU time for tranop_f12                          1.31 sec ( 2998.0 MFLOP/sec)
 CPU time for f12 integrals (total)              11.75 sec, Elapsed time:     12.11 sec
 F12-matrices built in  4 passes.
 F12-matrices built in  4 passes.
 F12-matrices built in  4 passes.
 F12-matrices built in  4 passes.
 FC-matrix built in  4 passes.
 CPU time for f12 matrices (total)                0.28 sec, Elapsed time:      0.31 sec

 Diagonal F12 approximation with fixed coefficients:  TSING= 0.500,  TTRIP= 0.250 (scaled by -1/beta)

 DF-MP2-F12 energy corrections:
 ==============================
 Approx.                                    Singlet             Triplet             Total
 DF-MP2-F12/3*C(DX,FIX)                -0.029481513791     -0.004864166479     -0.034345680270
 DF-MP2-F12/3*C(FIX)                   -0.024412397555     -0.003811220347     -0.028223617902
 DF-MP2-F12/3C(FIX)                    -0.024544066664     -0.003784742326     -0.028328808990

 DF-MP2-F12 correlation energies:
 ================================
 Approx.                                    Singlet             Triplet             Ecorr            Total Energy
 DF-MP2                                -0.171828591913     -0.098280952974     -0.270109544887    -76.329838757969
 DF-MP2-F12/3*C(DX,FIX)                -0.201310105704     -0.103145119453     -0.304455225156    -76.364184438238
 DF-MP2-F12/3*C(FIX)                   -0.196240989468     -0.102092173321     -0.298333162789    -76.358062375871
 DF-MP2-F12/3C(FIX)                    -0.196372658577     -0.102065695299     -0.298438353876    -76.358167566959

 SCS-DF-MP2 energies (F_SING= 1.20000  F_TRIP= 0.62222  F_PARALLEL= 0.33333):
 ============================================================================
 SCS-DF-MP2                            -0.267346903257    -76.327076116339
 SCS-DF-MP2-F12/3*C(DX,FIX)            -0.305751312282    -76.365480525364
 SCS-DF-MP2-F12/3*C(FIX)               -0.299013206317    -76.358742419399
 SCS-DF-MP2-F12/3C(FIX)                -0.299154734034    -76.358883947116
 Symmetry transformation completed.

 Number of N-1 electron functions:               4
 Number of N-2 electron functions:              10
 Number of singly external CSFs:               900
 Number of doubly external CSFs:            405450
 Total number of CSFs:                      406351

 Pair and operator lists are different

 Length of J-op  integral file:              81.60 MB
 Length of K-op  integral file:             128.10 MB
 Length of 3-ext integral record:             0.00 MB

 Memory could be reduced to 75.63 Mwords without degradation in triples

 Integral transformation finished. Total CPU:  12.23 sec, npass=  1  Memory used:  32.52 MW

 Reference energy:                    -76.05972921

 Adding F12 terms to K(Cij), methodcc=6,  factor= 1.0

 ITER.      SQ.NORM     CORR.ENERGY   TOTAL ENERGY   ENERGY CHANGE        DEN1      VAR(S)    VAR(P)  DIIS     TIME  TIME/IT
   1      1.06237139    -0.26971487   -76.32944408     0.00040215     0.00635016  0.79D-03  0.10D-02  1  1    33.40     3.96
   2      1.06580526    -0.26939405   -76.32912327     0.00032081    -0.00463937  0.13D-04  0.11D-03  2  2    37.23     4.02
   3      1.06704876    -0.26951645   -76.32924566    -0.00012239    -0.00083023  0.93D-05  0.60D-05  3  3    41.17     4.05
   4      1.06754080    -0.26955359   -76.32928280    -0.00003715    -0.00027693  0.42D-06  0.67D-06  4  4    44.96     4.05
   5      1.06763425    -0.26955075   -76.32927996     0.00000284    -0.00002893  0.16D-06  0.47D-07  5  5    48.88     4.06
   6      1.06766598    -0.26954863   -76.32927784     0.00000212    -0.00000443  0.17D-07  0.38D-08  6  6    52.76     4.07
   7      1.06767392    -0.26954834   -76.32927756     0.00000029    -0.00000159  0.14D-08  0.85D-09  6  2    56.64     4.07
   8      1.06767555    -0.26954823   -76.32927744     0.00000012    -0.00000005  0.26D-09  0.90D-10  6  1    60.47     4.07
   9      1.06767599    -0.26954829   -76.32927751    -0.00000006     0.00000010  0.50D-10  0.23D-10  6  2    64.33     4.07
  10      1.06767633    -0.26954828   -76.32927750     0.00000001    -0.00000002  0.37D-11  0.14D-11  6  3    68.17     4.07
  11      1.06767631    -0.26954829   -76.32927750    -0.00000000     0.00000003  0.78D-12  0.25D-12  6  4    71.99     4.07
  12      1.06767631    -0.26954829   -76.32927750    -0.00000000     0.00000000  0.13D-12  0.36D-13  6  5    75.87     4.06
  13      1.06767630    -0.26954829   -76.32927750     0.00000000     0.00000000  0.19D-13  0.52D-14  6  6    79.74     4.06
  14      1.06767630    -0.26954829   -76.32927750    -0.00000000     0.00000000  0.27D-14  0.11D-14  6  2    83.57     4.06
  15      1.06767629    -0.26954829   -76.32927750    -0.00000000     0.00000000  0.48D-15  0.19D-15  6  1    87.44     4.06
  16      1.06767629    -0.26954829   -76.32927750    -0.00000000     0.00000000  0.38D-16  0.16D-16  6  3    91.40     4.08
  17      1.06767629    -0.26954829   -76.32927750    -0.00000000     0.00000000  0.23D-17  0.31D-17  6  4    95.22     4.08

 Norm of t1 vector:      0.03704462      S-energy:     0.00000000      T1 diagnostic:  0.00926116
                                                                       D1 diagnostic:  0.01841055

 Adding energy correction from Wij-K(Fij), methodcc=6  factor= 1.0

  CCSD correlation energy              -0.269548286536
  MP2-F12 correction (uncoupled)       -0.028062038329
  C*T doubles correction               -0.000411914884
  f12b correction                       0.004757740480


 Total CPU time for triples:     34.25 sec

  Ecorr(MP2)                           -0.270117019582
  Ecorr(MP2-F12)                       -0.298445828572
  Scale factor for triples energy       1.104876060877


 RESULTS
 =======

  Reference energy                    -76.058274094410
  F12 singles correction               -0.001455118672

 F12 singles corrections added to reference energy

  New reference energy                -76.059729213082

  F12a singlet correction              -0.024619144151
  F12a triplet correction              -0.003854809061
  F12a total correction                -0.028473953212

 F12a corrections for ansatz F12/3C(FIX) added to CCSD energy

  CCSD-F12a singlet pair energy        -0.207423097663
  CCSD-F12a triplet pair energy        -0.090599142106
  CCSD-F12a correlation energy         -0.298022239749

  Triples (T) contribution (scaled)    -0.009553248517
  Total correlation energy             -0.307575488266

  CCSD-F12a total energy              -76.357751452831
  CCSD[T]-F12a energy                 -76.367652894412
  CCSD-T-F12a energy                  -76.367161620562
 !CCSD(T)-F12a total energy           -76.367304701348

 F12b corrections for ansatz F12/3C(FIX) added to CCSD(T)-F12a energy

  CCSD-F12b singlet pair energy        -0.203023834637
  CCSD-F12b triplet pair energy        -0.090240664653
  CCSD-F12b correlation energy         -0.293264499269

  Triples (T) contribution (scaled)    -0.009553248517
  Total correlation energy             -0.302817747786

  CCSD-F12b total energy              -76.352993712351
  CCSD[T]-F12b energy                 -76.362895153933
  CCSD-T-F12b energy                  -76.362403880083
 !CCSD(T)-F12b total energy           -76.362546960868

 Timing summary (sec):

 STEP                 CPU(USER)    SYS     CPU(TOT)    WALL
 Transformation         12.29      0.47     12.76     12.78
 CCSD iterations        65.61      3.49     69.10     69.32
 Triples                34.25      0.15     34.40     34.44
 MP2-F12                17.34      0.49     17.83     17.84
 F12b energy             3.27      0.18      3.45      3.45

 Program statistics:

 Available memory in ccsd:              1999999871
 Min. memory needed in ccsd:               1862772
 Max. memory used in ccsd:                 2158322
 Max. memory used in cckext:               1445635 (18 integral passes)



 **********************************************************************************************************************************
 DATASETS  * FILE   NREC   LENGTH (MB)   RECORD NAMES
              1      19      222.31       500      610      700      900      950      970     1000      129      960     1100   
                                          VAR    BASINP    GEOM    SYMINP    ZMAT    AOBASIS   BASIS     P2S    ABASIS      S 
                                         1400     1410     1200     1210     1080     1600     1650     1700     1380   
                                           T        V       H0       H01     AOSYM     SMH    MOLCAS    OPER     JKOP   

              2       8        9.09       700     1000      520     2100     7360     7350      200     2101   
                                         GEOM     BASIS   MCVARS     RHF    F12ABS    EF12    OPTIONS    RHF  

 PROGRAMS   *        TOTAL   CCSD(T)    HF-SCF       INT   CCSD(T)    HF-SCF       INT
 CPU TIMES  *       706.96    132.99     13.35      0.24    531.57     14.31     14.25
 REAL TIME  *       731.08 SEC
 DISK USED  *       570.60 MB (local),        7.98 GB (total)
 SF USED    *         1.36 GB
 GA USED    *         4.87 MB       (max)       0.00 MB       (current)
 **********************************************************************************************************************************

 Running procedure: SET_MONOMER2

 Dummy atoms: O7  H13  H14


 Recomputing one-electron integrals since nuclear charges changed


 PROGRAM * SEWARD (Integral evaluation for generally contracted gaussian basis sets)     Author: Roland Lindh, 1990

 Geometry written to block  1 of record 700


 Point group  C1  



 ATOMIC COORDINATES

 NR  ATOM    CHARGE       X              Y              Z

   1  O7      0.00   -4.362810704   -2.860478435    6.396722932
   2  H13     0.00   -5.253627599   -3.421160176    4.877005182
   3  H14     0.00   -5.588487068   -1.881600302    7.381837160
   4  C1      6.00   -6.193010455    2.801518980    2.403542658
   5  H41     1.00   -4.656285171    1.699997622    3.119937832
   6  H42     1.00   -5.973046335    4.726205038    2.982932688
   7  H43     1.00   -7.940251230    2.077186956    3.118237078
   8  H44     1.00   -6.176569838    2.685300823    0.384937212

 Bond lengths in Bohr (Angstrom)

 1-2  1.848637551  1-3  1.852278325  4-5  2.021904040  4-6  2.022002335  4-7  2.021953343
     ( 0.978256863)     ( 0.980183478)     ( 1.069945541)     ( 1.069997556)     ( 1.069971630)

 4-8  2.022015060
     ( 1.070004290)

 Bond angles

  2-1-3  106.17843926   5-4-6  109.53398059   5-4-7  109.65604535   5-4-8  108.43490854

  6-4-7  109.49436728   6-4-8  109.86987750   7-4-8  109.83468330

 NUCLEAR CHARGE:                   10
 NUMBER OF PRIMITIVE AOS:         296
 NUMBER OF SYMMETRY AOS:          266
 NUMBER OF CONTRACTIONS:          230   (  230A   )
 NUMBER OF CORE ORBITALS:           1   (    1A   )
 NUMBER OF VALENCE ORBITALS:        8   (    8A   )

 MOLECULE CHANGED: INITIALIZING OCCUPATION AND DUMP RECORDS


 NUCLEAR REPULSION ENERGY   13.68681606

 Basis set:  JKFIT                   
 Basis size:   740
 Attributes:
 Sphericals:   T
 Basis set:  MP2FIT                  
 Basis size:   816
 Attributes:
 Sphericals:   T
 Basis set:  RI                      
 Basis size:   556
 Attributes:
 Sphericals:   T
 Basis set:  TDDFT                   
 Basis size:   816
 Attributes:
 Sphericals:   T

 Eigenvalues of metric

         1 0.652E-04 0.852E-04 0.972E-04 0.103E-03 0.336E-03 0.396E-03 0.672E-03 0.733E-03


 Contracted 2-electron integrals neglected if value below      1.0D-14

 OPERATOR DM      FOR CENTER  0  COORDINATES:    0.000000    0.000000    0.000000


 **********************************************************************************************************************************
 DATASETS  * FILE   NREC   LENGTH (MB)   RECORD NAMES
              1      18       32.04       500      610      700      900      950      970     1000      129      960     1100   
                                          VAR    BASINP    GEOM    SYMINP    ZMAT    AOBASIS   BASIS     P2S    ABASIS      S 
                                         1400     1410     1200     1210     1080     1600     1650     1700   
                                           T        V       H0       H01     AOSYM     SMH    MOLCAS    OPER   

              2       8        9.09       700     1000      520     2100     7360     7350      200     2101   
                                         GEOM     BASIS   MCVARS     RHF    F12ABS    EF12    OPTIONS    RHF  

 PROGRAMS   *        TOTAL       INT   CCSD(T)    HF-SCF       INT   CCSD(T)    HF-SCF       INT
 CPU TIMES  *       707.20      0.23    132.99     13.35      0.24    531.57     14.31     14.25
 REAL TIME  *       731.79 SEC
 DISK USED  *       570.60 MB (local),        7.98 GB (total)
 SF USED    *         1.36 GB
 GA USED    *         4.87 MB       (max)       0.00 MB       (current)
 **********************************************************************************************************************************


 PROGRAM * RHF-SCF (CLOSED SHELL)       Authors: W. Meyer, H.-J. Werner


 NUMBER OF ELECTRONS:       5+    5-    SPACE SYMMETRY=1    SPIN SYMMETRY: Singlet 
 CONVERGENCE THRESHOLDS:    1.00E-08 (Density)    1.00E-11 (Energy)
 MAX. NUMBER OF ITERATIONS:       60
 INTERPOLATION TYPE:            DIIS
 INTERPOLATION STEPS:              2 (START)      1 (STEP)
 LEVEL SHIFTS:                  0.00 (CLOSED)  0.00 (OPEN) 



 Orbital guess generated from atomic densities. Full valence occupancy:    9

 Molecular orbital dump at record        2102.2

 Initial occupancy:   5

 ITERATION    DDIFF          GRAD             ENERGY        2-EL.EN.            DIPOLE MOMENTS         DIIS   ORB.
    1      0.000D+00      0.000D+00       -40.19358732     53.494044    0.00410   -0.00274   -0.00132    0    start
    2      0.000D+00      0.353D-02       -40.21070484     52.213684    0.00129   -0.00087   -0.00040    1    diag
    3      0.323D-02      0.137D-02       -40.21295331     52.664855    0.00182   -0.00123   -0.00056    2    diag
    4      0.903D-03      0.342D-03       -40.21326878     52.609828    0.00161   -0.00109   -0.00050    3    diag
    5      0.298D-03      0.444D-04       -40.21327417     52.612167    0.00158   -0.00107   -0.00049    4    diag
    6      0.822D-04      0.345D-05       -40.21327421     52.612264    0.00158   -0.00107   -0.00049    5    diag
    7      0.675D-05      0.264D-06       -40.21327421     52.612230    0.00158   -0.00107   -0.00049    6    diag
    8      0.101D-05      0.221D-07       -40.21327421     52.612230    0.00158   -0.00107   -0.00049    7    diag
    9      0.187D-06      0.284D-08       -40.21327421     52.612230    0.00158   -0.00107   -0.00049    8    diag
   10      0.103D-07      0.794D-09       -40.21327421     52.612230    0.00158   -0.00107   -0.00049    9    orth
   11      0.119D-08      0.106D-09       -40.21327421     52.612230    0.00158   -0.00107   -0.00049    0    orth

 Final occupancy:   5

 !RHF STATE  1.1 Energy               -40.213274211748
 Nuclear energy                        13.68681606
 One-electron energy                  -80.20620551
 Two-electron energy                   26.30611524
 Virial quotient                       -0.99870265
 !RHF STATE  1.1 Dipole moment          0.00158276    -0.00107044    -0.00048692
 Dipole moment /Debye                   0.00402271    -0.00272061    -0.00123755

 Orbital energies:

         1.1          2.1          3.1          4.1          5.1          6.1          7.1
    -11.197211    -0.950741    -0.551695    -0.549759    -0.547581     0.027729     0.042363


 HOMO      5.1    -0.547581 =     -14.9004eV
 LUMO      6.1     0.027729 =       0.7545eV
 LUMO-HOMO         0.575310 =      15.6550eV


 **********************************************************************************************************************************
 DATASETS  * FILE   NREC   LENGTH (MB)   RECORD NAMES
              1      18       32.04       500      610      700      900      950      970     1000      129      960     1100   
                                          VAR    BASINP    GEOM    SYMINP    ZMAT    AOBASIS   BASIS     P2S    ABASIS      S 
                                         1400     1410     1200     1210     1080     1600     1650     1700   
                                           T        V       H0       H01     AOSYM     SMH    MOLCAS    OPER   

              2       9       13.71       700     1000      520     2100     7360     7350      200     2101     2102   
                                         GEOM     BASIS   MCVARS     RHF    F12ABS    EF12    OPTIONS    RHF      RHF  

 PROGRAMS   *        TOTAL    HF-SCF       INT   CCSD(T)    HF-SCF       INT   CCSD(T)    HF-SCF       INT
 CPU TIMES  *       719.37     12.17      0.23    132.99     13.35      0.24    531.57     14.31     14.25
 REAL TIME  *       745.75 SEC
 DISK USED  *       570.60 MB (local),        7.98 GB (total)
 SF USED    *         1.36 GB
 GA USED    *         4.87 MB       (max)       0.00 MB       (current)
 **********************************************************************************************************************************

 Basis set:  JKFIT                   
 Basis size:   740
 Attributes:
 Sphericals:   T
 Basis set:  MP2FIT                  
 Basis size:   816
 Attributes:
 Sphericals:   T
 Basis set:  RI                      
 Basis size:   556
 Attributes:
 Sphericals:   T
 Basis set:  TDDFT                   
 Basis size:   816
 Attributes:
 Sphericals:   T

 PROGRAM * CCSD (Closed-shell coupled cluster)     Authors: C. Hampel, H.-J. Werner, 1991, M. Deegan, P.J. Knowles, 1992

                                  CCSD-F12 implementation by  H.-J. Werner, 2007

                   Density fitting integral evaluation by F.R. Manby, 2003,2007, G. Knizia, 2010



 Convergence thresholds:  THRVAR = 1.00D-08  THRDEN = 1.00D-10

 CCSD(T)     terms to be evaluated (factor= 1.000)


 Number of core orbitals:           1 (   1 )
 Number of closed-shell orbitals:   4 (   4 )
 Number of external orbitals:     225 ( 225 )

 Molecular orbitals read from record     2102.2  Type=RHF/CANONICAL (state 1.1)

 MP2-F12 correlation treatment (H.-J. Werner, 2006)
 ==================================================

 Using MP2-F12 with ansatz 3C(FIX)

 Using projected zeroth-order Hamiltonian (+Z)

 FOCKRIB=T FOCKRIC=T FOCKRIP=T CABSP=T CABSA=T CABSK=T CABSF=T GBC=F EBC=F DMAT=T NOFIK=T NOPAO=1 SOLVE=-1  USEPAO=0
 EXCH_A= T EXCH_B= F EXCH_C= F EXCH_P= F

 Geminal basis:    OPTFULL  GEM_TYPE=SLATER  BETA=1.0  NGEM=6

 Optimizing Gaussian exponents for each gem_beta

 Geminal optimization for beta= 1.0000
 Weight function:   m=0, omega= 1.4646

 Augmented Hessian optimization of geminal fit. Trust ratio= 0.40000
 Convergence reached after   2 iterations. Final gradient= 7.85D-16, Step= 4.26D-06, Delta= 1.28D-09

 Alpha:                 0.19532     0.81920     2.85917     9.50073    35.69989   197.79328
 Coeff:                 0.27070     0.30552     0.18297     0.10986     0.06810     0.04224


 All pairs explicitly correlated. Number of r12-pairs:           10

 Excluding core orbitals from MO domains

 AO(A)-basis ORBITAL           loaded. Number of functions:     230
 RI(R)-basis RI                loaded. Number of functions:     556
 DF-basis JKFIT                loaded. Number of functions:     740

 Screening thresholds:   THRAO=  1.00D-10  THRMO=  1.00D-09  THRPROD=  1.00D-09
                         THRSW=  1.00D-05  THROV=  1.00D-12  THRAOF12= 1.00D-10

 CPU time for Fock operators                      3.10 sec

 Construction of ABS:
 Smallest eigenvalue of S          1.16E-04  (threshold= 1.00E-08)
 Ratio eigmin/eigmax               1.65E-05  (threshold= 1.00E-09)
 Smallest eigenvalue of S kept     1.16E-04  (threshold= 1.16E-04, 0 functions deleted, 556 kept)

 Construction of CABS:
 Smallest eigenvalue of S          5.81E-07  (threshold= 1.00E-08)
 Ratio eigmin/eigmax               5.81E-07  (threshold= 1.00E-09)
 Smallest eigenvalue of S kept     5.81E-07  (threshold= 5.81E-07, 0 functions deleted, 556 kept)

 CPU time for CABS singles                        0.68 sec

 CABS-singles contribution of  -0.00091094 patched into reference energy.
 New reference energy         -40.21418515

 AO(A)-basis ORBITAL           loaded. Number of functions:     230
 RI(R)-basis RI                loaded. Number of functions:     556
 DF-basis MP2FIT               loaded. Number of functions:     816

 Screening thresholds:   THRAO=  1.00D-10  THRMO=  1.00D-09  THRPROD=  1.00D-09
                         THRSW=  1.00D-05  THROV=  1.00D-12  THRAOF12= 1.00D-10

 CPU time for 3-index integral evaluation         5.35 sec
 CPU time for first  half transformation          0.61 sec ( 2315.9 MFLOP/sec)
 CPU time for second half transformation          0.02 sec (  601.7 MFLOP/sec)
 CPU time for sorting                             0.04 sec
 CPU time for fitting                             0.45 sec ( 4001.1 MFLOP/sec)
 CPU time for tilde quantities                    0.36 sec ( 5852.1 MFLOP/sec)
 CPU time for assembly                            1.34 sec ( 4163.6 MFLOP/sec)
 CPU time for tranop_f12                          1.23 sec ( 3887.0 MFLOP/sec)
 CPU time for f12 integrals (total)              11.75 sec, Elapsed time:     12.09 sec
 F12-matrices built in  4 passes.
 F12-matrices built in  4 passes.
 F12-matrices built in  4 passes.
 F12-matrices built in  4 passes.
 FC-matrix built in  4 passes.
 CPU time for f12 matrices (total)                0.27 sec, Elapsed time:      0.28 sec

 Diagonal F12 approximation with fixed coefficients:  TSING= 0.500,  TTRIP= 0.250 (scaled by -1/beta)

 DF-MP2-F12 energy corrections:
 ==============================
 Approx.                                    Singlet             Triplet             Total
 DF-MP2-F12/3*C(DX,FIX)                -0.016698168057     -0.001926916625     -0.018625084682
 DF-MP2-F12/3*C(FIX)                   -0.015457378281     -0.001784512575     -0.017241890856
 DF-MP2-F12/3C(FIX)                    -0.015443944912     -0.001775903727     -0.017219848639

 DF-MP2-F12 correlation energies:
 ================================
 Approx.                                    Singlet             Triplet             Ecorr            Total Energy
 DF-MP2                                -0.145450567742     -0.055067228468     -0.200517796210    -40.414702943022
 DF-MP2-F12/3*C(DX,FIX)                -0.162148735799     -0.056994145093     -0.219142880892    -40.433328027704
 DF-MP2-F12/3*C(FIX)                   -0.160907946022     -0.056851741043     -0.217759687065    -40.431944833877
 DF-MP2-F12/3C(FIX)                    -0.160894512654     -0.056843132195     -0.217737644849    -40.431922791661

 SCS-DF-MP2 energies (F_SING= 1.20000  F_TRIP= 0.62222  F_PARALLEL= 0.33333):
 ============================================================================
 SCS-DF-MP2                            -0.208804734559    -40.422989881371
 SCS-DF-MP2-F12/3*C(DX,FIX)            -0.230041506572    -40.444226653384
 SCS-DF-MP2-F12/3*C(FIX)               -0.228463951876    -40.442649098688
 SCS-DF-MP2-F12/3C(FIX)                -0.228442475217    -40.442627622029
 Symmetry transformation completed.

 Number of N-1 electron functions:               4
 Number of N-2 electron functions:              10
 Number of singly external CSFs:               900
 Number of doubly external CSFs:            405450
 Total number of CSFs:                      406351

 Pair and operator lists are different

 Length of J-op  integral file:              81.60 MB
 Length of K-op  integral file:             128.10 MB
 Length of 3-ext integral record:             0.00 MB

 Memory could be reduced to 75.63 Mwords without degradation in triples

 Integral transformation finished. Total CPU:  12.33 sec, npass=  1  Memory used:  32.52 MW

 Reference energy:                    -40.21418515

 Adding F12 terms to K(Cij), methodcc=6,  factor= 1.0

 ITER.      SQ.NORM     CORR.ENERGY   TOTAL ENERGY   ENERGY CHANGE        DEN1      VAR(S)    VAR(P)  DIIS     TIME  TIME/IT
   1      1.06946389    -0.21558673   -40.42977188    -0.01505906    -0.00938213  0.67D-03  0.94D-03  1  1    33.52     3.99
   2      1.07449094    -0.21615462   -40.43033977    -0.00056789    -0.00524338  0.16D-04  0.83D-04  2  2    37.45     4.06
   3      1.07589905    -0.21630956   -40.43049471    -0.00015494    -0.00097985  0.20D-05  0.51D-05  3  3    41.38     4.08
   4      1.07623717    -0.21632190   -40.43050705    -0.00001234    -0.00017404  0.10D-06  0.25D-06  4  4    45.38     4.09
   5      1.07628192    -0.21632064   -40.43050578     0.00000127    -0.00000984  0.77D-08  0.17D-07  5  5    49.29     4.11
   6      1.07628779    -0.21631966   -40.43050480     0.00000098    -0.00000184  0.59D-09  0.12D-08  6  6    53.04     4.10
   7      1.07628895    -0.21631933   -40.43050448     0.00000032    -0.00000073  0.40D-10  0.99D-10  6  1    56.99     4.11
   8      1.07628897    -0.21631944   -40.43050458    -0.00000010     0.00000012  0.40D-11  0.60D-11  6  3    60.93     4.10
   9      1.07628908    -0.21631942   -40.43050457     0.00000001    -0.00000007  0.34D-12  0.50D-12  6  2    64.78     4.10
  10      1.07628909    -0.21631942   -40.43050457     0.00000000     0.00000001  0.36D-13  0.49D-13  6  4    68.74     4.10
  11      1.07628909    -0.21631942   -40.43050457     0.00000000     0.00000000  0.27D-14  0.51D-14  6  5    72.67     4.10
  12      1.07628908    -0.21631942   -40.43050457     0.00000000     0.00000000  0.54D-16  0.60D-15  6  6    76.56     4.10
  13      1.07628908    -0.21631942   -40.43050457    -0.00000000     0.00000000  0.79D-17  0.65D-16  6  1    80.46     4.11
  14      1.07628908    -0.21631942   -40.43050457    -0.00000000     0.00000000  0.16D-17  0.79D-17  6  3    84.35     4.11

 Norm of t1 vector:      0.03361852      S-energy:     0.00000000      T1 diagnostic:  0.00840463
                                                                       D1 diagnostic:  0.01339519

 Adding energy correction from Wij-K(Fij), methodcc=6  factor= 1.0

  CCSD correlation energy              -0.216319419250
  MP2-F12 correction (uncoupled)       -0.017231939857
  C*T doubles correction               -0.000193010234
  f12b correction                       0.003653061414

 Total CPU time for triples:     35.07 sec

  Ecorr(MP2)                           -0.200527677985
  Ecorr(MP2-F12)                       -0.217747526624
  Scale factor for triples energy       1.085872677589


 RESULTS
 =======

  Reference energy                    -40.213274211749
  F12 singles correction               -0.000910935063

 F12 singles corrections added to reference energy

  New reference energy                -40.214185146812

  F12a singlet correction              -0.015623281506
  F12a triplet correction              -0.001801668585
  F12a total correction                -0.017424950091

 F12a corrections for ansatz F12/3C(FIX) added to CCSD energy

  CCSD-F12a singlet pair energy        -0.178526913331
  CCSD-F12a triplet pair energy        -0.055217456038
  CCSD-F12a correlation energy         -0.233744369341

  Triples (T) contribution (scaled)    -0.006802114513
  Total correlation energy             -0.240546483854

  CCSD-F12a total energy              -40.447929516153
  CCSD[T]-F12a energy                 -40.454970779165
  CCSD-T-F12a energy                  -40.454656879921
 !CCSD(T)-F12a total energy           -40.454731630666

 F12b corrections for ansatz F12/3C(FIX) added to CCSD(T)-F12a energy

  CCSD-F12b singlet pair energy        -0.175044575521
  CCSD-F12b triplet pair energy        -0.055046732434
  CCSD-F12b correlation energy         -0.230091307927

  Triples (T) contribution (scaled)    -0.006802114513
  Total correlation energy             -0.236893422440

  CCSD-F12b total energy              -40.444276454740
  CCSD[T]-F12b energy                 -40.451317717751
  CCSD-T-F12b energy                  -40.451003818507
 !CCSD(T)-F12b total energy           -40.451078569252

 Timing summary (sec):

 STEP                 CPU(USER)    SYS     CPU(TOT)    WALL
 Transformation         12.39      0.39     12.78     12.78
 CCSD iterations        54.65      2.75     57.40     57.64
 Triples                35.07      0.14     35.21     35.26
 MP2-F12                17.34      0.49     17.83     17.86
 F12b energy             3.35      0.13      3.48      3.48

 Program statistics:

 Available memory in ccsd:              1999999866
 Min. memory needed in ccsd:               1862772
 Max. memory used in ccsd:                 2158322
 Max. memory used in cckext:               1445635 (15 integral passes)



 **********************************************************************************************************************************
 DATASETS  * FILE   NREC   LENGTH (MB)   RECORD NAMES
              1      19      222.31       500      610      700      900      950      970     1000      129      960     1100   
                                          VAR    BASINP    GEOM    SYMINP    ZMAT    AOBASIS   BASIS     P2S    ABASIS      S 
                                         1400     1410     1200     1210     1080     1600     1650     1700     1380   
                                           T        V       H0       H01     AOSYM     SMH    MOLCAS    OPER     JKOP   

              2       9       13.71       700     1000      520     2100     7360     7350      200     2101     2102   
                                         GEOM     BASIS   MCVARS     RHF    F12ABS    EF12    OPTIONS    RHF      RHF  

 PROGRAMS   *        TOTAL   CCSD(T)    HF-SCF       INT   CCSD(T)    HF-SCF       INT   CCSD(T)    HF-SCF       INT
 CPU TIMES  *       842.40    123.02     12.17      0.23    132.99     13.35      0.24    531.57     14.31     14.25
 REAL TIME  *       873.53 SEC
 DISK USED  *       570.60 MB (local),        7.98 GB (total)
 SF USED    *         1.36 GB
 GA USED    *         4.87 MB       (max)       0.00 MB       (current)
 **********************************************************************************************************************************
 Molecular orbitals read from record     2102.2  Type=RHF/CANONICAL (state 1.1)
 Occupation numbers read from record     2102.2  Type=RHF/RHF (state 1.1)
 Orbital energies read from record       2102.2  Type=RHF/CANONICAL (state 1.1)
 Redundancy group numbers read from rec  2102.2  Type=RHF/RHF (state 1.1)

 CCSD(T)-F12/aug-cc-pVTZ energy=    -40.451078569252

     CCSD(T)-F12          HF-SCF     CCSD(T)-F12          HF-SCF     CCSD(T)-F12          HF-SCF
    -40.45107857    -40.21327421    -76.36254696    -76.05827409   -116.81441127   -116.27133700
 **********************************************************************************************************************************
 Molpro calculation terminated
