
 Primary working directories    : /scratch/klimes/383155/molpro.TDAMaQrJFA
 Secondary working directories  : /scratch/klimes/383155/molpro.TDAMaQrJFA
 Wavefunction directory         : /scratch/klimes/383155/
 Main file repository           : /scratch/klimes/383155/molpro.TDAMaQrJFA/

 id        : karlovklimes

 Nodes                      nprocs
 nc-01.cc.karlov.mff.cuni.cz    4

 Using customized tuning parameters: mindgm=1; mindgv=20; mindgc=4; mindgr=1; noblas=0; minvec=7
 default implementation of scratch files=sf  


 Variables initialized (930), CPU time= 0.01 sec
                                                                                 !gdirect
 memory,2000,m
 gthresh,orbital=1d-10,energy=1d-10,grid=1d-8
 
 symmetry,nosym
 angstrom
 geometry={
 O8        -2.441500000000      2.874300000000     -2.185500000000
 H15        -3.121200000000      3.446800000000     -1.780300000000
 H16        -2.892600000000      2.018700000000     -2.335200000000
 C1        -3.277200000000      1.482500000000      1.271900000000
 H41        -2.464000000000      0.899600000000      1.651000000000
 H42        -3.160800000000      2.501000000000      1.578500000000
 H43        -4.201800000000      1.099200000000      1.650100000000
 H44        -3.268500000000      1.421000000000      0.203700000000
 }
 
 nkerna=1
 nkernb=1
 
 gf=0
 sing=1
 thrdum=1d-4
 gridthr=1d-8
 
 basis={
 set,orbital
 default,avtz
 set,jkfit
 default,avqz/jkfit
 set,mp2fit
 default,avqz/mp2fit
 set,ri
 default,avqz/optri
 set,tddft
 default,avqz/mp2fit
 }
 
 proc set_monomer1
 dummy,4,5,6,7,8
 endproc
 
 proc set_monomer2
 dummy,1,2,3
 endproc
 
                                                                                 !12 energy
 {hf,accu=1.d-16}
 {ccsd(t)-f12,df_basis=mp2fit,df_basis_exch=jkfit,ri_basis=ri,scale_trip=1,THRAOF12=1d-10}
 
 set_monomer1
 {hf,accu=1.d-16}
 {ccsd(t)-f12,df_basis=mp2fit,df_basis_exch=jkfit,ri_basis=ri,scale_trip=1,THRAOF12=1d-10}
 
 set_monomer2
 {hf,accu=1.d-16}
 {ccsd(t)-f12,df_basis=mp2fit,df_basis_exch=jkfit,ri_basis=ri,scale_trip=1,THRAOF12=1d-10}
 
 Commands  initialized (760), CPU time= 0.01 sec, 617 directives.
 Default parameters read. Elapsed time= 0.20 sec

 Checking input...
 Passed
1


                                         ***  PROGRAM SYSTEM MOLPRO  ***
                                       Copyright, TTI GmbH Stuttgart, 2015
                                    Version 2019.1 linked Jan 14 2019 13:09:19


 **********************************************************************************************************************************
 LABEL *                                                                                 
  64 bit mpp version                                                                     DATE: 11-Mar-20          TIME: 16:14:53  
 **********************************************************************************************************************************

 SHA1:             d688ac825633d238f2093ded1675ba87ccd55965
 **********************************************************************************************************************************

 THRESHOLDS:

 ZERO    =  1.00D-12  ONEINT  =  1.00D-12  TWOINT  =  1.00D-11  PREFAC  =  1.00D-14  XXXXXX  =  1.00D-09  EORDER  =  1.00D-04
 ENERGY  =  1.00D-10  ETEST   =  0.00D+00  EDENS   =  0.00D+00  THRDEDEF=  1.00D-06  GRADIENT=  1.00D-02  STEP    =  1.00D-03
 ORBITAL =  1.00D-10  CIVEC   =  1.00D-05  COEFF   =  1.00D-04  PRINTCI =  5.00D-02  PUNCHCI =  9.90D+01  OPTGRAD =  3.00D-04
 OPTENERG=  1.00D-06  OPTSTEP =  3.00D-04  THRGRAD =  1.00D-10  COMPRESS=  1.00D-11  VARMIN  =  1.00D-07  VARMAX  =  1.00D-03
 THRDOUB =  0.00D+00  THRDIV  =  1.00D-05  THRRED  =  1.00D-07  THRPSP  =  1.00D+00  THRDC   =  1.00D-10  THRCS   =  1.00D-10
 THRNRM  =  1.00D-08  THREQ   =  0.00D+00  THRDE   =  1.00D+00  THRREF  =  1.00D-05  SPARFAC =  1.00D+00  THRDLP  =  1.00D-07
 THRDIA  =  1.00D-10  THRDLS  =  1.00D-07  THRGPS  =  0.00D+00  THRKEX  =  0.00D+00  THRDIS  =  2.00D-01  THRVAR  =  1.00D-10
 THRLOC  =  1.00D-06  THRGAP  =  1.00D-06  THRLOCT = -1.00D+00  THRGAPT = -1.00D+00  THRORB  =  1.00D-06  THRMLTP =  0.00D+00
 THRCPQCI=  1.00D-10  KEXTA   =  0.00D+00  THRCOARS=  0.00D+00  SYMTOL  =  1.00D-06  GRADTOL =  1.00D-06  THROVL  =  1.00D-08
 THRORTH =  1.00D-08  GRID    =  1.00D-08  GRIDMAX =  1.00D-03  DTMAX   =  0.00D+00  THROCCDE=  1.00D-01  THROCCDE=  1.00D-01
 THRPRINT=  2.50D-01


 Variable memory set to 2000000000 words,  buffer space 

 ZSYMEL=NOSYM
 ZUNIT=ANG


Geometry recognized as XYZ

 SETTING NKERNA         =         1.00000000                                  
 SETTING NKERNB         =         1.00000000                                  
 SETTING GF             =     0.00000000D+00                                  
 SETTING SING           =         1.00000000                                  
 SETTING THRDUM         =     1.00000000D-04                                  
 SETTING GRIDTHR        =     1.00000000D-08                                  
 SETTING BASIS          =    AVTZ


 Recomputing integrals since basis changed


 Using spherical harmonics

 Library entry O      S aug-cc-pVTZ          selected for orbital group  1
 Library entry O      P aug-cc-pVTZ          selected for orbital group  1
 Library entry O      D aug-cc-pVTZ          selected for orbital group  1
 Library entry O      F aug-cc-pVTZ          selected for orbital group  1
 Library entry H      S aug-cc-pVTZ          selected for orbital group  2
 Library entry H      P aug-cc-pVTZ          selected for orbital group  2
 Library entry H      D aug-cc-pVTZ          selected for orbital group  2
 Library entry C      S aug-cc-pVTZ          selected for orbital group  3
 Library entry C      P aug-cc-pVTZ          selected for orbital group  3
 Library entry C      D aug-cc-pVTZ          selected for orbital group  3
 Library entry C      F aug-cc-pVTZ          selected for orbital group  3


 PROGRAM * SEWARD (Integral evaluation for generally contracted gaussian basis sets)     Author: Roland Lindh, 1990

 Geometry written to block  1 of record 700


 Point group  C1  



 ATOMIC COORDINATES

 NR  ATOM    CHARGE       X              Y              Z

   1  O8      8.00   -4.613766333    5.431639800   -4.129996445
   2  H15     1.00   -5.898213180    6.513508006   -3.364279420
   3  H16     1.00   -5.466221788    3.814790128   -4.412888446
   4  C1      6.00   -6.193010455    2.801518980    2.403542658
   5  H41     1.00   -4.656285171    1.699997622    3.119937832
   6  H42     1.00   -5.973046335    4.726205038    2.982932688
   7  H43     1.00   -7.940251230    2.077186956    3.118237078
   8  H44     1.00   -6.176569838    2.685300823    0.384937212

 Bond lengths in Bohr (Angstrom)

 1-2  1.845688241  1-3  1.849570504  4-5  2.021904040  4-6  2.022002335  4-7  2.021953343
     ( 0.976696155)     ( 0.978750561)     ( 1.069945541)     ( 1.069997556)     ( 1.069971630)

 4-8  2.022015060
     ( 1.070004290)

 Bond angles

  2-1-3  104.78050181   5-4-6  109.53398059   5-4-7  109.65604535   5-4-8  108.43490854

  6-4-7  109.49436728   6-4-8  109.86987750   7-4-8  109.83468330

 NUCLEAR CHARGE:                   20
 NUMBER OF PRIMITIVE AOS:         296
 NUMBER OF SYMMETRY AOS:          266
 NUMBER OF CONTRACTIONS:          230   (  230A   )
 NUMBER OF CORE ORBITALS:           2   (    2A   )
 NUMBER OF VALENCE ORBITALS:       14   (   14A   )


 NUCLEAR REPULSION ENERGY   36.70371194


 Basis set:  JKFIT                   
 Basis size:   740
 Attributes:
 Sphericals:   T
 Basis set:  MP2FIT                  
 Basis size:   816
 Attributes:
 Sphericals:   T
 Basis set:  RI                      
 Basis size:   556
 Attributes:
 Sphericals:   T
 Basis set:  TDDFT                   
 Basis size:   816
 Attributes:
 Sphericals:   T

 **********************************************************************************************************************************


 Eigenvalues of metric

         1 0.447E-04 0.772E-04 0.100E-03 0.104E-03 0.335E-03 0.376E-03 0.528E-03 0.687E-03


 Contracted 2-electron integrals neglected if value below      1.0D-14
 AO integral compression algorithm  1   Integral accuracy      1.0D-14

     2200.699 MB (compressed) written to integral file ( 68.6%)

     Node minimum: 505.676 MB, node maximum: 594.543 MB


 NUMBER OF SORTED TWO-ELECTRON INTEGRALS:   88219044.     BUFFER LENGTH:  32768
 NUMBER OF SEGMENTS:   6  SEGMENT LENGTH:   15998348      RECORD LENGTH: 524288

 Memory used in sort:      16.56 MW

 SORT1 READ   400769927. AND WROTE    82057986. INTEGRALS IN    237 RECORDS. CPU TIME:     7.51 SEC, REAL TIME:     8.53 SEC
 SORT2 READ   328379172. AND WROTE   352862895. INTEGRALS IN   8344 RECORDS. CPU TIME:     2.41 SEC, REAL TIME:     3.29 SEC

 Node minimum:    88205762.  Node maximum:    88225686. integrals

 OPERATOR DM      FOR CENTER  0  COORDINATES:    0.000000    0.000000    0.000000


 **********************************************************************************************************************************
 DATASETS  * FILE   NREC   LENGTH (MB)   RECORD NAMES
              1      18       32.04       500      610      700      900      950      970     1000      129      960     1100   
                                          VAR    BASINP    GEOM    SYMINP    ZMAT    AOBASIS   BASIS     P2S    ABASIS      S 
                                         1400     1410     1200     1210     1080     1600     1650     1700   
                                           T        V       H0       H01     AOSYM     SMH    MOLCAS    OPER   

 PROGRAMS   *        TOTAL       INT
 CPU TIMES  *        15.03     14.81
 REAL TIME  *        20.38 SEC
 DISK USED  *        32.49 MB (local),        6.23 GB (total)
 GA USED    *         0.00 MB       (max)       0.00 MB       (current)
 **********************************************************************************************************************************


 PROGRAM * RHF-SCF (CLOSED SHELL)       Authors: W. Meyer, H.-J. Werner


 NUMBER OF ELECTRONS:      10+   10-    SPACE SYMMETRY=1    SPIN SYMMETRY: Singlet 
 CONVERGENCE THRESHOLDS:    1.00E-08 (Density)    1.00E-11 (Energy)
 MAX. NUMBER OF ITERATIONS:       60
 INTERPOLATION TYPE:            DIIS
 INTERPOLATION STEPS:              2 (START)      1 (STEP)
 LEVEL SHIFTS:                  0.00 (CLOSED)  0.00 (OPEN) 



 Orbital guess generated from atomic densities. Full valence occupancy:   16

 Molecular orbital dump at record        2100.2

 Initial occupancy:  10

 ITERATION    DDIFF          GRAD             ENERGY        2-EL.EN.            DIPOLE MOMENTS         DIIS   ORB.
    1      0.000D+00      0.000D+00      -116.21307869    158.757149   -1.08726   -0.27429    0.24234    0    start
    2      0.000D+00      0.522D-02      -116.25701954    153.976269   -0.59564   -0.15444    0.16336    1    diag
    3      0.554D-02      0.306D-02      -116.27030543    155.976650   -0.72195   -0.18513    0.18185    2    diag
    4      0.183D-02      0.455D-03      -116.27095893    155.864963   -0.71263   -0.18283    0.17842    3    diag
    5      0.404D-03      0.133D-03      -116.27102637    155.859773   -0.71238   -0.18302    0.17878    4    diag
    6      0.147D-03      0.326D-04      -116.27103020    155.865649   -0.71170   -0.18302    0.17875    5    diag
    7      0.420D-04      0.640D-05      -116.27103043    155.864074   -0.71175   -0.18307    0.17881    6    diag
    8      0.117D-04      0.162D-05      -116.27103045    155.864224   -0.71169   -0.18307    0.17883    7    diag
    9      0.247D-05      0.360D-06      -116.27103045    155.864196   -0.71167   -0.18307    0.17883    8    diag
   10      0.805D-06      0.436D-07      -116.27103045    155.864198   -0.71166   -0.18307    0.17883    9    orth
   11      0.658D-07      0.120D-07      -116.27103045    155.864199   -0.71166   -0.18307    0.17883    9    diag
   12      0.262D-07      0.346D-08      -116.27103045    155.864198   -0.71166   -0.18307    0.17883    9    diag
   13      0.525D-08      0.926D-09      -116.27103045    155.864199   -0.71166   -0.18307    0.17883    0    orth

 Final occupancy:  10

 !RHF STATE  1.1 Energy              -116.271030449167
 Nuclear energy                        36.70371194
 One-electron energy                 -230.90684180
 Two-electron energy                   77.93209941
 Virial quotient                       -1.00103760
 !RHF STATE  1.1 Dipole moment         -0.71166489    -0.18306825     0.17883488
 Dipole moment /Debye                  -1.80875325    -0.46528261     0.45452316

 Orbital energies:

         1.1          2.1          3.1          4.1          5.1          6.1          7.1          8.1          9.1         10.1
    -20.570377   -11.199845    -1.343220    -0.953524    -0.707330    -0.581356    -0.554850    -0.552519    -0.550923    -0.507377

        11.1         12.1
      0.026409     0.043515


 HOMO     10.1    -0.507377 =     -13.8064eV
 LUMO     11.1     0.026409 =       0.7186eV
 LUMO-HOMO         0.533786 =      14.5251eV


 **********************************************************************************************************************************
 DATASETS  * FILE   NREC   LENGTH (MB)   RECORD NAMES
              1      18       32.04       500      610      700      900      950      970     1000      129      960     1100   
                                          VAR    BASINP    GEOM    SYMINP    ZMAT    AOBASIS   BASIS     P2S    ABASIS      S 
                                         1400     1410     1200     1210     1080     1600     1650     1700   
                                           T        V       H0       H01     AOSYM     SMH    MOLCAS    OPER   

              2       4        3.96       700     1000      520     2100   
                                         GEOM     BASIS   MCVARS     RHF  

 PROGRAMS   *        TOTAL    HF-SCF       INT
 CPU TIMES  *        29.43     14.40     14.81
 REAL TIME  *        36.22 SEC
 DISK USED  *        39.90 MB (local),        6.26 GB (total)
 SF USED    *         0.21 MB
 GA USED    *         0.00 MB       (max)       0.00 MB       (current)
 **********************************************************************************************************************************

 Basis set:  JKFIT                   
 Basis size:   740
 Attributes:
 Sphericals:   T
 Basis set:  MP2FIT                  
 Basis size:   816
 Attributes:
 Sphericals:   T
 Basis set:  RI                      
 Basis size:   556
 Attributes:
 Sphericals:   T
 Basis set:  TDDFT                   
 Basis size:   816
 Attributes:
 Sphericals:   T

 PROGRAM * CCSD (Closed-shell coupled cluster)     Authors: C. Hampel, H.-J. Werner, 1991, M. Deegan, P.J. Knowles, 1992

                                  CCSD-F12 implementation by  H.-J. Werner, 2007

                   Density fitting integral evaluation by F.R. Manby, 2003,2007, G. Knizia, 2010



 Convergence thresholds:  THRVAR = 1.00D-08  THRDEN = 1.00D-10

 CCSD(T)     terms to be evaluated (factor= 1.000)


 Number of core orbitals:           2 (   2 )
 Number of closed-shell orbitals:   8 (   8 )
 Number of external orbitals:     220 ( 220 )

 Molecular orbitals read from record     2100.2  Type=RHF/CANONICAL (state 1.1)

 MP2-F12 correlation treatment (H.-J. Werner, 2006)
 ==================================================

 Using MP2-F12 with ansatz 3C(FIX)

 Using projected zeroth-order Hamiltonian (+Z)

 FOCKRIB=T FOCKRIC=T FOCKRIP=T CABSP=T CABSA=T CABSK=T CABSF=T GBC=F EBC=F DMAT=T NOFIK=T NOPAO=1 SOLVE=-1  USEPAO=0
 EXCH_A= T EXCH_B= F EXCH_C= F EXCH_P= F

 Geminal basis:    OPTFULL  GEM_TYPE=SLATER  BETA=1.0  NGEM=6

 Optimizing Gaussian exponents for each gem_beta

 Geminal optimization for beta= 1.0000
 Weight function:   m=0, omega= 1.4646

 Augmented Hessian optimization of geminal fit. Trust ratio= 0.40000
 Convergence reached after   2 iterations. Final gradient= 7.85D-16, Step= 4.26D-06, Delta= 1.28D-09

 Alpha:                 0.19532     0.81920     2.85917     9.50073    35.69989   197.79328
 Coeff:                 0.27070     0.30552     0.18297     0.10986     0.06810     0.04224


 All pairs explicitly correlated. Number of r12-pairs:           36

 Excluding core orbitals from MO domains

 AO(A)-basis ORBITAL           loaded. Number of functions:     230
 RI(R)-basis RI                loaded. Number of functions:     556
 DF-basis JKFIT                loaded. Number of functions:     740

 Screening thresholds:   THRAO=  1.00D-10  THRMO=  1.00D-09  THRPROD=  1.00D-09
                         THRSW=  1.00D-05  THROV=  1.00D-12  THRAOF12= 1.00D-10

 CPU time for Fock operators                      3.73 sec

 Construction of ABS:
 Smallest eigenvalue of S          1.15E-04  (threshold= 1.00E-08)
 Ratio eigmin/eigmax               1.63E-05  (threshold= 1.00E-09)
 Smallest eigenvalue of S kept     1.15E-04  (threshold= 1.15E-04, 0 functions deleted, 556 kept)

 Construction of CABS:
 Smallest eigenvalue of S          5.50E-07  (threshold= 1.00E-08)
 Ratio eigmin/eigmax               5.50E-07  (threshold= 1.00E-09)
 Smallest eigenvalue of S kept     5.50E-07  (threshold= 5.50E-07, 0 functions deleted, 556 kept)

 CPU time for CABS singles                        0.68 sec

 CABS-singles contribution of  -0.00237751 patched into reference energy.
 New reference energy        -116.27340796

 AO(A)-basis ORBITAL           loaded. Number of functions:     230
 RI(R)-basis RI                loaded. Number of functions:     556
 DF-basis MP2FIT               loaded. Number of functions:     816

 Screening thresholds:   THRAO=  1.00D-10  THRMO=  1.00D-09  THRPROD=  1.00D-09
                         THRSW=  1.00D-05  THROV=  1.00D-12  THRAOF12= 1.00D-10

 CPU time for 3-index integral evaluation         5.48 sec
 CPU time for first  half transformation          1.20 sec ( 2531.7 MFLOP/sec)
 CPU time for second half transformation          0.04 sec ( 1254.9 MFLOP/sec)
 CPU time for sorting                             0.08 sec
 CPU time for fitting                             0.50 sec ( 4346.7 MFLOP/sec)
 CPU time for tilde quantities                    0.64 sec ( 4311.4 MFLOP/sec)
 CPU time for assembly                            4.70 sec ( 4214.1 MFLOP/sec)
 CPU time for tranop_f12                          4.44 sec ( 4299.8 MFLOP/sec)
 CPU time for f12 integrals (total)              23.94 sec, Elapsed time:     25.02 sec
 F12-matrices built in  4 passes.
 F12-matrices built in  4 passes.
 F12-matrices built in  4 passes.
 F12-matrices built in  4 passes.
 FC-matrix built in  4 passes.
 CPU time for f12 matrices (total)                1.20 sec, Elapsed time:      1.24 sec

 Diagonal F12 approximation with fixed coefficients:  TSING= 0.500,  TTRIP= 0.250 (scaled by -1/beta)

 DF-MP2-F12 energy corrections:
 ==============================
 Approx.                                    Singlet             Triplet             Total
 DF-MP2-F12/3*C(DX,FIX)                -0.046191568387     -0.006803660210     -0.052995228597
 DF-MP2-F12/3*C(FIX)                   -0.039875433708     -0.005611401874     -0.045486835582
 DF-MP2-F12/3C(FIX)                    -0.039994812810     -0.005578171609     -0.045572984419

 DF-MP2-F12 correlation energies:
 ================================
 Approx.                                    Singlet             Triplet             Ecorr            Total Energy
 DF-MP2                                -0.317492182341     -0.153976943024     -0.471469125365   -116.744877088039
 DF-MP2-F12/3*C(DX,FIX)                -0.363683750728     -0.160780603234     -0.524464353962   -116.797872316636
 DF-MP2-F12/3*C(FIX)                   -0.357367616049     -0.159588344897     -0.516955960946   -116.790363923621
 DF-MP2-F12/3C(FIX)                    -0.357486995151     -0.159555114633     -0.517042109784   -116.790450072458

 SCS-DF-MP2 energies (F_SING= 1.20000  F_TRIP= 0.62222  F_PARALLEL= 0.33333):
 ============================================================================
 SCS-DF-MP2                            -0.476798494468   -116.750206457143
 SCS-DF-MP2-F12/3*C(DX,FIX)            -0.536461765108   -116.809869727782
 SCS-DF-MP2-F12/3*C(FIX)               -0.528140553862   -116.801548516536
 SCS-DF-MP2-F12/3C(FIX)                -0.528263132175   -116.801671094849
 Symmetry transformation completed.

 Number of N-1 electron functions:               8
 Number of N-2 electron functions:              36
 Number of singly external CSFs:              1760
 Number of doubly external CSFs:           1549680
 Total number of CSFs:                     1551441

 Pair and operator lists are different

 Length of J-op  integral file:             315.61 MB
 Length of K-op  integral file:             368.50 MB
 Length of 3-ext integral record:             0.00 MB

 Memory could be reduced to 116.32 Mwords without degradation in triples

 Integral transformation finished. Total CPU:  25.72 sec, npass=  1  Memory used:  59.34 MW

 Reference energy:                   -116.27340796

 Adding F12 terms to K(Cij), methodcc=6,  factor= 1.0

 ITER.      SQ.NORM     CORR.ENERGY   TOTAL ENERGY   ENERGY CHANGE        DEN1      VAR(S)    VAR(P)  DIIS     TIME  TIME/IT
   1      1.13209596    -0.48613448  -116.75954245    -0.01464818    -0.00301579  0.15D-02  0.20D-02  1  1    72.33    15.03
   2      1.14034990    -0.48640162  -116.75980958    -0.00026713    -0.00971427  0.28D-04  0.23D-03  2  2    87.51    15.27
   3      1.14322255    -0.48665979  -116.76006775    -0.00025817    -0.00195916  0.13D-04  0.12D-04  3  3   102.77    15.34
   4      1.14409502    -0.48671420  -116.76012216    -0.00005441    -0.00048051  0.53D-06  0.11D-05  4  4   118.02    15.39
   5      1.14424191    -0.48670894  -116.76011690     0.00000526    -0.00004003  0.21D-06  0.78D-07  5  5   133.30    15.43
   6      1.14428314    -0.48670589  -116.76011385     0.00000305    -0.00000626  0.19D-07  0.61D-08  6  6   148.47    15.44
   7      1.14429301    -0.48670515  -116.76011312     0.00000074    -0.00000259  0.18D-08  0.10D-08  6  2   163.70    15.47
   8      1.14429528    -0.48670501  -116.76011297     0.00000014    -0.00000034  0.36D-09  0.11D-09  6  1   178.96    15.48
   9      1.14429610    -0.48670509  -116.76011306    -0.00000008     0.00000001  0.33D-10  0.16D-10  6  3   194.30    15.49
  10      1.14429629    -0.48670508  -116.76011305     0.00000001     0.00000003  0.39D-11  0.23D-11  6  4   209.62    15.51
  11      1.14429623    -0.48670509  -116.76011305    -0.00000001     0.00000008  0.73D-12  0.31D-12  6  5   224.86    15.52
  12      1.14429621    -0.48670509  -116.76011305    -0.00000000     0.00000002  0.14D-12  0.43D-13  6  6   240.16    15.52
  13      1.14429618    -0.48670509  -116.76011305     0.00000000     0.00000001  0.22D-13  0.67D-14  6  2   255.76    15.55
  14      1.14429618    -0.48670509  -116.76011306    -0.00000000     0.00000000  0.31D-14  0.13D-14  6  1   271.90    15.63
  15      1.14429617    -0.48670509  -116.76011306    -0.00000000    -0.00000000  0.37D-15  0.17D-15  6  3   287.31    15.63
  16      1.14429617    -0.48670509  -116.76011306     0.00000000    -0.00000000  0.72D-16  0.26D-16  6  4   302.99    15.66
  17      1.14429617    -0.48670509  -116.76011306     0.00000000    -0.00000000  0.18D-16  0.52D-17  6  5   318.52    15.67

 Norm of t1 vector:      0.05068996      S-energy:     0.00000000      T1 diagnostic:  0.00896080
                                                                       D1 diagnostic:  0.01923939

 Adding energy correction from Wij-K(Fij), methodcc=6  factor= 1.0

  CCSD correlation energy              -0.486705092671
  MP2-F12 correction (uncoupled)       -0.045315398372
  C*T doubles correction               -0.000606941090
  f12b correction                       0.008418041537


 Total CPU time for triples:    232.34 sec

  Ecorr(MP2)                           -0.471486306045
  Ecorr(MP2-F12)                       -0.517059290465
  Scale factor for triples energy       1.096658129483


 RESULTS
 =======

  Reference energy                   -116.271030449168
  F12 singles correction               -0.002377513506

 F12 singles corrections added to reference energy

  New reference energy               -116.273407962674

  F12a singlet correction              -0.040249577186
  F12a triplet correction              -0.005672762276
  F12a total correction                -0.045922339462

 F12a corrections for ansatz F12/3C(FIX) added to CCSD energy

  CCSD-F12a singlet pair energy        -0.386088989694
  CCSD-F12a triplet pair energy        -0.146538442575
  CCSD-F12a correlation energy         -0.532627432133

  Triples (T) contribution (scaled)    -0.016521648163
  Total correlation energy             -0.549149080296

  CCSD-F12a total energy             -116.806035394807
  CCSD[T]-F12a energy                -116.823149992507
  CCSD-T-F12a energy                 -116.822336299134
 !CCSD(T)-F12a total energy          -116.822557042970

 F12b corrections for ansatz F12/3C(FIX) added to CCSD(T)-F12a energy

  CCSD-F12b singlet pair energy        -0.378202306127
  CCSD-F12b triplet pair energy        -0.146007084605
  CCSD-F12b correlation energy         -0.524209390596

  Triples (T) contribution (scaled)    -0.016521648163
  Total correlation energy             -0.540731038759

  CCSD-F12b total energy             -116.797617353270
  CCSD[T]-F12b energy                -116.814731950970
  CCSD-T-F12b energy                 -116.813918257597
 !CCSD(T)-F12b total energy          -116.814139001433

 Timing summary (sec):

 STEP                 CPU(USER)    SYS     CPU(TOT)    WALL
 Transformation         25.91      1.21     27.12     27.14
 CCSD iterations       261.08      4.98    266.06    266.43
 Triples               232.34      1.23    233.57    233.86
 MP2-F12                31.56      1.28     32.84     32.89
 F12b energy            11.78      0.09     11.87     11.88

 Program statistics:

 Available memory in ccsd:              1999999554
 Min. memory needed in ccsd:               4597329
 Max. memory used in ccsd:                 5918289
 Max. memory used in cckext:               4231061 (18 integral passes)



 **********************************************************************************************************************************
 DATASETS  * FILE   NREC   LENGTH (MB)   RECORD NAMES
              1      19      398.06       500      610      700      900      950      970     1000      129      960     1100   
                                          VAR    BASINP    GEOM    SYMINP    ZMAT    AOBASIS   BASIS     P2S    ABASIS      S 
                                         1400     1410     1200     1210     1080     1600     1650     1700     1380   
                                           T        V       H0       H01     AOSYM     SMH    MOLCAS    OPER     JKOP   

              2       6        5.03       700     1000      520     2100     7360     7350   
                                         GEOM     BASIS   MCVARS     RHF    F12ABS    EF12   

 PROGRAMS   *        TOTAL   CCSD(T)    HF-SCF       INT
 CPU TIMES  *       592.31    562.87     14.40     14.81
 REAL TIME  *       609.34 SEC
 DISK USED  *       570.60 MB (local),        7.88 GB (total)
 SF USED    *         1.35 GB
 GA USED    *         4.87 MB       (max)       0.00 MB       (current)
 **********************************************************************************************************************************

 Running procedure: SET_MONOMER1

 Dummy atoms: C1  H41  H42  H43  H44


 Recomputing one-electron integrals since nuclear charges changed


 PROGRAM * SEWARD (Integral evaluation for generally contracted gaussian basis sets)     Author: Roland Lindh, 1990

 Geometry written to block  1 of record 700


 Point group  C1  



 ATOMIC COORDINATES

 NR  ATOM    CHARGE       X              Y              Z

   1  O8      8.00   -4.613766333    5.431639800   -4.129996445
   2  H15     1.00   -5.898213180    6.513508006   -3.364279420
   3  H16     1.00   -5.466221788    3.814790128   -4.412888446
   4  C1      0.00   -6.193010455    2.801518980    2.403542658
   5  H41     0.00   -4.656285171    1.699997622    3.119937832
   6  H42     0.00   -5.973046335    4.726205038    2.982932688
   7  H43     0.00   -7.940251230    2.077186956    3.118237078
   8  H44     0.00   -6.176569838    2.685300823    0.384937212

 Bond lengths in Bohr (Angstrom)

 1-2  1.845688241  1-3  1.849570504  4-5  2.021904040  4-6  2.022002335  4-7  2.021953343
     ( 0.976696155)     ( 0.978750561)     ( 1.069945541)     ( 1.069997556)     ( 1.069971630)

 4-8  2.022015060
     ( 1.070004290)

 Bond angles

  2-1-3  104.78050181   5-4-6  109.53398059   5-4-7  109.65604535   5-4-8  108.43490854

  6-4-7  109.49436728   6-4-8  109.86987750   7-4-8  109.83468330

 NUCLEAR CHARGE:                   10
 NUMBER OF PRIMITIVE AOS:         296
 NUMBER OF SYMMETRY AOS:          266
 NUMBER OF CONTRACTIONS:          230   (  230A   )
 NUMBER OF CORE ORBITALS:           1   (    1A   )
 NUMBER OF VALENCE ORBITALS:        6   (    6A   )

 MOLECULE CHANGED: INITIALIZING OCCUPATION AND DUMP RECORDS


 NUCLEAR REPULSION ENERGY    9.00136291

 Basis set:  JKFIT                   
 Basis size:   740
 Attributes:
 Sphericals:   T
 Basis set:  MP2FIT                  
 Basis size:   816
 Attributes:
 Sphericals:   T
 Basis set:  RI                      
 Basis size:   556
 Attributes:
 Sphericals:   T
 Basis set:  TDDFT                   
 Basis size:   816
 Attributes:
 Sphericals:   T

 Eigenvalues of metric

         1 0.447E-04 0.772E-04 0.100E-03 0.104E-03 0.335E-03 0.376E-03 0.528E-03 0.687E-03


 Contracted 2-electron integrals neglected if value below      1.0D-14

 OPERATOR DM      FOR CENTER  0  COORDINATES:    0.000000    0.000000    0.000000


 **********************************************************************************************************************************
 DATASETS  * FILE   NREC   LENGTH (MB)   RECORD NAMES
              1      18       32.04       500      610      700      900      950      970     1000      129      960     1100   
                                          VAR    BASINP    GEOM    SYMINP    ZMAT    AOBASIS   BASIS     P2S    ABASIS      S 
                                         1400     1410     1200     1210     1080     1600     1650     1700   
                                           T        V       H0       H01     AOSYM     SMH    MOLCAS    OPER   

              2       7        5.05       700     1000      520     2100     7360     7350      200   
                                         GEOM     BASIS   MCVARS     RHF    F12ABS    EF12    OPTIONS    

 PROGRAMS   *        TOTAL       INT   CCSD(T)    HF-SCF       INT
 CPU TIMES  *       592.54      0.22    562.87     14.40     14.81
 REAL TIME  *       610.12 SEC
 DISK USED  *       570.60 MB (local),        7.88 GB (total)
 SF USED    *         1.35 GB
 GA USED    *         4.87 MB       (max)       0.00 MB       (current)
 **********************************************************************************************************************************


 PROGRAM * RHF-SCF (CLOSED SHELL)       Authors: W. Meyer, H.-J. Werner


 NUMBER OF ELECTRONS:       5+    5-    SPACE SYMMETRY=1    SPIN SYMMETRY: Singlet 
 CONVERGENCE THRESHOLDS:    1.00E-08 (Density)    1.00E-11 (Energy)
 MAX. NUMBER OF ITERATIONS:       60
 INTERPOLATION TYPE:            DIIS
 INTERPOLATION STEPS:              2 (START)      1 (STEP)
 LEVEL SHIFTS:                  0.00 (CLOSED)  0.00 (OPEN) 



 Orbital guess generated from atomic densities. Full valence occupancy:    7

 Molecular orbital dump at record        2101.2

 Initial occupancy:   5

 ITERATION    DDIFF          GRAD             ENERGY        2-EL.EN.            DIPOLE MOMENTS         DIIS   ORB.
    1      0.000D+00      0.000D+00       -76.02025919     77.378026   -1.09441   -0.27467    0.24690    0    start
    2      0.000D+00      0.640D-02       -76.04693854     73.751362   -0.63644   -0.15911    0.14361    1    diag
    3      0.447D-02      0.408D-02       -76.05831174     75.355931   -0.75010   -0.18767    0.16931    2    diag
    4      0.161D-02      0.376D-03       -76.05850249     75.266418   -0.74578   -0.18646    0.16837    3    diag
    5      0.205D-03      0.105D-03       -76.05852256     75.280650   -0.74415   -0.18601    0.16802    4    diag
    6      0.639D-04      0.204D-04       -76.05852380     75.279772   -0.74385   -0.18592    0.16795    5    diag
    7      0.165D-04      0.403D-05       -76.05852386     75.279899   -0.74373   -0.18588    0.16793    6    diag
    8      0.461D-05      0.738D-06       -76.05852387     75.279885   -0.74370   -0.18587    0.16792    7    diag
    9      0.767D-06      0.929D-07       -76.05852387     75.279875   -0.74369   -0.18587    0.16792    8    diag
   10      0.897D-07      0.226D-07       -76.05852387     75.279879   -0.74369   -0.18587    0.16792    9    orth
   11      0.232D-07      0.413D-08       -76.05852387     75.279878   -0.74369   -0.18587    0.16792    9    diag
   12      0.488D-08      0.603D-09       -76.05852387     75.279878   -0.74369   -0.18587    0.16792    0    orth

 Final occupancy:   5

 !RHF STATE  1.1 Energy               -76.058523865330
 Nuclear energy                         9.00136291
 One-electron energy                 -122.69982593
 Two-electron energy                   37.63993916
 Virial quotient                       -1.00236035
 !RHF STATE  1.1 Dipole moment         -0.74369417    -0.18587242     0.16792039
 Dipole moment /Debye                  -1.89015823    -0.47240963     0.42678310

 Orbital energies:

         1.1          2.1          3.1          4.1          5.1          6.1          7.1
    -20.570611    -1.343052    -0.707220    -0.580470    -0.508621     0.019827     0.040982


 HOMO      5.1    -0.508621 =     -13.8403eV
 LUMO      6.1     0.019827 =       0.5395eV
 LUMO-HOMO         0.528449 =      14.3798eV


 **********************************************************************************************************************************
 DATASETS  * FILE   NREC   LENGTH (MB)   RECORD NAMES
              1      18       32.04       500      610      700      900      950      970     1000      129      960     1100   
                                          VAR    BASINP    GEOM    SYMINP    ZMAT    AOBASIS   BASIS     P2S    ABASIS      S 
                                         1400     1410     1200     1210     1080     1600     1650     1700   
                                           T        V       H0       H01     AOSYM     SMH    MOLCAS    OPER   

              2       8        9.09       700     1000      520     2100     7360     7350      200     2101   
                                         GEOM     BASIS   MCVARS     RHF    F12ABS    EF12    OPTIONS    RHF  

 PROGRAMS   *        TOTAL    HF-SCF       INT   CCSD(T)    HF-SCF       INT
 CPU TIMES  *       606.11     13.56      0.22    562.87     14.40     14.81
 REAL TIME  *       624.79 SEC
 DISK USED  *       570.60 MB (local),        7.88 GB (total)
 SF USED    *         1.35 GB
 GA USED    *         4.87 MB       (max)       0.00 MB       (current)
 **********************************************************************************************************************************

 Basis set:  JKFIT                   
 Basis size:   740
 Attributes:
 Sphericals:   T
 Basis set:  MP2FIT                  
 Basis size:   816
 Attributes:
 Sphericals:   T
 Basis set:  RI                      
 Basis size:   556
 Attributes:
 Sphericals:   T
 Basis set:  TDDFT                   
 Basis size:   816
 Attributes:
 Sphericals:   T

 PROGRAM * CCSD (Closed-shell coupled cluster)     Authors: C. Hampel, H.-J. Werner, 1991, M. Deegan, P.J. Knowles, 1992

                                  CCSD-F12 implementation by  H.-J. Werner, 2007

                   Density fitting integral evaluation by F.R. Manby, 2003,2007, G. Knizia, 2010



 Convergence thresholds:  THRVAR = 1.00D-08  THRDEN = 1.00D-10

 CCSD(T)     terms to be evaluated (factor= 1.000)


 Number of core orbitals:           1 (   1 )
 Number of closed-shell orbitals:   4 (   4 )
 Number of external orbitals:     225 ( 225 )

 Molecular orbitals read from record     2101.2  Type=RHF/CANONICAL (state 1.1)

 MP2-F12 correlation treatment (H.-J. Werner, 2006)
 ==================================================

 Using MP2-F12 with ansatz 3C(FIX)

 Using projected zeroth-order Hamiltonian (+Z)

 FOCKRIB=T FOCKRIC=T FOCKRIP=T CABSP=T CABSA=T CABSK=T CABSF=T GBC=F EBC=F DMAT=T NOFIK=T NOPAO=1 SOLVE=-1  USEPAO=0
 EXCH_A= T EXCH_B= F EXCH_C= F EXCH_P= F

 Geminal basis:    OPTFULL  GEM_TYPE=SLATER  BETA=1.0  NGEM=6

 Optimizing Gaussian exponents for each gem_beta

 Geminal optimization for beta= 1.0000
 Weight function:   m=0, omega= 1.4646

 Augmented Hessian optimization of geminal fit. Trust ratio= 0.40000
 Convergence reached after   2 iterations. Final gradient= 8.31D-16, Step= 4.24D-06, Delta= 1.28D-09

 Alpha:                 0.19532     0.81920     2.85917     9.50073    35.69989   197.79328
 Coeff:                 0.27070     0.30552     0.18297     0.10986     0.06810     0.04224


 All pairs explicitly correlated. Number of r12-pairs:           10

 Excluding core orbitals from MO domains

 AO(A)-basis ORBITAL           loaded. Number of functions:     230
 RI(R)-basis RI                loaded. Number of functions:     556
 DF-basis JKFIT                loaded. Number of functions:     740

 Screening thresholds:   THRAO=  1.00D-10  THRMO=  1.00D-09  THRPROD=  1.00D-09
                         THRSW=  1.00D-05  THROV=  1.00D-12  THRAOF12= 1.00D-10

 CPU time for Fock operators                      3.14 sec

 Construction of ABS:
 Smallest eigenvalue of S          1.15E-04  (threshold= 1.00E-08)
 Ratio eigmin/eigmax               1.63E-05  (threshold= 1.00E-09)
 Smallest eigenvalue of S kept     1.15E-04  (threshold= 1.15E-04, 0 functions deleted, 556 kept)

 Construction of CABS:
 Smallest eigenvalue of S          5.50E-07  (threshold= 1.00E-08)
 Ratio eigmin/eigmax               5.50E-07  (threshold= 1.00E-09)
 Smallest eigenvalue of S kept     5.50E-07  (threshold= 5.50E-07, 0 functions deleted, 556 kept)

 CPU time for CABS singles                        0.70 sec

 CABS-singles contribution of  -0.00146647 patched into reference energy.
 New reference energy         -76.05999034

 AO(A)-basis ORBITAL           loaded. Number of functions:     230
 RI(R)-basis RI                loaded. Number of functions:     556
 DF-basis MP2FIT               loaded. Number of functions:     816

 Screening thresholds:   THRAO=  1.00D-10  THRMO=  1.00D-09  THRPROD=  1.00D-09
                         THRSW=  1.00D-05  THROV=  1.00D-12  THRAOF12= 1.00D-10

 CPU time for 3-index integral evaluation         5.59 sec
 CPU time for first  half transformation          0.84 sec ( 1758.0 MFLOP/sec)
 CPU time for second half transformation          0.02 sec (  632.5 MFLOP/sec)
 CPU time for sorting                             0.02 sec
 CPU time for fitting                             0.42 sec ( 1858.1 MFLOP/sec)
 CPU time for tilde quantities                    0.43 sec ( 4930.4 MFLOP/sec)
 CPU time for assembly                            1.36 sec ( 4102.4 MFLOP/sec)
 CPU time for tranop_f12                          1.23 sec ( 3653.0 MFLOP/sec)
 CPU time for f12 integrals (total)              12.23 sec, Elapsed time:     12.63 sec
 F12-matrices built in  4 passes.
 F12-matrices built in  4 passes.
 F12-matrices built in  4 passes.
 F12-matrices built in  4 passes.
 FC-matrix built in  4 passes.
 CPU time for f12 matrices (total)                0.31 sec, Elapsed time:      0.32 sec

 Diagonal F12 approximation with fixed coefficients:  TSING= 0.500,  TTRIP= 0.250 (scaled by -1/beta)

 DF-MP2-F12 energy corrections:
 ==============================
 Approx.                                    Singlet             Triplet             Total
 DF-MP2-F12/3*C(DX,FIX)                -0.029473271109     -0.004863698369     -0.034336969478
 DF-MP2-F12/3*C(FIX)                   -0.024398584681     -0.003809988662     -0.028208573343
 DF-MP2-F12/3C(FIX)                    -0.024530143573     -0.003784150700     -0.028314294272

 DF-MP2-F12 correlation energies:
 ================================
 Approx.                                    Singlet             Triplet             Ecorr            Total Energy
 DF-MP2                                -0.171820491049     -0.098280940149     -0.270101431198    -76.330091767770
 DF-MP2-F12/3*C(DX,FIX)                -0.201293762158     -0.103144638519     -0.304438400677    -76.364428737249
 DF-MP2-F12/3*C(FIX)                   -0.196219075730     -0.102090928811     -0.298310004541    -76.358300341113
 DF-MP2-F12/3C(FIX)                    -0.196350634622     -0.102065090849     -0.298415725471    -76.358406062043

 SCS-DF-MP2 energies (F_SING= 1.20000  F_TRIP= 0.62222  F_PARALLEL= 0.33333):
 ============================================================================
 SCS-DF-MP2                            -0.267337174240    -76.327327510813
 SCS-DF-MP2-F12/3*C(DX,FIX)            -0.305731400779    -76.365721737351
 SCS-DF-MP2-F12/3*C(FIX)               -0.298986135469    -76.358976472042
 SCS-DF-MP2-F12/3C(FIX)                -0.299127929185    -76.359118265758
 Symmetry transformation completed.

 Number of N-1 electron functions:               4
 Number of N-2 electron functions:              10
 Number of singly external CSFs:               900
 Number of doubly external CSFs:            405450
 Total number of CSFs:                      406351

 Pair and operator lists are different

 Length of J-op  integral file:              81.60 MB
 Length of K-op  integral file:             128.10 MB
 Length of 3-ext integral record:             0.00 MB

 Memory could be reduced to 75.63 Mwords without degradation in triples

 Integral transformation finished. Total CPU:  13.09 sec, npass=  1  Memory used:  32.52 MW

 Reference energy:                    -76.05999034

 Adding F12 terms to K(Cij), methodcc=6,  factor= 1.0

 ITER.      SQ.NORM     CORR.ENERGY   TOTAL ENERGY   ENERGY CHANGE        DEN1      VAR(S)    VAR(P)  DIIS     TIME  TIME/IT
   1      1.06232169    -0.26971205   -76.32970239     0.00039684     0.00634110  0.79D-03  0.10D-02  1  1    35.05     3.98
   2      1.06574786    -0.26938859   -76.32937892     0.00032346    -0.00463499  0.13D-04  0.11D-03  2  2    39.03     4.05
   3      1.06698684    -0.26951031   -76.32950065    -0.00012173    -0.00082773  0.93D-05  0.60D-05  3  3    42.99     4.06
   4      1.06747735    -0.26954727   -76.32953761    -0.00003696    -0.00027646  0.42D-06  0.66D-06  4  4    46.93     4.08
   5      1.06757079    -0.26954445   -76.32953478     0.00000283    -0.00002909  0.16D-06  0.47D-07  5  5    50.87     4.09
   6      1.06760234    -0.26954231   -76.32953264     0.00000214    -0.00000436  0.17D-07  0.37D-08  6  6    54.82     4.09
   7      1.06761029    -0.26954201   -76.32953235     0.00000029    -0.00000160  0.14D-08  0.84D-09  6  2    58.73     4.10
   8      1.06761192    -0.26954190   -76.32953223     0.00000012    -0.00000005  0.25D-09  0.87D-10  6  1    62.72     4.10
   9      1.06761252    -0.26954196   -76.32953230    -0.00000006     0.00000008  0.21D-10  0.88D-11  6  3    66.65     4.11
  10      1.06761269    -0.26954195   -76.32953229     0.00000001    -0.00000001  0.29D-11  0.13D-11  6  4    70.60     4.11
  11      1.06761267    -0.26954195   -76.32953229    -0.00000000     0.00000003  0.64D-12  0.18D-12  6  5    74.63     4.11
  12      1.06761267    -0.26954195   -76.32953229    -0.00000000     0.00000001  0.11D-12  0.32D-13  6  6    78.63     4.11
  13      1.06761265    -0.26954195   -76.32953229     0.00000000     0.00000000  0.15D-13  0.53D-14  6  2    82.57     4.11
  14      1.06761265    -0.26954195   -76.32953229    -0.00000000     0.00000000  0.16D-14  0.78D-15  6  1    86.55     4.11
  15      1.06761265    -0.26954195   -76.32953229    -0.00000000     0.00000000  0.23D-15  0.11D-15  6  5    90.51     4.11
  16      1.06761265    -0.26954195   -76.32953229    -0.00000000     0.00000000  0.27D-16  0.82D-17  6  3    94.48     4.11

 Norm of t1 vector:      0.03703779      S-energy:     0.00000000      T1 diagnostic:  0.00925945
                                                                       D1 diagnostic:  0.01842936

 Adding energy correction from Wij-K(Fij), methodcc=6  factor= 1.0

  CCSD correlation energy              -0.269541952254
  MP2-F12 correction (uncoupled)       -0.028048097350
  C*T doubles correction               -0.000412344355
  f12b correction                       0.004754537703


 Total CPU time for triples:     36.78 sec

  Ecorr(MP2)                           -0.270108891432
  Ecorr(MP2-F12)                       -0.298423185705
  Scale factor for triples energy       1.104825480281


 RESULTS
 =======

  Reference energy                    -76.058523865329
  F12 singles correction               -0.001466471243

 F12 singles corrections added to reference energy

  New reference energy                -76.059990336572

  F12a singlet correction              -0.024606686392
  F12a triplet correction              -0.003853755314
  F12a total correction                -0.028460441705

 F12a corrections for ansatz F12/3C(FIX) added to CCSD energy

  CCSD-F12a singlet pair energy        -0.207392161124
  CCSD-F12a triplet pair energy        -0.090610232851
  CCSD-F12a correlation energy         -0.298002393959

  Triples (T) contribution (scaled)    -0.009546232627
  Total correlation energy             -0.307548626586

  CCSD-F12a total energy              -76.357992730531
  CCSD[T]-F12a energy                 -76.367886821447
  CCSD-T-F12a energy                  -76.367395896108
 !CCSD(T)-F12a total energy           -76.367538963158

 F12b corrections for ansatz F12/3C(FIX) added to CCSD(T)-F12a energy

  CCSD-F12b singlet pair energy        -0.202995859118
  CCSD-F12b triplet pair energy        -0.090251997154
  CCSD-F12b correlation energy         -0.293247856256

  Triples (T) contribution (scaled)    -0.009546232627
  Total correlation energy             -0.302794088882

  CCSD-F12b total energy              -76.353238192828
  CCSD[T]-F12b energy                 -76.363132283744
  CCSD-T-F12b energy                  -76.362641358404
 !CCSD(T)-F12b total energy           -76.362784425455

 Timing summary (sec):

 STEP                 CPU(USER)    SYS     CPU(TOT)    WALL
 Transformation         13.16      0.49     13.65     13.66
 CCSD iterations        63.32      2.45     65.77     65.85
 Triples                36.78      0.28     37.06     37.12
 MP2-F12                18.02      0.50     18.52     18.55
 F12b energy             3.29      0.16      3.45      3.45

 Program statistics:

 Available memory in ccsd:              1999999871
 Min. memory needed in ccsd:               1862772
 Max. memory used in ccsd:                 2158322
 Max. memory used in cckext:               1445635 (17 integral passes)



 **********************************************************************************************************************************
 DATASETS  * FILE   NREC   LENGTH (MB)   RECORD NAMES
              1      19      222.31       500      610      700      900      950      970     1000      129      960     1100   
                                          VAR    BASINP    GEOM    SYMINP    ZMAT    AOBASIS   BASIS     P2S    ABASIS      S 
                                         1400     1410     1200     1210     1080     1600     1650     1700     1380   
                                           T        V       H0       H01     AOSYM     SMH    MOLCAS    OPER     JKOP   

              2       8        9.09       700     1000      520     2100     7360     7350      200     2101   
                                         GEOM     BASIS   MCVARS     RHF    F12ABS    EF12    OPTIONS    RHF  

 PROGRAMS   *        TOTAL   CCSD(T)    HF-SCF       INT   CCSD(T)    HF-SCF       INT
 CPU TIMES  *       740.88    134.78     13.56      0.22    562.87     14.40     14.81
 REAL TIME  *       764.20 SEC
 DISK USED  *       570.60 MB (local),        7.88 GB (total)
 SF USED    *         1.35 GB
 GA USED    *         4.87 MB       (max)       0.00 MB       (current)
 **********************************************************************************************************************************

 Running procedure: SET_MONOMER2

 Dummy atoms: O8  H15  H16


 Recomputing one-electron integrals since nuclear charges changed


 PROGRAM * SEWARD (Integral evaluation for generally contracted gaussian basis sets)     Author: Roland Lindh, 1990

 Geometry written to block  1 of record 700


 Point group  C1  



 ATOMIC COORDINATES

 NR  ATOM    CHARGE       X              Y              Z

   1  O8      0.00   -4.613766333    5.431639800   -4.129996445
   2  H15     0.00   -5.898213180    6.513508006   -3.364279420
   3  H16     0.00   -5.466221788    3.814790128   -4.412888446
   4  C1      6.00   -6.193010455    2.801518980    2.403542658
   5  H41     1.00   -4.656285171    1.699997622    3.119937832
   6  H42     1.00   -5.973046335    4.726205038    2.982932688
   7  H43     1.00   -7.940251230    2.077186956    3.118237078
   8  H44     1.00   -6.176569838    2.685300823    0.384937212

 Bond lengths in Bohr (Angstrom)

 1-2  1.845688241  1-3  1.849570504  4-5  2.021904040  4-6  2.022002335  4-7  2.021953343
     ( 0.976696155)     ( 0.978750561)     ( 1.069945541)     ( 1.069997556)     ( 1.069971630)

 4-8  2.022015060
     ( 1.070004290)

 Bond angles

  2-1-3  104.78050181   5-4-6  109.53398059   5-4-7  109.65604535   5-4-8  108.43490854

  6-4-7  109.49436728   6-4-8  109.86987750   7-4-8  109.83468330

 NUCLEAR CHARGE:                   10
 NUMBER OF PRIMITIVE AOS:         296
 NUMBER OF SYMMETRY AOS:          266
 NUMBER OF CONTRACTIONS:          230   (  230A   )
 NUMBER OF CORE ORBITALS:           1   (    1A   )
 NUMBER OF VALENCE ORBITALS:        8   (    8A   )

 MOLECULE CHANGED: INITIALIZING OCCUPATION AND DUMP RECORDS


 NUCLEAR REPULSION ENERGY   13.68681606

 Basis set:  JKFIT                   
 Basis size:   740
 Attributes:
 Sphericals:   T
 Basis set:  MP2FIT                  
 Basis size:   816
 Attributes:
 Sphericals:   T
 Basis set:  RI                      
 Basis size:   556
 Attributes:
 Sphericals:   T
 Basis set:  TDDFT                   
 Basis size:   816
 Attributes:
 Sphericals:   T

 Eigenvalues of metric

         1 0.447E-04 0.772E-04 0.100E-03 0.104E-03 0.335E-03 0.376E-03 0.528E-03 0.687E-03


 Contracted 2-electron integrals neglected if value below      1.0D-14

 OPERATOR DM      FOR CENTER  0  COORDINATES:    0.000000    0.000000    0.000000


 **********************************************************************************************************************************
 DATASETS  * FILE   NREC   LENGTH (MB)   RECORD NAMES
              1      18       32.04       500      610      700      900      950      970     1000      129      960     1100   
                                          VAR    BASINP    GEOM    SYMINP    ZMAT    AOBASIS   BASIS     P2S    ABASIS      S 
                                         1400     1410     1200     1210     1080     1600     1650     1700   
                                           T        V       H0       H01     AOSYM     SMH    MOLCAS    OPER   

              2       8        9.09       700     1000      520     2100     7360     7350      200     2101   
                                         GEOM     BASIS   MCVARS     RHF    F12ABS    EF12    OPTIONS    RHF  

 PROGRAMS   *        TOTAL       INT   CCSD(T)    HF-SCF       INT   CCSD(T)    HF-SCF       INT
 CPU TIMES  *       741.12      0.22    134.78     13.56      0.22    562.87     14.40     14.81
 REAL TIME  *       764.97 SEC
 DISK USED  *       570.60 MB (local),        7.88 GB (total)
 SF USED    *         1.35 GB
 GA USED    *         4.87 MB       (max)       0.00 MB       (current)
 **********************************************************************************************************************************


 PROGRAM * RHF-SCF (CLOSED SHELL)       Authors: W. Meyer, H.-J. Werner


 NUMBER OF ELECTRONS:       5+    5-    SPACE SYMMETRY=1    SPIN SYMMETRY: Singlet 
 CONVERGENCE THRESHOLDS:    1.00E-08 (Density)    1.00E-11 (Energy)
 MAX. NUMBER OF ITERATIONS:       60
 INTERPOLATION TYPE:            DIIS
 INTERPOLATION STEPS:              2 (START)      1 (STEP)
 LEVEL SHIFTS:                  0.00 (CLOSED)  0.00 (OPEN) 



 Orbital guess generated from atomic densities. Full valence occupancy:    9

 Molecular orbital dump at record        2102.2

 Initial occupancy:   5

 ITERATION    DDIFF          GRAD             ENERGY        2-EL.EN.            DIPOLE MOMENTS         DIIS   ORB.
    1      0.000D+00      0.000D+00       -40.19358947     53.494057    0.00411   -0.00276   -0.00132    0    start
    2      0.000D+00      0.353D-02       -40.21070709     52.213696    0.00129   -0.00088   -0.00041    1    diag
    3      0.326D-02      0.137D-02       -40.21295554     52.664872    0.00182   -0.00124   -0.00057    2    diag
    4      0.910D-03      0.342D-03       -40.21327099     52.609850    0.00162   -0.00110   -0.00050    3    diag
    5      0.302D-03      0.444D-04       -40.21327638     52.612187    0.00159   -0.00108   -0.00049    4    diag
    6      0.840D-04      0.345D-05       -40.21327642     52.612284    0.00159   -0.00108   -0.00049    5    diag
    7      0.697D-05      0.264D-06       -40.21327642     52.612250    0.00159   -0.00108   -0.00049    6    diag
    8      0.103D-05      0.221D-07       -40.21327642     52.612251    0.00159   -0.00108   -0.00049    7    diag
    9      0.188D-06      0.285D-08       -40.21327642     52.612251    0.00159   -0.00108   -0.00049    8    diag
   10      0.101D-07      0.797D-09       -40.21327642     52.612251    0.00159   -0.00108   -0.00049    9    orth
   11      0.131D-08      0.107D-09       -40.21327642     52.612251    0.00159   -0.00108   -0.00049    0    orth

 Final occupancy:   5

 !RHF STATE  1.1 Energy               -40.213276417371
 Nuclear energy                        13.68681606
 One-electron energy                  -80.20621780
 Two-electron energy                   26.30612533
 Virial quotient                       -0.99869860
 !RHF STATE  1.1 Dipole moment          0.00159277    -0.00108173    -0.00049173
 Dipole moment /Debye                   0.00404815    -0.00274931    -0.00124977

 Orbital energies:

         1.1          2.1          3.1          4.1          5.1          6.1          7.1
    -11.197208    -0.950742    -0.551695    -0.549758    -0.547581     0.027120     0.042689


 HOMO      5.1    -0.547581 =     -14.9004eV
 LUMO      6.1     0.027120 =       0.7380eV
 LUMO-HOMO         0.574701 =      15.6384eV


 **********************************************************************************************************************************
 DATASETS  * FILE   NREC   LENGTH (MB)   RECORD NAMES
              1      18       32.04       500      610      700      900      950      970     1000      129      960     1100   
                                          VAR    BASINP    GEOM    SYMINP    ZMAT    AOBASIS   BASIS     P2S    ABASIS      S 
                                         1400     1410     1200     1210     1080     1600     1650     1700   
                                           T        V       H0       H01     AOSYM     SMH    MOLCAS    OPER   

              2       9       13.71       700     1000      520     2100     7360     7350      200     2101     2102   
                                         GEOM     BASIS   MCVARS     RHF    F12ABS    EF12    OPTIONS    RHF      RHF  

 PROGRAMS   *        TOTAL    HF-SCF       INT   CCSD(T)    HF-SCF       INT   CCSD(T)    HF-SCF       INT
 CPU TIMES  *       753.39     12.27      0.22    134.78     13.56      0.22    562.87     14.40     14.81
 REAL TIME  *       778.56 SEC
 DISK USED  *       570.60 MB (local),        7.88 GB (total)
 SF USED    *         1.35 GB
 GA USED    *         4.87 MB       (max)       0.00 MB       (current)
 **********************************************************************************************************************************

 Basis set:  JKFIT                   
 Basis size:   740
 Attributes:
 Sphericals:   T
 Basis set:  MP2FIT                  
 Basis size:   816
 Attributes:
 Sphericals:   T
 Basis set:  RI                      
 Basis size:   556
 Attributes:
 Sphericals:   T
 Basis set:  TDDFT                   
 Basis size:   816
 Attributes:
 Sphericals:   T

 PROGRAM * CCSD (Closed-shell coupled cluster)     Authors: C. Hampel, H.-J. Werner, 1991, M. Deegan, P.J. Knowles, 1992

                                  CCSD-F12 implementation by  H.-J. Werner, 2007

                   Density fitting integral evaluation by F.R. Manby, 2003,2007, G. Knizia, 2010



 Convergence thresholds:  THRVAR = 1.00D-08  THRDEN = 1.00D-10

 CCSD(T)     terms to be evaluated (factor= 1.000)


 Number of core orbitals:           1 (   1 )
 Number of closed-shell orbitals:   4 (   4 )
 Number of external orbitals:     225 ( 225 )

 Molecular orbitals read from record     2102.2  Type=RHF/CANONICAL (state 1.1)

 MP2-F12 correlation treatment (H.-J. Werner, 2006)
 ==================================================

 Using MP2-F12 with ansatz 3C(FIX)

 Using projected zeroth-order Hamiltonian (+Z)

 FOCKRIB=T FOCKRIC=T FOCKRIP=T CABSP=T CABSA=T CABSK=T CABSF=T GBC=F EBC=F DMAT=T NOFIK=T NOPAO=1 SOLVE=-1  USEPAO=0
 EXCH_A= T EXCH_B= F EXCH_C= F EXCH_P= F

 Geminal basis:    OPTFULL  GEM_TYPE=SLATER  BETA=1.0  NGEM=6

 Optimizing Gaussian exponents for each gem_beta

 Geminal optimization for beta= 1.0000
 Weight function:   m=0, omega= 1.4646

 Augmented Hessian optimization of geminal fit. Trust ratio= 0.40000
 Convergence reached after   2 iterations. Final gradient= 7.85D-16, Step= 4.26D-06, Delta= 1.28D-09

 Alpha:                 0.19532     0.81920     2.85917     9.50073    35.69989   197.79328
 Coeff:                 0.27070     0.30552     0.18297     0.10986     0.06810     0.04224


 All pairs explicitly correlated. Number of r12-pairs:           10

 Excluding core orbitals from MO domains

 AO(A)-basis ORBITAL           loaded. Number of functions:     230
 RI(R)-basis RI                loaded. Number of functions:     556
 DF-basis JKFIT                loaded. Number of functions:     740

 Screening thresholds:   THRAO=  1.00D-10  THRMO=  1.00D-09  THRPROD=  1.00D-09
                         THRSW=  1.00D-05  THROV=  1.00D-12  THRAOF12= 1.00D-10

 CPU time for Fock operators                      3.22 sec

 Construction of ABS:
 Smallest eigenvalue of S          1.15E-04  (threshold= 1.00E-08)
 Ratio eigmin/eigmax               1.63E-05  (threshold= 1.00E-09)
 Smallest eigenvalue of S kept     1.15E-04  (threshold= 1.15E-04, 0 functions deleted, 556 kept)

 Construction of CABS:
 Smallest eigenvalue of S          5.50E-07  (threshold= 1.00E-08)
 Ratio eigmin/eigmax               5.50E-07  (threshold= 1.00E-09)
 Smallest eigenvalue of S kept     5.50E-07  (threshold= 5.50E-07, 0 functions deleted, 556 kept)

 CPU time for CABS singles                        0.70 sec

 CABS-singles contribution of  -0.00090987 patched into reference energy.
 New reference energy         -40.21418629

 AO(A)-basis ORBITAL           loaded. Number of functions:     230
 RI(R)-basis RI                loaded. Number of functions:     556
 DF-basis MP2FIT               loaded. Number of functions:     816

 Screening thresholds:   THRAO=  1.00D-10  THRMO=  1.00D-09  THRPROD=  1.00D-09
                         THRSW=  1.00D-05  THROV=  1.00D-12  THRAOF12= 1.00D-10

 CPU time for 3-index integral evaluation         5.53 sec
 CPU time for first  half transformation          0.73 sec ( 1848.4 MFLOP/sec)
 CPU time for second half transformation          0.02 sec (  633.4 MFLOP/sec)
 CPU time for sorting                             0.03 sec
 CPU time for fitting                             0.32 sec (  998.8 MFLOP/sec)
 CPU time for tilde quantities                    0.42 sec ( 1490.2 MFLOP/sec)
 CPU time for assembly                            1.41 sec ( 3956.9 MFLOP/sec)
 CPU time for tranop_f12                          1.30 sec ( 3306.8 MFLOP/sec)
 CPU time for f12 integrals (total)              12.07 sec, Elapsed time:     12.50 sec
 F12-matrices built in  4 passes.
 F12-matrices built in  4 passes.
 F12-matrices built in  4 passes.
 F12-matrices built in  4 passes.
 FC-matrix built in  4 passes.
 CPU time for f12 matrices (total)                0.31 sec, Elapsed time:      0.32 sec

 Diagonal F12 approximation with fixed coefficients:  TSING= 0.500,  TTRIP= 0.250 (scaled by -1/beta)

 DF-MP2-F12 energy corrections:
 ==============================
 Approx.                                    Singlet             Triplet             Total
 DF-MP2-F12/3*C(DX,FIX)                -0.016688963686     -0.001925851506     -0.018614815191
 DF-MP2-F12/3*C(FIX)                   -0.015449029060     -0.001783511574     -0.017232540634
 DF-MP2-F12/3C(FIX)                    -0.015436909610     -0.001775084409     -0.017211994019

 DF-MP2-F12 correlation energies:
 ================================
 Approx.                                    Singlet             Triplet             Ecorr            Total Energy
 DF-MP2                                -0.145458714184     -0.055068350138     -0.200527064322    -40.414713356062
 DF-MP2-F12/3*C(DX,FIX)                -0.162147677870     -0.056994201643     -0.219141879513    -40.433328171253
 DF-MP2-F12/3*C(FIX)                   -0.160907743244     -0.056851861711     -0.217759604955    -40.431945896695
 DF-MP2-F12/3C(FIX)                    -0.160895623794     -0.056843434546     -0.217739058340    -40.431925350080

 SCS-DF-MP2 energies (F_SING= 1.20000  F_TRIP= 0.62222  F_PARALLEL= 0.33333):
 ============================================================================
 SCS-DF-MP2                            -0.208815208218    -40.423001499958
 SCS-DF-MP2-F12/3*C(DX,FIX)            -0.230040272244    -40.444226563984
 SCS-DF-MP2-F12/3*C(FIX)               -0.228463783625    -40.442650075364
 SCS-DF-MP2-F12/3C(FIX)                -0.228443996715    -40.442630288455
 Symmetry transformation completed.

 Number of N-1 electron functions:               4
 Number of N-2 electron functions:              10
 Number of singly external CSFs:               900
 Number of doubly external CSFs:            405450
 Total number of CSFs:                      406351

 Pair and operator lists are different

 Length of J-op  integral file:              81.60 MB
 Length of K-op  integral file:             128.10 MB
 Length of 3-ext integral record:             0.00 MB

 Memory could be reduced to 75.63 Mwords without degradation in triples

 Integral transformation finished. Total CPU:  13.04 sec, npass=  1  Memory used:  32.52 MW

 Reference energy:                    -40.21418629

 Adding F12 terms to K(Cij), methodcc=6,  factor= 1.0

 ITER.      SQ.NORM     CORR.ENERGY   TOTAL ENERGY   ENERGY CHANGE        DEN1      VAR(S)    VAR(P)  DIIS     TIME  TIME/IT
   1      1.06946528    -0.21559576   -40.42978205    -0.01505895    -0.00938248  0.67D-03  0.94D-03  1  1    34.87     4.01
   2      1.07449222    -0.21616460   -40.43035089    -0.00056884    -0.00524369  0.16D-04  0.83D-04  2  2    38.85     4.07
   3      1.07590047    -0.21631950   -40.43050579    -0.00015490    -0.00097998  0.20D-05  0.51D-05  3  3    42.82     4.10
   4      1.07623862    -0.21633181   -40.43051810    -0.00001231    -0.00017404  0.10D-06  0.25D-06  4  4    46.83     4.12
   5      1.07628337    -0.21633055   -40.43051685     0.00000126    -0.00000984  0.77D-08  0.17D-07  5  5    50.84     4.12
   6      1.07628924    -0.21632957   -40.43051587     0.00000098    -0.00000185  0.59D-09  0.12D-08  6  6    54.81     4.12
   7      1.07629040    -0.21632925   -40.43051554     0.00000032    -0.00000073  0.41D-10  0.10D-09  6  1    58.81     4.12
   8      1.07629043    -0.21632936   -40.43051565    -0.00000010     0.00000012  0.40D-11  0.62D-11  6  3    62.80     4.13
   9      1.07629054    -0.21632934   -40.43051563     0.00000001    -0.00000007  0.34D-12  0.51D-12  6  2    66.75     4.13
  10      1.07629054    -0.21632934   -40.43051563     0.00000000     0.00000001  0.37D-13  0.50D-13  6  4    70.74     4.13
  11      1.07629054    -0.21632934   -40.43051563     0.00000000     0.00000000  0.27D-14  0.52D-14  6  5    74.67     4.13
  12      1.07629054    -0.21632934   -40.43051563     0.00000000     0.00000000  0.57D-16  0.61D-15  6  6    78.62     4.13
  13      1.07629054    -0.21632934   -40.43051563    -0.00000000     0.00000000  0.80D-17  0.66D-16  6  1    82.48     4.13
  14      1.07629054    -0.21632934   -40.43051563    -0.00000000     0.00000000  0.15D-17  0.79D-17  6  3    86.48     4.13

 Norm of t1 vector:      0.03361740      S-energy:     0.00000000      T1 diagnostic:  0.00840435
                                                                       D1 diagnostic:  0.01339489

 Adding energy correction from Wij-K(Fij), methodcc=6  factor= 1.0

  CCSD correlation energy              -0.216329337812
  MP2-F12 correction (uncoupled)       -0.017222382850
  C*T doubles correction               -0.000193419193
  f12b correction                       0.003652032694

 Total CPU time for triples:     36.88 sec

  Ecorr(MP2)                           -0.200536809218
  Ecorr(MP2-F12)                       -0.217748803237
  Scale factor for triples energy       1.085829599492


 RESULTS
 =======

  Reference energy                    -40.213276417371
  F12 singles correction               -0.000909874369

 F12 singles corrections added to reference energy

  New reference energy                -40.214186291740

  F12a singlet correction              -0.015615071609
  F12a triplet correction              -0.001800730434
  F12a total correction                -0.017415802042

 F12a corrections for ansatz F12/3C(FIX) added to CCSD energy

  CCSD-F12a singlet pair energy        -0.178527574604
  CCSD-F12a triplet pair energy        -0.055217565277
  CCSD-F12a correlation energy         -0.233745139854

  Triples (T) contribution (scaled)    -0.006802442205
  Total correlation energy             -0.240547582059

  CCSD-F12a total energy              -40.447931431594
  CCSD[T]-F12a energy                 -40.454973012449
  CCSD-T-F12a energy                  -40.454659135902
 !CCSD(T)-F12a total energy           -40.454733873799

 F12b corrections for ansatz F12/3C(FIX) added to CCSD(T)-F12a energy

  CCSD-F12b singlet pair energy        -0.175046232837
  CCSD-F12b triplet pair energy        -0.055046874350
  CCSD-F12b correlation energy         -0.230093107160

  Triples (T) contribution (scaled)    -0.006802442205
  Total correlation energy             -0.236895549365

  CCSD-F12b total energy              -40.444279398900
  CCSD[T]-F12b energy                 -40.451320979755
  CCSD-T-F12b energy                  -40.451007103208
 !CCSD(T)-F12b total energy           -40.451081841105

 Timing summary (sec):

 STEP                 CPU(USER)    SYS     CPU(TOT)    WALL
 Transformation         13.09      0.54     13.63     13.65
 CCSD iterations        55.51      2.26     57.77     57.84
 Triples                36.88      0.27     37.15     37.20
 MP2-F12                17.90      0.59     18.49     18.50
 F12b energy             3.35      0.10      3.45      3.46

 Program statistics:

 Available memory in ccsd:              1999999866
 Min. memory needed in ccsd:               1862772
 Max. memory used in ccsd:                 2158322
 Max. memory used in cckext:               1445635 (15 integral passes)



 **********************************************************************************************************************************
 DATASETS  * FILE   NREC   LENGTH (MB)   RECORD NAMES
              1      19      222.31       500      610      700      900      950      970     1000      129      960     1100   
                                          VAR    BASINP    GEOM    SYMINP    ZMAT    AOBASIS   BASIS     P2S    ABASIS      S 
                                         1400     1410     1200     1210     1080     1600     1650     1700     1380   
                                           T        V       H0       H01     AOSYM     SMH    MOLCAS    OPER     JKOP   

              2       9       13.71       700     1000      520     2100     7360     7350      200     2101     2102   
                                         GEOM     BASIS   MCVARS     RHF    F12ABS    EF12    OPTIONS    RHF      RHF  

 PROGRAMS   *        TOTAL   CCSD(T)    HF-SCF       INT   CCSD(T)    HF-SCF       INT   CCSD(T)    HF-SCF       INT
 CPU TIMES  *       880.34    126.92     12.27      0.22    134.78     13.56      0.22    562.87     14.40     14.81
 REAL TIME  *       909.98 SEC
 DISK USED  *       570.60 MB (local),        7.88 GB (total)
 SF USED    *         1.35 GB
 GA USED    *         4.87 MB       (max)       0.00 MB       (current)
 **********************************************************************************************************************************
 Molecular orbitals read from record     2102.2  Type=RHF/CANONICAL (state 1.1)
 Occupation numbers read from record     2102.2  Type=RHF/RHF (state 1.1)
 Orbital energies read from record       2102.2  Type=RHF/CANONICAL (state 1.1)
 Redundancy group numbers read from rec  2102.2  Type=RHF/RHF (state 1.1)

 CCSD(T)-F12/aug-cc-pVTZ energy=    -40.451081841105

     CCSD(T)-F12          HF-SCF     CCSD(T)-F12          HF-SCF     CCSD(T)-F12          HF-SCF
    -40.45108184    -40.21327642    -76.36278443    -76.05852387   -116.81413900   -116.27103045
 **********************************************************************************************************************************
 Molpro calculation terminated
