
 Primary working directories    : /scratch/klimes/383156/molpro.qUVbciPvXt
 Secondary working directories  : /scratch/klimes/383156/molpro.qUVbciPvXt
 Wavefunction directory         : /scratch/klimes/383156/
 Main file repository           : /scratch/klimes/383156/molpro.qUVbciPvXt/

 id        : karlovklimes

 Nodes                      nprocs
 nc-03.cc.karlov.mff.cuni.cz    4

 Using customized tuning parameters: mindgm=1; mindgv=20; mindgc=4; mindgr=1; noblas=0; minvec=7
 default implementation of scratch files=sf  


 Variables initialized (930), CPU time= 0.01 sec
                                                                                 !gdirect
 memory,2000,m
 gthresh,orbital=1d-10,energy=1d-10,grid=1d-8
 
 symmetry,nosym
 angstrom
 geometry={
 O9        -3.518900000000     -2.419500000000      0.991300000000
 H17        -3.388900000000     -3.371800000000      0.893300000000
 H18        -2.990700000000     -2.010200000000      0.231000000000
 C1        -3.277200000000      1.482500000000      1.271900000000
 H41        -2.464000000000      0.899600000000      1.651000000000
 H42        -3.160800000000      2.501000000000      1.578500000000
 H43        -4.201800000000      1.099200000000      1.650100000000
 H44        -3.268500000000      1.421000000000      0.203700000000
 }
 
 nkerna=1
 nkernb=1
 
 gf=0
 sing=1
 thrdum=1d-4
 gridthr=1d-8
 
 basis={
 set,orbital
 default,avtz
 set,jkfit
 default,avqz/jkfit
 set,mp2fit
 default,avqz/mp2fit
 set,ri
 default,avqz/optri
 set,tddft
 default,avqz/mp2fit
 }
 
 proc set_monomer1
 dummy,4,5,6,7,8
 endproc
 
 proc set_monomer2
 dummy,1,2,3
 endproc
 
                                                                                 !12 energy
 {hf,accu=1.d-16}
 {ccsd(t)-f12,df_basis=mp2fit,df_basis_exch=jkfit,ri_basis=ri,scale_trip=1,THRAOF12=1d-10}
 
 set_monomer1
 {hf,accu=1.d-16}
 {ccsd(t)-f12,df_basis=mp2fit,df_basis_exch=jkfit,ri_basis=ri,scale_trip=1,THRAOF12=1d-10}
 
 set_monomer2
 {hf,accu=1.d-16}
 {ccsd(t)-f12,df_basis=mp2fit,df_basis_exch=jkfit,ri_basis=ri,scale_trip=1,THRAOF12=1d-10}
 
 Commands  initialized (760), CPU time= 0.01 sec, 617 directives.
 Default parameters read. Elapsed time= 0.20 sec

 Checking input...
 Passed
1


                                         ***  PROGRAM SYSTEM MOLPRO  ***
                                       Copyright, TTI GmbH Stuttgart, 2015
                                    Version 2019.1 linked Jan 14 2019 13:09:19


 **********************************************************************************************************************************
 LABEL *                                                                                 
  64 bit mpp version                                                                     DATE: 11-Mar-20          TIME: 16:15:50  
 **********************************************************************************************************************************

 SHA1:             d688ac825633d238f2093ded1675ba87ccd55965
 **********************************************************************************************************************************

 THRESHOLDS:

 ZERO    =  1.00D-12  ONEINT  =  1.00D-12  TWOINT  =  1.00D-11  PREFAC  =  1.00D-14  XXXXXX  =  1.00D-09  EORDER  =  1.00D-04
 ENERGY  =  1.00D-10  ETEST   =  0.00D+00  EDENS   =  0.00D+00  THRDEDEF=  1.00D-06  GRADIENT=  1.00D-02  STEP    =  1.00D-03
 ORBITAL =  1.00D-10  CIVEC   =  1.00D-05  COEFF   =  1.00D-04  PRINTCI =  5.00D-02  PUNCHCI =  9.90D+01  OPTGRAD =  3.00D-04
 OPTENERG=  1.00D-06  OPTSTEP =  3.00D-04  THRGRAD =  1.00D-10  COMPRESS=  1.00D-11  VARMIN  =  1.00D-07  VARMAX  =  1.00D-03
 THRDOUB =  0.00D+00  THRDIV  =  1.00D-05  THRRED  =  1.00D-07  THRPSP  =  1.00D+00  THRDC   =  1.00D-10  THRCS   =  1.00D-10
 THRNRM  =  1.00D-08  THREQ   =  0.00D+00  THRDE   =  1.00D+00  THRREF  =  1.00D-05  SPARFAC =  1.00D+00  THRDLP  =  1.00D-07
 THRDIA  =  1.00D-10  THRDLS  =  1.00D-07  THRGPS  =  0.00D+00  THRKEX  =  0.00D+00  THRDIS  =  2.00D-01  THRVAR  =  1.00D-10
 THRLOC  =  1.00D-06  THRGAP  =  1.00D-06  THRLOCT = -1.00D+00  THRGAPT = -1.00D+00  THRORB  =  1.00D-06  THRMLTP =  0.00D+00
 THRCPQCI=  1.00D-10  KEXTA   =  0.00D+00  THRCOARS=  0.00D+00  SYMTOL  =  1.00D-06  GRADTOL =  1.00D-06  THROVL  =  1.00D-08
 THRORTH =  1.00D-08  GRID    =  1.00D-08  GRIDMAX =  1.00D-03  DTMAX   =  0.00D+00  THROCCDE=  1.00D-01  THROCCDE=  1.00D-01
 THRPRINT=  2.50D-01


 Variable memory set to 2000000000 words,  buffer space 

 ZSYMEL=NOSYM
 ZUNIT=ANG


Geometry recognized as XYZ

 SETTING NKERNA         =         1.00000000                                  
 SETTING NKERNB         =         1.00000000                                  
 SETTING GF             =     0.00000000D+00                                  
 SETTING SING           =         1.00000000                                  
 SETTING THRDUM         =     1.00000000D-04                                  
 SETTING GRIDTHR        =     1.00000000D-08                                  
 SETTING BASIS          =    AVTZ


 Recomputing integrals since basis changed


 Using spherical harmonics

 Library entry O      S aug-cc-pVTZ          selected for orbital group  1
 Library entry O      P aug-cc-pVTZ          selected for orbital group  1
 Library entry O      D aug-cc-pVTZ          selected for orbital group  1
 Library entry O      F aug-cc-pVTZ          selected for orbital group  1
 Library entry H      S aug-cc-pVTZ          selected for orbital group  2
 Library entry H      P aug-cc-pVTZ          selected for orbital group  2
 Library entry H      D aug-cc-pVTZ          selected for orbital group  2
 Library entry C      S aug-cc-pVTZ          selected for orbital group  3
 Library entry C      P aug-cc-pVTZ          selected for orbital group  3
 Library entry C      D aug-cc-pVTZ          selected for orbital group  3
 Library entry C      F aug-cc-pVTZ          selected for orbital group  3


 PROGRAM * SEWARD (Integral evaluation for generally contracted gaussian basis sets)     Author: Roland Lindh, 1990

 Geometry written to block  1 of record 700


 Point group  C1  



 ATOMIC COORDINATES

 NR  ATOM    CHARGE       X              Y              Z

   1  O9      8.00   -6.649757260   -4.572192358    1.873285507
   2  H17     1.00   -6.404092864   -6.371778547    1.688092347
   3  H18     1.00   -5.651603921   -3.798727456    0.436526735
   4  C1      6.00   -6.193010455    2.801518980    2.403542658
   5  H41     1.00   -4.656285171    1.699997622    3.119937832
   6  H42     1.00   -5.973046335    4.726205038    2.982932688
   7  H43     1.00   -7.940251230    2.077186956    3.118237078
   8  H44     1.00   -6.176569838    2.685300823    0.384937212

 Bond lengths in Bohr (Angstrom)

 1-2  1.825693827  1-3  1.912807835  4-5  2.021904040  4-6  2.022002335  4-7  2.021953343
     ( 0.966115568)     ( 1.012214315)     ( 1.069945541)     ( 1.069997556)     ( 1.069971630)

 4-8  2.022015060
     ( 1.070004290)

 Bond angles

  2-1-3  104.60595341   5-4-6  109.53398059   5-4-7  109.65604535   5-4-8  108.43490854

  6-4-7  109.49436728   6-4-8  109.86987750   7-4-8  109.83468330

 NUCLEAR CHARGE:                   20
 NUMBER OF PRIMITIVE AOS:         296
 NUMBER OF SYMMETRY AOS:          266
 NUMBER OF CONTRACTIONS:          230   (  230A   )
 NUMBER OF CORE ORBITALS:           2   (    2A   )
 NUMBER OF VALENCE ORBITALS:       14   (   14A   )


 NUCLEAR REPULSION ENERGY   35.88176990


 Basis set:  JKFIT                   
 Basis size:   740
 Attributes:
 Sphericals:   T
 Basis set:  MP2FIT                  
 Basis size:   816
 Attributes:
 Sphericals:   T
 Basis set:  RI                      
 Basis size:   556
 Attributes:
 Sphericals:   T
 Basis set:  TDDFT                   
 Basis size:   816
 Attributes:
 Sphericals:   T

 **********************************************************************************************************************************


 Eigenvalues of metric

         1 0.556E-04 0.709E-04 0.104E-03 0.106E-03 0.333E-03 0.374E-03 0.645E-03 0.771E-03


 Contracted 2-electron integrals neglected if value below      1.0D-14
 AO integral compression algorithm  1   Integral accuracy      1.0D-14

     2044.985 MB (compressed) written to integral file ( 63.8%)

     Node minimum: 463.208 MB, node maximum: 544.997 MB


 NUMBER OF SORTED TWO-ELECTRON INTEGRALS:   88219044.     BUFFER LENGTH:  32768
 NUMBER OF SEGMENTS:   6  SEGMENT LENGTH:   15998348      RECORD LENGTH: 524288

 Memory used in sort:      16.56 MW

 SORT1 READ   400769927. AND WROTE    79555974. INTEGRALS IN    230 RECORDS. CPU TIME:     7.51 SEC, REAL TIME:     8.34 SEC
 SORT2 READ   318534034. AND WROTE   352862895. INTEGRALS IN   7816 RECORDS. CPU TIME:     1.99 SEC, REAL TIME:     4.32 SEC

 Node minimum:    88205762.  Node maximum:    88225686. integrals

 OPERATOR DM      FOR CENTER  0  COORDINATES:    0.000000    0.000000    0.000000


 **********************************************************************************************************************************
 DATASETS  * FILE   NREC   LENGTH (MB)   RECORD NAMES
              1      18       32.04       500      610      700      900      950      970     1000      129      960     1100   
                                          VAR    BASINP    GEOM    SYMINP    ZMAT    AOBASIS   BASIS     P2S    ABASIS      S 
                                         1400     1410     1200     1210     1080     1600     1650     1700   
                                           T        V       H0       H01     AOSYM     SMH    MOLCAS    OPER   

 PROGRAMS   *        TOTAL       INT
 CPU TIMES  *        14.37     14.15
 REAL TIME  *        20.95 SEC
 DISK USED  *        32.49 MB (local),        5.96 GB (total)
 GA USED    *         0.00 MB       (max)       0.00 MB       (current)
 **********************************************************************************************************************************


 PROGRAM * RHF-SCF (CLOSED SHELL)       Authors: W. Meyer, H.-J. Werner


 NUMBER OF ELECTRONS:      10+   10-    SPACE SYMMETRY=1    SPIN SYMMETRY: Singlet 
 CONVERGENCE THRESHOLDS:    1.00E-08 (Density)    1.00E-11 (Energy)
 MAX. NUMBER OF ITERATIONS:       60
 INTERPOLATION TYPE:            DIIS
 INTERPOLATION STEPS:              2 (START)      1 (STEP)
 LEVEL SHIFTS:                  0.00 (CLOSED)  0.00 (OPEN) 



 Orbital guess generated from atomic densities. Full valence occupancy:   16

 Molecular orbital dump at record        2100.2

 Initial occupancy:  10

 ITERATION    DDIFF          GRAD             ENERGY        2-EL.EN.            DIPOLE MOMENTS         DIIS   ORB.
    1      0.000D+00      0.000D+00      -116.21040651    157.493115    0.64559   -0.51574   -0.83920    0    start
    2      0.000D+00      0.524D-02      -116.25439013    152.436892    0.34100   -0.33062   -0.44456    1    diag
    3      0.551D-02      0.312D-02      -116.26829905    154.533906    0.41855   -0.38065   -0.54320    2    diag
    4      0.185D-02      0.457D-03      -116.26896064    154.421893    0.41190   -0.37786   -0.53358    3    diag
    5      0.413D-03      0.135D-03      -116.26903039    154.416325    0.41122   -0.37878   -0.53253    4    diag
    6      0.144D-03      0.331D-04      -116.26903438    154.422217    0.41067   -0.37881   -0.53173    5    diag
    7      0.391D-04      0.666D-05      -116.26903463    154.420647    0.41065   -0.37892   -0.53169    6    diag
    8      0.106D-04      0.176D-05      -116.26903465    154.420805    0.41059   -0.37894   -0.53161    7    diag
    9      0.238D-05      0.378D-06      -116.26903465    154.420778    0.41058   -0.37894   -0.53159    8    diag
   10      0.734D-06      0.427D-07      -116.26903465    154.420780    0.41057   -0.37894   -0.53159    9    orth
   11      0.591D-07      0.109D-07      -116.26903465    154.420781    0.41057   -0.37894   -0.53159    9    diag
   12      0.236D-07      0.279D-08      -116.26903465    154.420781    0.41057   -0.37894   -0.53159    9    diag
   13      0.390D-08      0.731D-09      -116.26903465    154.420781    0.41057   -0.37894   -0.53159    0    orth

 Final occupancy:  10

 !RHF STATE  1.1 Energy              -116.269034653424
 Nuclear energy                        35.88176990
 One-electron energy                 -229.36119508
 Two-electron energy                   77.21039053
 Virial quotient                       -1.00138448
 !RHF STATE  1.1 Dipole moment          0.41057374    -0.37893762    -0.53159291
 Dipole moment /Debye                   1.04350600    -0.96310029    -1.35108590

 Orbital energies:

         1.1          2.1          3.1          4.1          5.1          6.1          7.1          8.1          9.1         10.1
    -20.572284   -11.192459    -1.337900    -0.946035    -0.700852    -0.578332    -0.547535    -0.544225    -0.543015    -0.507570

        11.1         12.1
      0.027096     0.038978


 HOMO     10.1    -0.507570 =     -13.8117eV
 LUMO     11.1     0.027096 =       0.7373eV
 LUMO-HOMO         0.534666 =      14.5490eV


 **********************************************************************************************************************************
 DATASETS  * FILE   NREC   LENGTH (MB)   RECORD NAMES
              1      18       32.04       500      610      700      900      950      970     1000      129      960     1100   
                                          VAR    BASINP    GEOM    SYMINP    ZMAT    AOBASIS   BASIS     P2S    ABASIS      S 
                                         1400     1410     1200     1210     1080     1600     1650     1700   
                                           T        V       H0       H01     AOSYM     SMH    MOLCAS    OPER   

              2       4        3.96       700     1000      520     2100   
                                         GEOM     BASIS   MCVARS     RHF  

 PROGRAMS   *        TOTAL    HF-SCF       INT
 CPU TIMES  *        31.18     16.81     14.15
 REAL TIME  *        39.93 SEC
 DISK USED  *        39.90 MB (local),        5.99 GB (total)
 SF USED    *         0.21 MB
 GA USED    *         0.00 MB       (max)       0.00 MB       (current)
 **********************************************************************************************************************************

 Basis set:  JKFIT                   
 Basis size:   740
 Attributes:
 Sphericals:   T
 Basis set:  MP2FIT                  
 Basis size:   816
 Attributes:
 Sphericals:   T
 Basis set:  RI                      
 Basis size:   556
 Attributes:
 Sphericals:   T
 Basis set:  TDDFT                   
 Basis size:   816
 Attributes:
 Sphericals:   T

 PROGRAM * CCSD (Closed-shell coupled cluster)     Authors: C. Hampel, H.-J. Werner, 1991, M. Deegan, P.J. Knowles, 1992

                                  CCSD-F12 implementation by  H.-J. Werner, 2007

                   Density fitting integral evaluation by F.R. Manby, 2003,2007, G. Knizia, 2010



 Convergence thresholds:  THRVAR = 1.00D-08  THRDEN = 1.00D-10

 CCSD(T)     terms to be evaluated (factor= 1.000)


 Number of core orbitals:           2 (   2 )
 Number of closed-shell orbitals:   8 (   8 )
 Number of external orbitals:     220 ( 220 )

 Molecular orbitals read from record     2100.2  Type=RHF/CANONICAL (state 1.1)

 MP2-F12 correlation treatment (H.-J. Werner, 2006)
 ==================================================

 Using MP2-F12 with ansatz 3C(FIX)

 Using projected zeroth-order Hamiltonian (+Z)

 FOCKRIB=T FOCKRIC=T FOCKRIP=T CABSP=T CABSA=T CABSK=T CABSF=T GBC=F EBC=F DMAT=T NOFIK=T NOPAO=1 SOLVE=-1  USEPAO=0
 EXCH_A= T EXCH_B= F EXCH_C= F EXCH_P= F

 Geminal basis:    OPTFULL  GEM_TYPE=SLATER  BETA=1.0  NGEM=6

 Optimizing Gaussian exponents for each gem_beta

 Geminal optimization for beta= 1.0000
 Weight function:   m=0, omega= 1.4646

 Augmented Hessian optimization of geminal fit. Trust ratio= 0.40000
 Convergence reached after   2 iterations. Final gradient= 7.85D-16, Step= 4.26D-06, Delta= 1.28D-09

 Alpha:                 0.19532     0.81920     2.85917     9.50073    35.69989   197.79328
 Coeff:                 0.27070     0.30552     0.18297     0.10986     0.06810     0.04224


 All pairs explicitly correlated. Number of r12-pairs:           36

 Excluding core orbitals from MO domains

 AO(A)-basis ORBITAL           loaded. Number of functions:     230
 RI(R)-basis RI                loaded. Number of functions:     556
 DF-basis JKFIT                loaded. Number of functions:     740

 Screening thresholds:   THRAO=  1.00D-10  THRMO=  1.00D-09  THRPROD=  1.00D-09
                         THRSW=  1.00D-05  THROV=  1.00D-12  THRAOF12= 1.00D-10

 CPU time for Fock operators                      3.74 sec

 Construction of ABS:
 Smallest eigenvalue of S          1.10E-04  (threshold= 1.00E-08)
 Ratio eigmin/eigmax               1.56E-05  (threshold= 1.00E-09)
 Smallest eigenvalue of S kept     1.10E-04  (threshold= 1.10E-04, 0 functions deleted, 556 kept)

 Construction of CABS:
 Smallest eigenvalue of S          6.68E-07  (threshold= 1.00E-08)
 Ratio eigmin/eigmax               6.68E-07  (threshold= 1.00E-09)
 Smallest eigenvalue of S kept     6.68E-07  (threshold= 6.68E-07, 0 functions deleted, 556 kept)

 CPU time for CABS singles                        0.69 sec

 CABS-singles contribution of  -0.00235041 patched into reference energy.
 New reference energy        -116.27138506

 AO(A)-basis ORBITAL           loaded. Number of functions:     230
 RI(R)-basis RI                loaded. Number of functions:     556
 DF-basis MP2FIT               loaded. Number of functions:     816

 Screening thresholds:   THRAO=  1.00D-10  THRMO=  1.00D-09  THRPROD=  1.00D-09
                         THRSW=  1.00D-05  THROV=  1.00D-12  THRAOF12= 1.00D-10

 CPU time for 3-index integral evaluation         5.43 sec
 CPU time for first  half transformation          1.04 sec ( 2687.4 MFLOP/sec)
 CPU time for second half transformation          0.04 sec ( 1255.8 MFLOP/sec)
 CPU time for sorting                             0.08 sec
 CPU time for fitting                             0.53 sec ( 4100.7 MFLOP/sec)
 CPU time for tilde quantities                    0.62 sec ( 4450.5 MFLOP/sec)
 CPU time for assembly                            4.62 sec ( 4287.0 MFLOP/sec)
 CPU time for tranop_f12                          4.53 sec ( 4214.1 MFLOP/sec)
 CPU time for f12 integrals (total)              23.85 sec, Elapsed time:     24.68 sec
 F12-matrices built in  4 passes.
 F12-matrices built in  4 passes.
 F12-matrices built in  4 passes.
 F12-matrices built in  4 passes.
 FC-matrix built in  4 passes.
 CPU time for f12 matrices (total)                1.18 sec, Elapsed time:      1.24 sec

 Diagonal F12 approximation with fixed coefficients:  TSING= 0.500,  TTRIP= 0.250 (scaled by -1/beta)

 DF-MP2-F12 energy corrections:
 ==============================
 Approx.                                    Singlet             Triplet             Total
 DF-MP2-F12/3*C(DX,FIX)                -0.046194972218     -0.006791034615     -0.052986006833
 DF-MP2-F12/3*C(FIX)                   -0.039902784611     -0.005604925703     -0.045507710314
 DF-MP2-F12/3C(FIX)                    -0.040020894441     -0.005569467191     -0.045590361633

 DF-MP2-F12 correlation energies:
 ================================
 Approx.                                    Singlet             Triplet             Ecorr            Total Energy
 DF-MP2                                -0.317953867621     -0.154034371460     -0.471988239081   -116.743373303000
 DF-MP2-F12/3*C(DX,FIX)                -0.364148839839     -0.160825406075     -0.524974245914   -116.796359309832
 DF-MP2-F12/3*C(FIX)                   -0.357856652232     -0.159639297163     -0.517495949395   -116.788881013314
 DF-MP2-F12/3C(FIX)                    -0.357974762062     -0.159603838652     -0.517578600714   -116.788963664632

 SCS-DF-MP2 energies (F_SING= 1.20000  F_TRIP= 0.62222  F_PARALLEL= 0.33333):
 ============================================================================
 SCS-DF-MP2                            -0.477388250054   -116.748773313972
 SCS-DF-MP2-F12/3*C(DX,FIX)            -0.537047749364   -116.808432813283
 SCS-DF-MP2-F12/3*C(FIX)               -0.528759100913   -116.800144164832
 SCS-DF-MP2-F12/3C(FIX)                -0.528878769636   -116.800263833554
 Symmetry transformation completed.

 Number of N-1 electron functions:               8
 Number of N-2 electron functions:              36
 Number of singly external CSFs:              1760
 Number of doubly external CSFs:           1549680
 Total number of CSFs:                     1551441

 Pair and operator lists are different

 Length of J-op  integral file:             315.61 MB
 Length of K-op  integral file:             368.50 MB
 Length of 3-ext integral record:             0.00 MB

 Memory could be reduced to 116.32 Mwords without degradation in triples

 Integral transformation finished. Total CPU:  26.86 sec, npass=  1  Memory used:  59.34 MW

 Reference energy:                   -116.27138506

 Adding F12 terms to K(Cij), methodcc=6,  factor= 1.0

 ITER.      SQ.NORM     CORR.ENERGY   TOTAL ENERGY   ENERGY CHANGE        DEN1      VAR(S)    VAR(P)  DIIS     TIME  TIME/IT
   1      1.13272488    -0.48650645  -116.75789152    -0.01450032    -0.00273742  0.15D-02  0.20D-02  1  1    73.72    15.42
   2      1.14107769    -0.48677681  -116.75816188    -0.00027036    -0.00979731  0.29D-04  0.23D-03  2  2    88.95    15.48
   3      1.14402693    -0.48704120  -116.75842627    -0.00026439    -0.00200567  0.13D-04  0.12D-04  3  3   104.29    15.51
   4      1.14493137    -0.48709862  -116.75848368    -0.00005741    -0.00049373  0.56D-06  0.11D-05  4  4   119.62    15.53
   5      1.14508141    -0.48709289  -116.75847795     0.00000573    -0.00004002  0.20D-06  0.77D-07  5  5   135.88    15.74
   6      1.14512322    -0.48708996  -116.75847502     0.00000293    -0.00000638  0.18D-07  0.57D-08  6  6   151.07    15.69
   7      1.14513291    -0.48708920  -116.75847427     0.00000076    -0.00000256  0.15D-08  0.77D-09  6  2   166.44    15.69
   8      1.14513492    -0.48708917  -116.75847423     0.00000003    -0.00000010  0.24D-09  0.80D-10  6  1   181.79    15.69
   9      1.14513564    -0.48708919  -116.75847426    -0.00000002    -0.00000006  0.23D-10  0.14D-10  6  3   197.12    15.68
  10      1.14513574    -0.48708919  -116.75847425     0.00000000     0.00000007  0.35D-11  0.17D-11  6  4   212.48    15.68
  11      1.14513568    -0.48708920  -116.75847426    -0.00000001     0.00000008  0.61D-12  0.26D-12  6  5   227.88    15.69
  12      1.14513565    -0.48708920  -116.75847426    -0.00000000     0.00000002  0.12D-12  0.37D-13  6  6   243.31    15.69
  13      1.14513563    -0.48708920  -116.75847426    -0.00000000     0.00000001  0.18D-13  0.57D-14  6  2   258.75    15.69
  14      1.14513562    -0.48708920  -116.75847426    -0.00000000     0.00000000  0.21D-14  0.12D-14  6  1   274.12    15.69
  15      1.14513562    -0.48708920  -116.75847426    -0.00000000    -0.00000000  0.24D-15  0.13D-15  6  3   289.49    15.70
  16      1.14513562    -0.48708920  -116.75847426     0.00000000    -0.00000000  0.32D-16  0.18D-16  6  4   304.85    15.70

 Norm of t1 vector:      0.05103002      S-energy:     0.00000000      T1 diagnostic:  0.00902092
                                                                       D1 diagnostic:  0.01918331

 Adding energy correction from Wij-K(Fij), methodcc=6  factor= 1.0

  CCSD correlation energy              -0.487089199349
  MP2-F12 correction (uncoupled)       -0.045318688763
  C*T doubles correction               -0.000613612523
  f12b correction                       0.008429951596


 Total CPU time for triples:    234.23 sec

  Ecorr(MP2)                           -0.472006134240
  Ecorr(MP2-F12)                       -0.517596495873
  Scale factor for triples energy       1.096588493932


 RESULTS
 =======

  Reference energy                   -116.269034653420
  F12 singles correction               -0.002350410499

 F12 singles corrections added to reference energy

  New reference energy               -116.271385063919

  F12a singlet correction              -0.040268057219
  F12a triplet correction              -0.005664244067
  F12a total correction                -0.045932301286

 F12a corrections for ansatz F12/3C(FIX) added to CCSD energy

  CCSD-F12a singlet pair energy        -0.386737461342
  CCSD-F12a triplet pair energy        -0.146284039497
  CCSD-F12a correlation energy         -0.533021500636

  Triples (T) contribution (scaled)    -0.016554443642
  Total correlation energy             -0.549575944278

  CCSD-F12a total energy             -116.804406564554
  CCSD[T]-F12a energy                -116.821562712055
  CCSD-T-F12a energy                 -116.820736647723
 !CCSD(T)-F12a total energy          -116.820961008196

 F12b corrections for ansatz F12/3C(FIX) added to CCSD(T)-F12a energy

  CCSD-F12b singlet pair energy        -0.378837958055
  CCSD-F12b triplet pair energy        -0.145753591188
  CCSD-F12b correlation energy         -0.524591549039

  Triples (T) contribution (scaled)    -0.016554443642
  Total correlation energy             -0.541145992681

  CCSD-F12b total energy             -116.795976612958
  CCSD[T]-F12b energy                -116.813132760459
  CCSD-T-F12b energy                 -116.812306696127
 !CCSD(T)-F12b total energy          -116.812531056600

 Timing summary (sec):

 STEP                 CPU(USER)    SYS     CPU(TOT)    WALL
 Transformation         27.05      0.88     27.93     28.01
 CCSD iterations       246.39      4.48    250.87    251.24
 Triples               234.23      1.61    235.84    236.17
 MP2-F12                31.45      1.07     32.52     32.57
 F12b energy            11.88      0.13     12.01     12.03

 Program statistics:

 Available memory in ccsd:              1999999554
 Min. memory needed in ccsd:               4597329
 Max. memory used in ccsd:                 5918289
 Max. memory used in cckext:               4231061 (17 integral passes)



 **********************************************************************************************************************************
 DATASETS  * FILE   NREC   LENGTH (MB)   RECORD NAMES
              1      19      398.06       500      610      700      900      950      970     1000      129      960     1100   
                                          VAR    BASINP    GEOM    SYMINP    ZMAT    AOBASIS   BASIS     P2S    ABASIS      S 
                                         1400     1410     1200     1210     1080     1600     1650     1700     1380   
                                           T        V       H0       H01     AOSYM     SMH    MOLCAS    OPER     JKOP   

              2       6        5.03       700     1000      520     2100     7360     7350   
                                         GEOM     BASIS   MCVARS     RHF    F12ABS    EF12   

 PROGRAMS   *        TOTAL   CCSD(T)    HF-SCF       INT
 CPU TIMES  *       582.41    551.22     16.81     14.15
 REAL TIME  *       600.82 SEC
 DISK USED  *       570.60 MB (local),        7.61 GB (total)
 SF USED    *         1.36 GB
 GA USED    *         4.87 MB       (max)       0.00 MB       (current)
 **********************************************************************************************************************************

 Running procedure: SET_MONOMER1

 Dummy atoms: C1  H41  H42  H43  H44


 Recomputing one-electron integrals since nuclear charges changed


 PROGRAM * SEWARD (Integral evaluation for generally contracted gaussian basis sets)     Author: Roland Lindh, 1990

 Geometry written to block  1 of record 700


 Point group  C1  



 ATOMIC COORDINATES

 NR  ATOM    CHARGE       X              Y              Z

   1  O9      8.00   -6.649757260   -4.572192358    1.873285507
   2  H17     1.00   -6.404092864   -6.371778547    1.688092347
   3  H18     1.00   -5.651603921   -3.798727456    0.436526735
   4  C1      0.00   -6.193010455    2.801518980    2.403542658
   5  H41     0.00   -4.656285171    1.699997622    3.119937832
   6  H42     0.00   -5.973046335    4.726205038    2.982932688
   7  H43     0.00   -7.940251230    2.077186956    3.118237078
   8  H44     0.00   -6.176569838    2.685300823    0.384937212

 Bond lengths in Bohr (Angstrom)

 1-2  1.825693827  1-3  1.912807835  4-5  2.021904040  4-6  2.022002335  4-7  2.021953343
     ( 0.966115568)     ( 1.012214315)     ( 1.069945541)     ( 1.069997556)     ( 1.069971630)

 4-8  2.022015060
     ( 1.070004290)

 Bond angles

  2-1-3  104.60595341   5-4-6  109.53398059   5-4-7  109.65604535   5-4-8  108.43490854

  6-4-7  109.49436728   6-4-8  109.86987750   7-4-8  109.83468330

 NUCLEAR CHARGE:                   10
 NUMBER OF PRIMITIVE AOS:         296
 NUMBER OF SYMMETRY AOS:          266
 NUMBER OF CONTRACTIONS:          230   (  230A   )
 NUMBER OF CORE ORBITALS:           1   (    1A   )
 NUMBER OF VALENCE ORBITALS:        6   (    6A   )

 MOLECULE CHANGED: INITIALIZING OCCUPATION AND DUMP RECORDS


 NUCLEAR REPULSION ENERGY    8.90222806

 Basis set:  JKFIT                   
 Basis size:   740
 Attributes:
 Sphericals:   T
 Basis set:  MP2FIT                  
 Basis size:   816
 Attributes:
 Sphericals:   T
 Basis set:  RI                      
 Basis size:   556
 Attributes:
 Sphericals:   T
 Basis set:  TDDFT                   
 Basis size:   816
 Attributes:
 Sphericals:   T

 Eigenvalues of metric

         1 0.556E-04 0.709E-04 0.104E-03 0.106E-03 0.333E-03 0.374E-03 0.645E-03 0.771E-03


 Contracted 2-electron integrals neglected if value below      1.0D-14

 OPERATOR DM      FOR CENTER  0  COORDINATES:    0.000000    0.000000    0.000000


 **********************************************************************************************************************************
 DATASETS  * FILE   NREC   LENGTH (MB)   RECORD NAMES
              1      18       32.04       500      610      700      900      950      970     1000      129      960     1100   
                                          VAR    BASINP    GEOM    SYMINP    ZMAT    AOBASIS   BASIS     P2S    ABASIS      S 
                                         1400     1410     1200     1210     1080     1600     1650     1700   
                                           T        V       H0       H01     AOSYM     SMH    MOLCAS    OPER   

              2       7        5.05       700     1000      520     2100     7360     7350      200   
                                         GEOM     BASIS   MCVARS     RHF    F12ABS    EF12    OPTIONS    

 PROGRAMS   *        TOTAL       INT   CCSD(T)    HF-SCF       INT
 CPU TIMES  *       582.64      0.22    551.22     16.81     14.15
 REAL TIME  *       601.61 SEC
 DISK USED  *       570.60 MB (local),        7.61 GB (total)
 SF USED    *         1.36 GB
 GA USED    *         4.87 MB       (max)       0.00 MB       (current)
 **********************************************************************************************************************************


 PROGRAM * RHF-SCF (CLOSED SHELL)       Authors: W. Meyer, H.-J. Werner


 NUMBER OF ELECTRONS:       5+    5-    SPACE SYMMETRY=1    SPIN SYMMETRY: Singlet 
 CONVERGENCE THRESHOLDS:    1.00E-08 (Density)    1.00E-11 (Energy)
 MAX. NUMBER OF ITERATIONS:       60
 INTERPOLATION TYPE:            DIIS
 INTERPOLATION STEPS:              2 (START)      1 (STEP)
 LEVEL SHIFTS:                  0.00 (CLOSED)  0.00 (OPEN) 



 Orbital guess generated from atomic densities. Full valence occupancy:    7

 Molecular orbital dump at record        2101.2

 Initial occupancy:   5

 ITERATION    DDIFF          GRAD             ENERGY        2-EL.EN.            DIPOLE MOMENTS         DIIS   ORB.
    1      0.000D+00      0.000D+00       -76.01700953     77.243276    0.64193   -0.51286   -0.83851    0    start
    2      0.000D+00      0.641D-02       -76.04377644     73.564504    0.36497   -0.30687   -0.47532    1    diag
    3      0.443D-02      0.414D-02       -76.05558554     75.199897    0.43331   -0.36094   -0.56468    2    diag
    4      0.162D-02      0.381D-03       -76.05578595     75.110051    0.42966   -0.36112   -0.55965    3    diag
    5      0.207D-03      0.109D-03       -76.05580847     75.124769    0.42824   -0.36129   -0.55768    4    diag
    6      0.682D-04      0.220D-04       -76.05580997     75.123757    0.42789   -0.36145   -0.55720    5    diag
    7      0.177D-04      0.444D-05       -76.05581004     75.123887    0.42778   -0.36147   -0.55705    6    diag
    8      0.454D-05      0.783D-06       -76.05581005     75.123869    0.42776   -0.36147   -0.55701    7    diag
    9      0.694D-06      0.105D-06       -76.05581005     75.123859    0.42776   -0.36146   -0.55701    8    diag
   10      0.857D-07      0.285D-07       -76.05581005     75.123862    0.42776   -0.36146   -0.55701    9    orth
   11      0.233D-07      0.704D-08       -76.05581005     75.123862    0.42776   -0.36146   -0.55701    9    diag
   12      0.710D-08      0.135D-08       -76.05581005     75.123862    0.42776   -0.36146   -0.55701    0    orth

 Final occupancy:   5

 !RHF STATE  1.1 Energy               -76.055810045179
 Nuclear energy                         8.90222806
 One-electron energy                 -122.51996907
 Two-electron energy                   37.56193096
 Virial quotient                       -1.00282181
 !RHF STATE  1.1 Dipole moment          0.42775691    -0.36146453    -0.55700818
 Dipole moment /Debye                   1.08717840    -0.91869102    -1.41568084

 Orbital energies:

         1.1          2.1          3.1          4.1          5.1          6.1          7.1
    -20.572562    -1.338136    -0.701075    -0.578437    -0.507844     0.023142     0.035237


 HOMO      5.1    -0.507844 =     -13.8191eV
 LUMO      6.1     0.023142 =       0.6297eV
 LUMO-HOMO         0.530986 =      14.4489eV


 **********************************************************************************************************************************
 DATASETS  * FILE   NREC   LENGTH (MB)   RECORD NAMES
              1      18       32.04       500      610      700      900      950      970     1000      129      960     1100   
                                          VAR    BASINP    GEOM    SYMINP    ZMAT    AOBASIS   BASIS     P2S    ABASIS      S 
                                         1400     1410     1200     1210     1080     1600     1650     1700   
                                           T        V       H0       H01     AOSYM     SMH    MOLCAS    OPER   

              2       8        9.09       700     1000      520     2100     7360     7350      200     2101   
                                         GEOM     BASIS   MCVARS     RHF    F12ABS    EF12    OPTIONS    RHF  

 PROGRAMS   *        TOTAL    HF-SCF       INT   CCSD(T)    HF-SCF       INT
 CPU TIMES  *       598.47     15.84      0.22    551.22     16.81     14.15
 REAL TIME  *       619.26 SEC
 DISK USED  *       570.60 MB (local),        7.61 GB (total)
 SF USED    *         1.36 GB
 GA USED    *         4.87 MB       (max)       0.00 MB       (current)
 **********************************************************************************************************************************

 Basis set:  JKFIT                   
 Basis size:   740
 Attributes:
 Sphericals:   T
 Basis set:  MP2FIT                  
 Basis size:   816
 Attributes:
 Sphericals:   T
 Basis set:  RI                      
 Basis size:   556
 Attributes:
 Sphericals:   T
 Basis set:  TDDFT                   
 Basis size:   816
 Attributes:
 Sphericals:   T

 PROGRAM * CCSD (Closed-shell coupled cluster)     Authors: C. Hampel, H.-J. Werner, 1991, M. Deegan, P.J. Knowles, 1992

                                  CCSD-F12 implementation by  H.-J. Werner, 2007

                   Density fitting integral evaluation by F.R. Manby, 2003,2007, G. Knizia, 2010



 Convergence thresholds:  THRVAR = 1.00D-08  THRDEN = 1.00D-10

 CCSD(T)     terms to be evaluated (factor= 1.000)


 Number of core orbitals:           1 (   1 )
 Number of closed-shell orbitals:   4 (   4 )
 Number of external orbitals:     225 ( 225 )

 Molecular orbitals read from record     2101.2  Type=RHF/CANONICAL (state 1.1)

 MP2-F12 correlation treatment (H.-J. Werner, 2006)
 ==================================================

 Using MP2-F12 with ansatz 3C(FIX)

 Using projected zeroth-order Hamiltonian (+Z)

 FOCKRIB=T FOCKRIC=T FOCKRIP=T CABSP=T CABSA=T CABSK=T CABSF=T GBC=F EBC=F DMAT=T NOFIK=T NOPAO=1 SOLVE=-1  USEPAO=0
 EXCH_A= T EXCH_B= F EXCH_C= F EXCH_P= F

 Geminal basis:    OPTFULL  GEM_TYPE=SLATER  BETA=1.0  NGEM=6

 Optimizing Gaussian exponents for each gem_beta

 Geminal optimization for beta= 1.0000
 Weight function:   m=0, omega= 1.4646

 Augmented Hessian optimization of geminal fit. Trust ratio= 0.40000
 Convergence reached after   2 iterations. Final gradient= 8.31D-16, Step= 4.24D-06, Delta= 1.28D-09

 Alpha:                 0.19532     0.81920     2.85917     9.50073    35.69989   197.79328
 Coeff:                 0.27070     0.30552     0.18297     0.10986     0.06810     0.04224


 All pairs explicitly correlated. Number of r12-pairs:           10

 Excluding core orbitals from MO domains

 AO(A)-basis ORBITAL           loaded. Number of functions:     230
 RI(R)-basis RI                loaded. Number of functions:     556
 DF-basis JKFIT                loaded. Number of functions:     740

 Screening thresholds:   THRAO=  1.00D-10  THRMO=  1.00D-09  THRPROD=  1.00D-09
                         THRSW=  1.00D-05  THROV=  1.00D-12  THRAOF12= 1.00D-10

 CPU time for Fock operators                      3.17 sec

 Construction of ABS:
 Smallest eigenvalue of S          1.10E-04  (threshold= 1.00E-08)
 Ratio eigmin/eigmax               1.56E-05  (threshold= 1.00E-09)
 Smallest eigenvalue of S kept     1.10E-04  (threshold= 1.10E-04, 0 functions deleted, 556 kept)

 Construction of CABS:
 Smallest eigenvalue of S          6.68E-07  (threshold= 1.00E-08)
 Ratio eigmin/eigmax               6.68E-07  (threshold= 1.00E-09)
 Smallest eigenvalue of S kept     6.68E-07  (threshold= 6.68E-07, 0 functions deleted, 556 kept)

 CPU time for CABS singles                        0.72 sec

 CABS-singles contribution of  -0.00144083 patched into reference energy.
 New reference energy         -76.05725088

 AO(A)-basis ORBITAL           loaded. Number of functions:     230
 RI(R)-basis RI                loaded. Number of functions:     556
 DF-basis MP2FIT               loaded. Number of functions:     816

 Screening thresholds:   THRAO=  1.00D-10  THRMO=  1.00D-09  THRPROD=  1.00D-09
                         THRSW=  1.00D-05  THROV=  1.00D-12  THRAOF12= 1.00D-10

 CPU time for 3-index integral evaluation         5.37 sec
 CPU time for first  half transformation          0.75 sec ( 1867.2 MFLOP/sec)
 CPU time for second half transformation          0.01 sec ( 1369.9 MFLOP/sec)
 CPU time for sorting                             0.05 sec
 CPU time for fitting                             0.36 sec (  869.3 MFLOP/sec)
 CPU time for tilde quantities                    0.39 sec ( 5402.0 MFLOP/sec)
 CPU time for assembly                            1.43 sec ( 3901.6 MFLOP/sec)
 CPU time for tranop_f12                          1.31 sec ( 3285.3 MFLOP/sec)
 CPU time for f12 integrals (total)              12.08 sec, Elapsed time:     12.45 sec
 F12-matrices built in  4 passes.
 F12-matrices built in  4 passes.
 F12-matrices built in  4 passes.
 F12-matrices built in  4 passes.
 FC-matrix built in  4 passes.
 CPU time for f12 matrices (total)                0.27 sec, Elapsed time:      0.33 sec

 Diagonal F12 approximation with fixed coefficients:  TSING= 0.500,  TTRIP= 0.250 (scaled by -1/beta)

 DF-MP2-F12 energy corrections:
 ==============================
 Approx.                                    Singlet             Triplet             Total
 DF-MP2-F12/3*C(DX,FIX)                -0.029474128316     -0.004856434842     -0.034330563158
 DF-MP2-F12/3*C(FIX)                   -0.024419377590     -0.003809349139     -0.028228726730
 DF-MP2-F12/3C(FIX)                    -0.024552750524     -0.003782012737     -0.028334763261

 DF-MP2-F12 correlation energies:
 ================================
 Approx.                                    Singlet             Triplet             Ecorr            Total Energy
 DF-MP2                                -0.172384646425     -0.098582322592     -0.270966969017    -76.328217844330
 DF-MP2-F12/3*C(DX,FIX)                -0.201858774741     -0.103438757434     -0.305297532175    -76.362548407488
 DF-MP2-F12/3*C(FIX)                   -0.196804024015     -0.102391671731     -0.299195695747    -76.356446571060
 DF-MP2-F12/3C(FIX)                    -0.196937396949     -0.102364335329     -0.299301732278    -76.356552607591

 SCS-DF-MP2 energies (F_SING= 1.20000  F_TRIP= 0.62222  F_PARALLEL= 0.33333):
 ============================================================================
 SCS-DF-MP2                            -0.268201687545    -76.325452562858
 SCS-DF-MP2-F12/3*C(DX,FIX)            -0.306592423203    -76.363843298516
 SCS-DF-MP2-F12/3*C(FIX)               -0.299875202340    -76.357126077653
 SCS-DF-MP2-F12/3C(FIX)                -0.300018240543    -76.357269115856
 Symmetry transformation completed.

 Number of N-1 electron functions:               4
 Number of N-2 electron functions:              10
 Number of singly external CSFs:               900
 Number of doubly external CSFs:            405450
 Total number of CSFs:                      406351

 Pair and operator lists are different

 Length of J-op  integral file:              81.60 MB
 Length of K-op  integral file:             128.10 MB
 Length of 3-ext integral record:             0.00 MB

 Memory could be reduced to 75.63 Mwords without degradation in triples

 Integral transformation finished. Total CPU:  13.48 sec, npass=  1  Memory used:  32.52 MW

 Reference energy:                    -76.05725088

 Adding F12 terms to K(Cij), methodcc=6,  factor= 1.0

 ITER.      SQ.NORM     CORR.ENERGY   TOTAL ENERGY   ENERGY CHANGE        DEN1      VAR(S)    VAR(P)  DIIS     TIME  TIME/IT
   1      1.06307229    -0.27046776   -76.32771864     0.00050716     0.00659174  0.82D-03  0.11D-02  1  1    35.59     4.26
   2      1.06662574    -0.27015292   -76.32740380     0.00031484    -0.00473919  0.14D-04  0.12D-03  2  2    39.81     4.32
   3      1.06794673    -0.27028213   -76.32753301    -0.00012921    -0.00086564  0.99D-05  0.64D-05  3  3    44.11     4.37
   4      1.06847521    -0.27032093   -76.32757180    -0.00003880    -0.00029186  0.43D-06  0.68D-06  4  4    48.30     4.37
   5      1.06857297    -0.27031760   -76.32756847     0.00000333    -0.00002897  0.16D-06  0.46D-07  5  5    52.60     4.39
   6      1.06860636    -0.27031541   -76.32756629     0.00000218    -0.00000490  0.13D-07  0.32D-08  6  6    56.79     4.38
   7      1.06861366    -0.27031499   -76.32756586     0.00000043    -0.00000150  0.11D-08  0.50D-09  6  1    61.00     4.39
   8      1.06861502    -0.27031507   -76.32756595    -0.00000009     0.00000012  0.16D-09  0.61D-10  6  2    65.21     4.38
   9      1.06861556    -0.27031509   -76.32756597    -0.00000002    -0.00000004  0.17D-10  0.85D-11  6  3    69.43     4.38
  10      1.06861564    -0.27031509   -76.32756596     0.00000001     0.00000002  0.33D-11  0.98D-12  6  4    73.58     4.37
  11      1.06861559    -0.27031509   -76.32756596    -0.00000000     0.00000004  0.55D-12  0.21D-12  6  6    77.75     4.37
  12      1.06861559    -0.27031509   -76.32756596     0.00000000     0.00000001  0.82D-13  0.27D-13  6  5    81.91     4.36
  13      1.06861558    -0.27031509   -76.32756596    -0.00000000     0.00000000  0.10D-13  0.38D-14  6  1    86.13     4.36
  14      1.06861558    -0.27031509   -76.32756596    -0.00000000     0.00000000  0.12D-14  0.77D-15  6  2    90.38     4.36
  15      1.06861557    -0.27031509   -76.32756596    -0.00000000    -0.00000000  0.12D-15  0.84D-16  6  3    94.57     4.36
  16      1.06861557    -0.27031509   -76.32756596     0.00000000    -0.00000000  0.16D-16  0.10D-16  6  4    98.76     4.36

 Norm of t1 vector:      0.03797609      S-energy:    -0.00000000      T1 diagnostic:  0.00949402
                                                                       D1 diagnostic:  0.01895046

 Adding energy correction from Wij-K(Fij), methodcc=6  factor= 1.0

  CCSD correlation energy              -0.270315088208
  MP2-F12 correction (uncoupled)       -0.028051744494
  C*T doubles correction               -0.000419443328
  f12b correction                       0.004768081142


 Total CPU time for triples:     36.96 sec

  Ecorr(MP2)                           -0.270974922652
  Ecorr(MP2-F12)                       -0.299309685913
  Scale factor for triples energy       1.104565998150


 RESULTS
 =======

  Reference energy                    -76.055810045180
  F12 singles correction               -0.001440830133

 F12 singles corrections added to reference energy

  New reference energy                -76.057250875313

  F12a singlet correction              -0.024619685313
  F12a triplet correction              -0.003851502509
  F12a total correction                -0.028471187822

 F12a corrections for ansatz F12/3C(FIX) added to CCSD energy

  CCSD-F12a singlet pair energy        -0.208117783834
  CCSD-F12a triplet pair energy        -0.090668492088
  CCSD-F12a correlation energy         -0.298786276030

  Triples (T) contribution (scaled)    -0.009664454853
  Total correlation energy             -0.308450730882

  CCSD-F12a total energy              -76.356037151343
  CCSD[T]-F12a energy                 -76.366061492737
  CCSD-T-F12a energy                  -76.365552879656
 !CCSD(T)-F12a total energy           -76.365701606195

 F12b corrections for ansatz F12/3C(FIX) added to CCSD(T)-F12a energy

  CCSD-F12b singlet pair energy        -0.203707873949
  CCSD-F12b triplet pair energy        -0.090310320831
  CCSD-F12b correlation energy         -0.294018194888

  Triples (T) contribution (scaled)    -0.009664454853
  Total correlation energy             -0.303682649740

  CCSD-F12b total energy              -76.351269070201
  CCSD[T]-F12b energy                 -76.361293411595
  CCSD-T-F12b energy                  -76.360784798514
 !CCSD(T)-F12b total energy           -76.360933525053

 Timing summary (sec):

 STEP                 CPU(USER)    SYS     CPU(TOT)    WALL
 Transformation         13.54      0.55     14.09     14.11
 CCSD iterations        67.31      2.41     69.72     69.79
 Triples                36.96      0.30     37.26     37.31
 MP2-F12                17.92      0.55     18.47     18.49
 F12b energy             3.63      0.12      3.75      3.76

 Program statistics:

 Available memory in ccsd:              1999999871
 Min. memory needed in ccsd:               1862772
 Max. memory used in ccsd:                 2158322
 Max. memory used in cckext:               1445635 (17 integral passes)



 **********************************************************************************************************************************
 DATASETS  * FILE   NREC   LENGTH (MB)   RECORD NAMES
              1      19      222.31       500      610      700      900      950      970     1000      129      960     1100   
                                          VAR    BASINP    GEOM    SYMINP    ZMAT    AOBASIS   BASIS     P2S    ABASIS      S 
                                         1400     1410     1200     1210     1080     1600     1650     1700     1380   
                                           T        V       H0       H01     AOSYM     SMH    MOLCAS    OPER     JKOP   

              2       8        9.09       700     1000      520     2100     7360     7350      200     2101   
                                         GEOM     BASIS   MCVARS     RHF    F12ABS    EF12    OPTIONS    RHF  

 PROGRAMS   *        TOTAL   CCSD(T)    HF-SCF       INT   CCSD(T)    HF-SCF       INT
 CPU TIMES  *       738.05    139.57     15.84      0.22    551.22     16.81     14.15
 REAL TIME  *       763.50 SEC
 DISK USED  *       570.60 MB (local),        7.61 GB (total)
 SF USED    *         1.36 GB
 GA USED    *         4.87 MB       (max)       0.00 MB       (current)
 **********************************************************************************************************************************

 Running procedure: SET_MONOMER2

 Dummy atoms: O9  H17  H18


 Recomputing one-electron integrals since nuclear charges changed


 PROGRAM * SEWARD (Integral evaluation for generally contracted gaussian basis sets)     Author: Roland Lindh, 1990

 Geometry written to block  1 of record 700


 Point group  C1  



 ATOMIC COORDINATES

 NR  ATOM    CHARGE       X              Y              Z

   1  O9      0.00   -6.649757260   -4.572192358    1.873285507
   2  H17     0.00   -6.404092864   -6.371778547    1.688092347
   3  H18     0.00   -5.651603921   -3.798727456    0.436526735
   4  C1      6.00   -6.193010455    2.801518980    2.403542658
   5  H41     1.00   -4.656285171    1.699997622    3.119937832
   6  H42     1.00   -5.973046335    4.726205038    2.982932688
   7  H43     1.00   -7.940251230    2.077186956    3.118237078
   8  H44     1.00   -6.176569838    2.685300823    0.384937212

 Bond lengths in Bohr (Angstrom)

 1-2  1.825693827  1-3  1.912807835  4-5  2.021904040  4-6  2.022002335  4-7  2.021953343
     ( 0.966115568)     ( 1.012214315)     ( 1.069945541)     ( 1.069997556)     ( 1.069971630)

 4-8  2.022015060
     ( 1.070004290)

 Bond angles

  2-1-3  104.60595341   5-4-6  109.53398059   5-4-7  109.65604535   5-4-8  108.43490854

  6-4-7  109.49436728   6-4-8  109.86987750   7-4-8  109.83468330

 NUCLEAR CHARGE:                   10
 NUMBER OF PRIMITIVE AOS:         296
 NUMBER OF SYMMETRY AOS:          266
 NUMBER OF CONTRACTIONS:          230   (  230A   )
 NUMBER OF CORE ORBITALS:           1   (    1A   )
 NUMBER OF VALENCE ORBITALS:        8   (    8A   )

 MOLECULE CHANGED: INITIALIZING OCCUPATION AND DUMP RECORDS


 NUCLEAR REPULSION ENERGY   13.68681606

 Basis set:  JKFIT                   
 Basis size:   740
 Attributes:
 Sphericals:   T
 Basis set:  MP2FIT                  
 Basis size:   816
 Attributes:
 Sphericals:   T
 Basis set:  RI                      
 Basis size:   556
 Attributes:
 Sphericals:   T
 Basis set:  TDDFT                   
 Basis size:   816
 Attributes:
 Sphericals:   T

 Eigenvalues of metric

         1 0.556E-04 0.709E-04 0.104E-03 0.106E-03 0.333E-03 0.374E-03 0.645E-03 0.771E-03


 Contracted 2-electron integrals neglected if value below      1.0D-14

 OPERATOR DM      FOR CENTER  0  COORDINATES:    0.000000    0.000000    0.000000


 **********************************************************************************************************************************
 DATASETS  * FILE   NREC   LENGTH (MB)   RECORD NAMES
              1      18       32.04       500      610      700      900      950      970     1000      129      960     1100   
                                          VAR    BASINP    GEOM    SYMINP    ZMAT    AOBASIS   BASIS     P2S    ABASIS      S 
                                         1400     1410     1200     1210     1080     1600     1650     1700   
                                           T        V       H0       H01     AOSYM     SMH    MOLCAS    OPER   

              2       8        9.09       700     1000      520     2100     7360     7350      200     2101   
                                         GEOM     BASIS   MCVARS     RHF    F12ABS    EF12    OPTIONS    RHF  

 PROGRAMS   *        TOTAL       INT   CCSD(T)    HF-SCF       INT   CCSD(T)    HF-SCF       INT
 CPU TIMES  *       738.27      0.22    139.57     15.84      0.22    551.22     16.81     14.15
 REAL TIME  *       764.28 SEC
 DISK USED  *       570.60 MB (local),        7.61 GB (total)
 SF USED    *         1.36 GB
 GA USED    *         4.87 MB       (max)       0.00 MB       (current)
 **********************************************************************************************************************************


 PROGRAM * RHF-SCF (CLOSED SHELL)       Authors: W. Meyer, H.-J. Werner


 NUMBER OF ELECTRONS:       5+    5-    SPACE SYMMETRY=1    SPIN SYMMETRY: Singlet 
 CONVERGENCE THRESHOLDS:    1.00E-08 (Density)    1.00E-11 (Energy)
 MAX. NUMBER OF ITERATIONS:       60
 INTERPOLATION TYPE:            DIIS
 INTERPOLATION STEPS:              2 (START)      1 (STEP)
 LEVEL SHIFTS:                  0.00 (CLOSED)  0.00 (OPEN) 



 Orbital guess generated from atomic densities. Full valence occupancy:    9

 Molecular orbital dump at record        2102.2

 Initial occupancy:   5

 ITERATION    DDIFF          GRAD             ENERGY        2-EL.EN.            DIPOLE MOMENTS         DIIS   ORB.
    1      0.000D+00      0.000D+00       -40.19358874     53.494049    0.00411   -0.00274   -0.00131    0    start
    2      0.000D+00      0.353D-02       -40.21070633     52.213682    0.00129   -0.00084   -0.00040    1    diag
    3      0.324D-02      0.137D-02       -40.21295486     52.664857    0.00182   -0.00121   -0.00056    2    diag
    4      0.919D-03      0.342D-03       -40.21327034     52.609829    0.00162   -0.00107   -0.00050    3    diag
    5      0.306D-03      0.444D-04       -40.21327573     52.612168    0.00159   -0.00106   -0.00049    4    diag
    6      0.738D-04      0.344D-05       -40.21327577     52.612265    0.00159   -0.00106   -0.00049    5    diag
    7      0.623D-05      0.264D-06       -40.21327577     52.612231    0.00159   -0.00105   -0.00049    6    diag
    8      0.956D-06      0.221D-07       -40.21327577     52.612231    0.00159   -0.00105   -0.00049    7    diag
    9      0.190D-06      0.286D-08       -40.21327577     52.612232    0.00159   -0.00105   -0.00049    8    diag
   10      0.123D-07      0.800D-09       -40.21327577     52.612231    0.00159   -0.00105   -0.00049    9    orth
   11      0.124D-08      0.106D-09       -40.21327577     52.612232    0.00159   -0.00105   -0.00049    0    orth

 Final occupancy:   5

 !RHF STATE  1.1 Energy               -40.213275771737
 Nuclear energy                        13.68681606
 One-electron energy                  -80.20620758
 Two-electron energy                   26.30611575
 Virial quotient                       -0.99870123
 !RHF STATE  1.1 Dipole moment          0.00158664    -0.00105486    -0.00048712
 Dipole moment /Debye                   0.00403257    -0.00268100    -0.00123806

 Orbital energies:

         1.1          2.1          3.1          4.1          5.1          6.1          7.1
    -11.197211    -0.950741    -0.551695    -0.549760    -0.547580     0.026366     0.038736


 HOMO      5.1    -0.547580 =     -14.9004eV
 LUMO      6.1     0.026366 =       0.7174eV
 LUMO-HOMO         0.573946 =      15.6179eV


 **********************************************************************************************************************************
 DATASETS  * FILE   NREC   LENGTH (MB)   RECORD NAMES
              1      18       32.04       500      610      700      900      950      970     1000      129      960     1100   
                                          VAR    BASINP    GEOM    SYMINP    ZMAT    AOBASIS   BASIS     P2S    ABASIS      S 
                                         1400     1410     1200     1210     1080     1600     1650     1700   
                                           T        V       H0       H01     AOSYM     SMH    MOLCAS    OPER   

              2       9       13.71       700     1000      520     2100     7360     7350      200     2101     2102   
                                         GEOM     BASIS   MCVARS     RHF    F12ABS    EF12    OPTIONS    RHF      RHF  

 PROGRAMS   *        TOTAL    HF-SCF       INT   CCSD(T)    HF-SCF       INT   CCSD(T)    HF-SCF       INT
 CPU TIMES  *       752.61     14.34      0.22    139.57     15.84      0.22    551.22     16.81     14.15
 REAL TIME  *       780.19 SEC
 DISK USED  *       570.60 MB (local),        7.61 GB (total)
 SF USED    *         1.36 GB
 GA USED    *         4.87 MB       (max)       0.00 MB       (current)
 **********************************************************************************************************************************

 Basis set:  JKFIT                   
 Basis size:   740
 Attributes:
 Sphericals:   T
 Basis set:  MP2FIT                  
 Basis size:   816
 Attributes:
 Sphericals:   T
 Basis set:  RI                      
 Basis size:   556
 Attributes:
 Sphericals:   T
 Basis set:  TDDFT                   
 Basis size:   816
 Attributes:
 Sphericals:   T

 PROGRAM * CCSD (Closed-shell coupled cluster)     Authors: C. Hampel, H.-J. Werner, 1991, M. Deegan, P.J. Knowles, 1992

                                  CCSD-F12 implementation by  H.-J. Werner, 2007

                   Density fitting integral evaluation by F.R. Manby, 2003,2007, G. Knizia, 2010



 Convergence thresholds:  THRVAR = 1.00D-08  THRDEN = 1.00D-10

 CCSD(T)     terms to be evaluated (factor= 1.000)


 Number of core orbitals:           1 (   1 )
 Number of closed-shell orbitals:   4 (   4 )
 Number of external orbitals:     225 ( 225 )

 Molecular orbitals read from record     2102.2  Type=RHF/CANONICAL (state 1.1)

 MP2-F12 correlation treatment (H.-J. Werner, 2006)
 ==================================================

 Using MP2-F12 with ansatz 3C(FIX)

 Using projected zeroth-order Hamiltonian (+Z)

 FOCKRIB=T FOCKRIC=T FOCKRIP=T CABSP=T CABSA=T CABSK=T CABSF=T GBC=F EBC=F DMAT=T NOFIK=T NOPAO=1 SOLVE=-1  USEPAO=0
 EXCH_A= T EXCH_B= F EXCH_C= F EXCH_P= F

 Geminal basis:    OPTFULL  GEM_TYPE=SLATER  BETA=1.0  NGEM=6

 Optimizing Gaussian exponents for each gem_beta

 Geminal optimization for beta= 1.0000
 Weight function:   m=0, omega= 1.4646

 Augmented Hessian optimization of geminal fit. Trust ratio= 0.40000
 Convergence reached after   2 iterations. Final gradient= 7.85D-16, Step= 4.26D-06, Delta= 1.28D-09

 Alpha:                 0.19532     0.81920     2.85917     9.50073    35.69989   197.79328
 Coeff:                 0.27070     0.30552     0.18297     0.10986     0.06810     0.04224


 All pairs explicitly correlated. Number of r12-pairs:           10

 Excluding core orbitals from MO domains

 AO(A)-basis ORBITAL           loaded. Number of functions:     230
 RI(R)-basis RI                loaded. Number of functions:     556
 DF-basis JKFIT                loaded. Number of functions:     740

 Screening thresholds:   THRAO=  1.00D-10  THRMO=  1.00D-09  THRPROD=  1.00D-09
                         THRSW=  1.00D-05  THROV=  1.00D-12  THRAOF12= 1.00D-10

 CPU time for Fock operators                      3.11 sec

 Construction of ABS:
 Smallest eigenvalue of S          1.10E-04  (threshold= 1.00E-08)
 Ratio eigmin/eigmax               1.56E-05  (threshold= 1.00E-09)
 Smallest eigenvalue of S kept     1.10E-04  (threshold= 1.10E-04, 0 functions deleted, 556 kept)

 Construction of CABS:
 Smallest eigenvalue of S          6.68E-07  (threshold= 1.00E-08)
 Ratio eigmin/eigmax               6.68E-07  (threshold= 1.00E-09)
 Smallest eigenvalue of S kept     6.68E-07  (threshold= 6.68E-07, 0 functions deleted, 556 kept)

 CPU time for CABS singles                        0.70 sec

 CABS-singles contribution of  -0.00090943 patched into reference energy.
 New reference energy         -40.21418520

 AO(A)-basis ORBITAL           loaded. Number of functions:     230
 RI(R)-basis RI                loaded. Number of functions:     556
 DF-basis MP2FIT               loaded. Number of functions:     816

 Screening thresholds:   THRAO=  1.00D-10  THRMO=  1.00D-09  THRPROD=  1.00D-09
                         THRSW=  1.00D-05  THROV=  1.00D-12  THRAOF12= 1.00D-10

 CPU time for 3-index integral evaluation         5.34 sec
 CPU time for first  half transformation          0.76 sec ( 1795.1 MFLOP/sec)
 CPU time for second half transformation          0.01 sec ( 1231.9 MFLOP/sec)
 CPU time for sorting                             0.01 sec
 CPU time for fitting                             0.43 sec ( 1721.9 MFLOP/sec)
 CPU time for tilde quantities                    0.35 sec ( 6019.3 MFLOP/sec)
 CPU time for assembly                            1.42 sec ( 3218.4 MFLOP/sec)
 CPU time for tranop_f12                          1.22 sec ( 3295.9 MFLOP/sec)
 CPU time for f12 integrals (total)              11.76 sec, Elapsed time:     12.24 sec
 F12-matrices built in  4 passes.
 F12-matrices built in  4 passes.
 F12-matrices built in  4 passes.
 F12-matrices built in  4 passes.
 FC-matrix built in  4 passes.
 CPU time for f12 matrices (total)                0.32 sec, Elapsed time:      0.32 sec

 Diagonal F12 approximation with fixed coefficients:  TSING= 0.500,  TTRIP= 0.250 (scaled by -1/beta)

 DF-MP2-F12 energy corrections:
 ==============================
 Approx.                                    Singlet             Triplet             Total
 DF-MP2-F12/3*C(DX,FIX)                -0.016712772855     -0.001928124936     -0.018640897791
 DF-MP2-F12/3*C(FIX)                   -0.015475534328     -0.001786557124     -0.017262091452
 DF-MP2-F12/3C(FIX)                    -0.015459867264     -0.001777428469     -0.017237295733

 DF-MP2-F12 correlation energies:
 ================================
 Approx.                                    Singlet             Triplet             Ecorr            Total Energy
 DF-MP2                                -0.145432983535     -0.055064698562     -0.200497682096    -40.414682878931
 DF-MP2-F12/3*C(DX,FIX)                -0.162145756390     -0.056992823498     -0.219138579887    -40.433323776722
 DF-MP2-F12/3*C(FIX)                   -0.160908517863     -0.056851255685     -0.217759773548    -40.431944970382
 DF-MP2-F12/3C(FIX)                    -0.160892850798     -0.056842127031     -0.217734977829    -40.431920174664

 SCS-DF-MP2 energies (F_SING= 1.20000  F_TRIP= 0.62222  F_PARALLEL= 0.33333):
 ============================================================================
 SCS-DF-MP2                            -0.208782059347    -40.422967256181
 SCS-DF-MP2-F12/3*C(DX,FIX)            -0.230037108955    -40.444222305790
 SCS-DF-MP2-F12/3*C(FIX)               -0.228464336084    -40.442649532918
 SCS-DF-MP2-F12/3C(FIX)                -0.228439855555    -40.442625052389
 Symmetry transformation completed.

 Number of N-1 electron functions:               4
 Number of N-2 electron functions:              10
 Number of singly external CSFs:               900
 Number of doubly external CSFs:            405450
 Total number of CSFs:                      406351

 Pair and operator lists are different

 Length of J-op  integral file:              81.60 MB
 Length of K-op  integral file:             128.10 MB
 Length of 3-ext integral record:             0.00 MB

 Memory could be reduced to 75.63 Mwords without degradation in triples

 Integral transformation finished. Total CPU:  13.20 sec, npass=  1  Memory used:  32.52 MW

 Reference energy:                    -40.21418520

 Adding F12 terms to K(Cij), methodcc=6,  factor= 1.0

 ITER.      SQ.NORM     CORR.ENERGY   TOTAL ENERGY   ENERGY CHANGE        DEN1      VAR(S)    VAR(P)  DIIS     TIME  TIME/IT
   1      1.06945935    -0.21556660   -40.42975179    -0.01505895    -0.00938273  0.67D-03  0.94D-03  1  1    34.96     4.23
   2      1.07448685    -0.21613445   -40.43031965    -0.00056786    -0.00524376  0.17D-04  0.83D-04  2  2    39.26     4.34
   3      1.07589398    -0.21628941   -40.43047461    -0.00015496    -0.00097882  0.20D-05  0.51D-05  3  3    43.50     4.34
   4      1.07623212    -0.21630176   -40.43048695    -0.00001235    -0.00017402  0.10D-06  0.25D-06  4  4    47.75     4.37
   5      1.07627680    -0.21630049   -40.43048568     0.00000127    -0.00000981  0.77D-08  0.16D-07  5  5    51.93     4.37
   6      1.07628265    -0.21629950   -40.43048469     0.00000099    -0.00000186  0.57D-09  0.12D-08  6  6    56.19     4.39
   7      1.07628379    -0.21629918   -40.43048438     0.00000031    -0.00000072  0.38D-10  0.94D-10  6  1    60.45     4.39
   8      1.07628380    -0.21629929   -40.43048449    -0.00000011     0.00000013  0.37D-11  0.53D-11  6  3    64.65     4.39
   9      1.07628390    -0.21629927   -40.43048447     0.00000002    -0.00000007  0.30D-12  0.46D-12  6  2    68.85     4.38
  10      1.07628391    -0.21629927   -40.43048447     0.00000000     0.00000000  0.35D-13  0.47D-13  6  4    73.02     4.38
  11      1.07628391    -0.21629927   -40.43048447     0.00000000     0.00000000  0.26D-14  0.48D-14  6  5    77.21     4.38
  12      1.07628391    -0.21629927   -40.43048447     0.00000000     0.00000000  0.55D-16  0.57D-15  6  6    81.40     4.38
  13      1.07628391    -0.21629927   -40.43048447    -0.00000000     0.00000000  0.76D-17  0.64D-16  6  1    85.62     4.38
  14      1.07628391    -0.21629927   -40.43048447    -0.00000000     0.00000000  0.14D-17  0.79D-17  6  3    89.79     4.37

 Norm of t1 vector:      0.03361786      S-energy:     0.00000000      T1 diagnostic:  0.00840447
                                                                       D1 diagnostic:  0.01339603

 Adding energy correction from Wij-K(Fij), methodcc=6  factor= 1.0

  CCSD correlation energy              -0.216299269296
  MP2-F12 correction (uncoupled)       -0.017250733198
  C*T doubles correction               -0.000192897100
  f12b correction                       0.003656201252

 Total CPU time for triples:     37.09 sec

  Ecorr(MP2)                           -0.200507642324
  Ecorr(MP2-F12)                       -0.217744938057
  Scale factor for triples energy       1.085968272995


 RESULTS
 =======

  Reference energy                    -40.213275771738
  F12 singles correction               -0.000909425097

 F12 singles corrections added to reference energy

  New reference energy                -40.214185196834

  F12a singlet correction              -0.015640335907
  F12a triplet correction              -0.001803294391
  F12a total correction                -0.017443630299

 F12a corrections for ansatz F12/3C(FIX) added to CCSD energy

  CCSD-F12a singlet pair energy        -0.178526514991
  CCSD-F12a triplet pair energy        -0.055216384629
  CCSD-F12a correlation energy         -0.233742899595

  Triples (T) contribution (scaled)    -0.006800747089
  Total correlation energy             -0.240543646684

  CCSD-F12a total energy              -40.447928096430
  CCSD[T]-F12a energy                 -40.454968024801
  CCSD-T-F12a energy                  -40.454654066644
 !CCSD(T)-F12a total energy           -40.454728843518

 F12b corrections for ansatz F12/3C(FIX) added to CCSD(T)-F12a energy

  CCSD-F12b singlet pair energy        -0.175041384715
  CCSD-F12b triplet pair energy        -0.055045313652
  CCSD-F12b correlation energy         -0.230086698343

  Triples (T) contribution (scaled)    -0.006800747089
  Total correlation energy             -0.236887445432

  CCSD-F12b total energy              -40.444271895177
  CCSD[T]-F12b energy                 -40.451311823549
  CCSD-T-F12b energy                  -40.450997865392
 !CCSD(T)-F12b total energy           -40.451072642266

 Timing summary (sec):

 STEP                 CPU(USER)    SYS     CPU(TOT)    WALL
 Transformation         13.26      0.59     13.85     13.99
 CCSD iterations        59.03      2.21     61.24     61.29
 Triples                37.09      0.29     37.38     37.43
 MP2-F12                17.52      0.61     18.13     18.16
 F12b energy             3.59      0.08      3.67      3.68

 Program statistics:

 Available memory in ccsd:              1999999866
 Min. memory needed in ccsd:               1862772
 Max. memory used in ccsd:                 2158322
 Max. memory used in cckext:               1445635 (15 integral passes)



 **********************************************************************************************************************************
 DATASETS  * FILE   NREC   LENGTH (MB)   RECORD NAMES
              1      19      222.31       500      610      700      900      950      970     1000      129      960     1100   
                                          VAR    BASINP    GEOM    SYMINP    ZMAT    AOBASIS   BASIS     P2S    ABASIS      S 
                                         1400     1410     1200     1210     1080     1600     1650     1700     1380   
                                           T        V       H0       H01     AOSYM     SMH    MOLCAS    OPER     JKOP   

              2       9       13.71       700     1000      520     2100     7360     7350      200     2101     2102   
                                         GEOM     BASIS   MCVARS     RHF    F12ABS    EF12    OPTIONS    RHF      RHF  

 PROGRAMS   *        TOTAL   CCSD(T)    HF-SCF       INT   CCSD(T)    HF-SCF       INT   CCSD(T)    HF-SCF       INT
 CPU TIMES  *       883.35    130.72     14.34      0.22    139.57     15.84      0.22    551.22     16.81     14.15
 REAL TIME  *       915.53 SEC
 DISK USED  *       570.60 MB (local),        7.61 GB (total)
 SF USED    *         1.36 GB
 GA USED    *         4.87 MB       (max)       0.00 MB       (current)
 **********************************************************************************************************************************
 Molecular orbitals read from record     2102.2  Type=RHF/CANONICAL (state 1.1)
 Occupation numbers read from record     2102.2  Type=RHF/RHF (state 1.1)
 Orbital energies read from record       2102.2  Type=RHF/CANONICAL (state 1.1)
 Redundancy group numbers read from rec  2102.2  Type=RHF/RHF (state 1.1)

 CCSD(T)-F12/aug-cc-pVTZ energy=    -40.451072642266

     CCSD(T)-F12          HF-SCF     CCSD(T)-F12          HF-SCF     CCSD(T)-F12          HF-SCF
    -40.45107264    -40.21327577    -76.36093353    -76.05581005   -116.81253106   -116.26903465
 **********************************************************************************************************************************
 Molpro calculation terminated
