
 Primary working directories    : /scratch/klimes/383157/molpro.ZrO9owtk34
 Secondary working directories  : /scratch/klimes/383157/molpro.ZrO9owtk34
 Wavefunction directory         : /scratch/klimes/383157/
 Main file repository           : /scratch/klimes/383157/molpro.ZrO9owtk34/

 id        : karlovklimes

 Nodes                      nprocs
 nc-03.cc.karlov.mff.cuni.cz    4

 Using customized tuning parameters: mindgm=1; mindgv=20; mindgc=4; mindgr=1; noblas=0; minvec=7
 default implementation of scratch files=sf  


 Variables initialized (930), CPU time= 0.01 sec
                                                                                 !gdirect
 memory,2000,m
 gthresh,orbital=1d-10,energy=1d-10,grid=1d-8
 
 symmetry,nosym
 angstrom
 geometry={
 O10        -3.744400000000      0.396600000000     -2.499800000000
 H19        -4.617400000000      0.462100000000     -2.021700000000
 H20        -3.968900000000      0.126100000000     -3.399000000000
 C1        -3.277200000000      1.482500000000      1.271900000000
 H41        -2.464000000000      0.899600000000      1.651000000000
 H42        -3.160800000000      2.501000000000      1.578500000000
 H43        -4.201800000000      1.099200000000      1.650100000000
 H44        -3.268500000000      1.421000000000      0.203700000000
 }
 
 nkerna=1
 nkernb=1
 
 gf=0
 sing=1
 thrdum=1d-4
 gridthr=1d-8
 
 basis={
 set,orbital
 default,avtz
 set,jkfit
 default,avqz/jkfit
 set,mp2fit
 default,avqz/mp2fit
 set,ri
 default,avqz/optri
 set,tddft
 default,avqz/mp2fit
 }
 
 proc set_monomer1
 dummy,4,5,6,7,8
 endproc
 
 proc set_monomer2
 dummy,1,2,3
 endproc
 
                                                                                 !12 energy
 {hf,accu=1.d-16}
 {ccsd(t)-f12,df_basis=mp2fit,df_basis_exch=jkfit,ri_basis=ri,scale_trip=1,THRAOF12=1d-10}
 
 set_monomer1
 {hf,accu=1.d-16}
 {ccsd(t)-f12,df_basis=mp2fit,df_basis_exch=jkfit,ri_basis=ri,scale_trip=1,THRAOF12=1d-10}
 
 set_monomer2
 {hf,accu=1.d-16}
 {ccsd(t)-f12,df_basis=mp2fit,df_basis_exch=jkfit,ri_basis=ri,scale_trip=1,THRAOF12=1d-10}
 
 Commands  initialized (760), CPU time= 0.02 sec, 617 directives.
 Default parameters read. Elapsed time= 0.21 sec

 Checking input...
 Passed
1


                                         ***  PROGRAM SYSTEM MOLPRO  ***
                                       Copyright, TTI GmbH Stuttgart, 2015
                                    Version 2019.1 linked Jan 14 2019 13:09:19


 **********************************************************************************************************************************
 LABEL *                                                                                 
  64 bit mpp version                                                                     DATE: 11-Mar-20          TIME: 16:17:26  
 **********************************************************************************************************************************

 SHA1:             d688ac825633d238f2093ded1675ba87ccd55965
 **********************************************************************************************************************************

 THRESHOLDS:

 ZERO    =  1.00D-12  ONEINT  =  1.00D-12  TWOINT  =  1.00D-11  PREFAC  =  1.00D-14  XXXXXX  =  1.00D-09  EORDER  =  1.00D-04
 ENERGY  =  1.00D-10  ETEST   =  0.00D+00  EDENS   =  0.00D+00  THRDEDEF=  1.00D-06  GRADIENT=  1.00D-02  STEP    =  1.00D-03
 ORBITAL =  1.00D-10  CIVEC   =  1.00D-05  COEFF   =  1.00D-04  PRINTCI =  5.00D-02  PUNCHCI =  9.90D+01  OPTGRAD =  3.00D-04
 OPTENERG=  1.00D-06  OPTSTEP =  3.00D-04  THRGRAD =  1.00D-10  COMPRESS=  1.00D-11  VARMIN  =  1.00D-07  VARMAX  =  1.00D-03
 THRDOUB =  0.00D+00  THRDIV  =  1.00D-05  THRRED  =  1.00D-07  THRPSP  =  1.00D+00  THRDC   =  1.00D-10  THRCS   =  1.00D-10
 THRNRM  =  1.00D-08  THREQ   =  0.00D+00  THRDE   =  1.00D+00  THRREF  =  1.00D-05  SPARFAC =  1.00D+00  THRDLP  =  1.00D-07
 THRDIA  =  1.00D-10  THRDLS  =  1.00D-07  THRGPS  =  0.00D+00  THRKEX  =  0.00D+00  THRDIS  =  2.00D-01  THRVAR  =  1.00D-10
 THRLOC  =  1.00D-06  THRGAP  =  1.00D-06  THRLOCT = -1.00D+00  THRGAPT = -1.00D+00  THRORB  =  1.00D-06  THRMLTP =  0.00D+00
 THRCPQCI=  1.00D-10  KEXTA   =  0.00D+00  THRCOARS=  0.00D+00  SYMTOL  =  1.00D-06  GRADTOL =  1.00D-06  THROVL  =  1.00D-08
 THRORTH =  1.00D-08  GRID    =  1.00D-08  GRIDMAX =  1.00D-03  DTMAX   =  0.00D+00  THROCCDE=  1.00D-01  THROCCDE=  1.00D-01
 THRPRINT=  2.50D-01


 Variable memory set to 2000000000 words,  buffer space 

 ZSYMEL=NOSYM
 ZUNIT=ANG


Geometry recognized as XYZ

 SETTING NKERNA         =         1.00000000                                  
 SETTING NKERNB         =         1.00000000                                  
 SETTING GF             =     0.00000000D+00                                  
 SETTING SING           =         1.00000000                                  
 SETTING THRDUM         =     1.00000000D-04                                  
 SETTING GRIDTHR        =     1.00000000D-08                                  
 SETTING BASIS          =    AVTZ


 Recomputing integrals since basis changed


 Using spherical harmonics

 Library entry O      S aug-cc-pVTZ          selected for orbital group  1
 Library entry O      P aug-cc-pVTZ          selected for orbital group  1
 Library entry O      D aug-cc-pVTZ          selected for orbital group  1
 Library entry O      F aug-cc-pVTZ          selected for orbital group  1
 Library entry H      S aug-cc-pVTZ          selected for orbital group  2
 Library entry H      P aug-cc-pVTZ          selected for orbital group  2
 Library entry H      D aug-cc-pVTZ          selected for orbital group  2
 Library entry C      S aug-cc-pVTZ          selected for orbital group  3
 Library entry C      P aug-cc-pVTZ          selected for orbital group  3
 Library entry C      D aug-cc-pVTZ          selected for orbital group  3
 Library entry C      F aug-cc-pVTZ          selected for orbital group  3


 PROGRAM * SEWARD (Integral evaluation for generally contracted gaussian basis sets)     Author: Roland Lindh, 1990

 Geometry written to block  1 of record 700


 Point group  C1  



 ATOMIC COORDINATES

 NR  ATOM    CHARGE       X              Y              Z

   1  O10     8.00   -7.075890501    0.749465381   -4.723937366
   2  H19     1.00   -8.725621408    0.873242442   -3.820459306
   3  H20     1.00   -7.500134016    0.238294464   -6.423179097
   4  C1      6.00   -6.193010455    2.801518980    2.403542658
   5  H41     1.00   -4.656285171    1.699997622    3.119937832
   6  H42     1.00   -5.973046335    4.726205038    2.982932688
   7  H43     1.00   -7.940251230    2.077186956    3.118237078
   8  H44     1.00   -6.176569838    2.685300823    0.384937212

 Bond lengths in Bohr (Angstrom)

 1-2  1.884994809  1-3  1.824472726  4-5  2.021904040  4-6  2.022002335  4-7  2.021953343
     ( 0.997496296)     ( 0.965469388)     ( 1.069945541)     ( 1.069997556)     ( 1.069971630)

 4-8  2.022015060
     ( 1.070004290)

 Bond angles

  2-1-3  105.14667399   5-4-6  109.53398059   5-4-7  109.65604535   5-4-8  108.43490854

  6-4-7  109.49436728   6-4-8  109.86987750   7-4-8  109.83468330

 NUCLEAR CHARGE:                   20
 NUMBER OF PRIMITIVE AOS:         296
 NUMBER OF SYMMETRY AOS:          266
 NUMBER OF CONTRACTIONS:          230   (  230A   )
 NUMBER OF CORE ORBITALS:           2   (    2A   )
 NUMBER OF VALENCE ORBITALS:       14   (   14A   )


 NUCLEAR REPULSION ENERGY   35.92323390


 Basis set:  JKFIT                   
 Basis size:   740
 Attributes:
 Sphericals:   T
 Basis set:  MP2FIT                  
 Basis size:   816
 Attributes:
 Sphericals:   T
 Basis set:  RI                      
 Basis size:   556
 Attributes:
 Sphericals:   T
 Basis set:  TDDFT                   
 Basis size:   816
 Attributes:
 Sphericals:   T

 **********************************************************************************************************************************


 Eigenvalues of metric

         1 0.512E-04 0.790E-04 0.100E-03 0.105E-03 0.330E-03 0.348E-03 0.610E-03 0.717E-03


 Contracted 2-electron integrals neglected if value below      1.0D-14
 AO integral compression algorithm  1   Integral accuracy      1.0D-14

     2042.364 MB (compressed) written to integral file ( 63.7%)

     Node minimum: 471.335 MB, node maximum: 532.414 MB


 NUMBER OF SORTED TWO-ELECTRON INTEGRALS:   88219044.     BUFFER LENGTH:  32768
 NUMBER OF SEGMENTS:   6  SEGMENT LENGTH:   15998348      RECORD LENGTH: 524288

 Memory used in sort:      16.56 MW

 SORT1 READ   400769927. AND WROTE    79169450. INTEGRALS IN    229 RECORDS. CPU TIME:     7.80 SEC, REAL TIME:     8.90 SEC
 SORT2 READ   316739054. AND WROTE   352862895. INTEGRALS IN   7192 RECORDS. CPU TIME:     1.98 SEC, REAL TIME:     2.82 SEC

 Node minimum:    88205762.  Node maximum:    88225686. integrals

 OPERATOR DM      FOR CENTER  0  COORDINATES:    0.000000    0.000000    0.000000


 **********************************************************************************************************************************
 DATASETS  * FILE   NREC   LENGTH (MB)   RECORD NAMES
              1      18       32.04       500      610      700      900      950      970     1000      129      960     1100   
                                          VAR    BASINP    GEOM    SYMINP    ZMAT    AOBASIS   BASIS     P2S    ABASIS      S 
                                         1400     1410     1200     1210     1080     1600     1650     1700   
                                           T        V       H0       H01     AOSYM     SMH    MOLCAS    OPER   

 PROGRAMS   *        TOTAL       INT
 CPU TIMES  *        14.70     14.46
 REAL TIME  *        19.90 SEC
 DISK USED  *        32.49 MB (local),        5.92 GB (total)
 GA USED    *         0.00 MB       (max)       0.00 MB       (current)
 **********************************************************************************************************************************


 PROGRAM * RHF-SCF (CLOSED SHELL)       Authors: W. Meyer, H.-J. Werner


 NUMBER OF ELECTRONS:      10+   10-    SPACE SYMMETRY=1    SPIN SYMMETRY: Singlet 
 CONVERGENCE THRESHOLDS:    1.00E-08 (Density)    1.00E-11 (Energy)
 MAX. NUMBER OF ITERATIONS:       60
 INTERPOLATION TYPE:            DIIS
 INTERPOLATION STEPS:              2 (START)      1 (STEP)
 LEVEL SHIFTS:                  0.00 (CLOSED)  0.00 (OPEN) 



 Orbital guess generated from atomic densities. Full valence occupancy:   16

 Molecular orbital dump at record        2100.2

 Initial occupancy:  10

 ITERATION    DDIFF          GRAD             ENERGY        2-EL.EN.            DIPOLE MOMENTS         DIIS   ORB.
    1      0.000D+00      0.000D+00      -116.21311734    157.492803   -1.06346   -0.20050   -0.40397    0    start
    2      0.000D+00      0.521D-02      -116.25673150    152.519231   -0.58241   -0.12749   -0.28506    1    diag
    3      0.548D-02      0.307D-02      -116.27011528    154.576070   -0.70401   -0.14578   -0.31747    2    diag
    4      0.183D-02      0.454D-03      -116.27076714    154.464083   -0.69335   -0.14384   -0.31484    3    diag
    5      0.402D-03      0.133D-03      -116.27083452    154.459089   -0.69258   -0.14375   -0.31547    4    diag
    6      0.146D-03      0.325D-04      -116.27083834    154.464940   -0.69171   -0.14358   -0.31536    5    diag
    7      0.407D-04      0.634D-05      -116.27083857    154.463472   -0.69169   -0.14357   -0.31539    6    diag
    8      0.112D-04      0.160D-05      -116.27083858    154.463622   -0.69161   -0.14356   -0.31538    7    diag
    9      0.233D-05      0.364D-06      -116.27083858    154.463596   -0.69158   -0.14355   -0.31538    8    diag
   10      0.765D-06      0.416D-07      -116.27083858    154.463597   -0.69158   -0.14356   -0.31538    9    orth
   11      0.646D-07      0.102D-07      -116.27083858    154.463599   -0.69158   -0.14356   -0.31538    9    diag
   12      0.228D-07      0.259D-08      -116.27083858    154.463598   -0.69158   -0.14356   -0.31538    9    diag
   13      0.393D-08      0.681D-09      -116.27083858    154.463599   -0.69158   -0.14356   -0.31538    0    orth

 Final occupancy:  10

 !RHF STATE  1.1 Energy              -116.270838584005
 Nuclear energy                        35.92323390
 One-electron energy                 -229.42587182
 Two-electron energy                   77.23179934
 Virial quotient                       -1.00116950
 !RHF STATE  1.1 Dipole moment         -0.69158135    -0.14355512    -0.31538220
 Dipole moment /Debye                  -1.75770933    -0.36485682    -0.80156909

 Orbital energies:

         1.1          2.1          3.1          4.1          5.1          6.1          7.1          8.1          9.1         10.1
    -20.572049   -11.191502    -1.342399    -0.945403    -0.707423    -0.580739    -0.545903    -0.544947    -0.541409    -0.509363

        11.1         12.1
      0.025949     0.040179


 HOMO     10.1    -0.509363 =     -13.8605eV
 LUMO     11.1     0.025949 =       0.7061eV
 LUMO-HOMO         0.535312 =      14.5666eV


 **********************************************************************************************************************************
 DATASETS  * FILE   NREC   LENGTH (MB)   RECORD NAMES
              1      18       32.04       500      610      700      900      950      970     1000      129      960     1100   
                                          VAR    BASINP    GEOM    SYMINP    ZMAT    AOBASIS   BASIS     P2S    ABASIS      S 
                                         1400     1410     1200     1210     1080     1600     1650     1700   
                                           T        V       H0       H01     AOSYM     SMH    MOLCAS    OPER   

              2       4        3.96       700     1000      520     2100   
                                         GEOM     BASIS   MCVARS     RHF  

 PROGRAMS   *        TOTAL    HF-SCF       INT
 CPU TIMES  *        29.10     14.40     14.46
 REAL TIME  *        35.86 SEC
 DISK USED  *        39.90 MB (local),        5.95 GB (total)
 SF USED    *         0.21 MB
 GA USED    *         0.00 MB       (max)       0.00 MB       (current)
 **********************************************************************************************************************************

 Basis set:  JKFIT                   
 Basis size:   740
 Attributes:
 Sphericals:   T
 Basis set:  MP2FIT                  
 Basis size:   816
 Attributes:
 Sphericals:   T
 Basis set:  RI                      
 Basis size:   556
 Attributes:
 Sphericals:   T
 Basis set:  TDDFT                   
 Basis size:   816
 Attributes:
 Sphericals:   T

 PROGRAM * CCSD (Closed-shell coupled cluster)     Authors: C. Hampel, H.-J. Werner, 1991, M. Deegan, P.J. Knowles, 1992

                                  CCSD-F12 implementation by  H.-J. Werner, 2007

                   Density fitting integral evaluation by F.R. Manby, 2003,2007, G. Knizia, 2010



 Convergence thresholds:  THRVAR = 1.00D-08  THRDEN = 1.00D-10

 CCSD(T)     terms to be evaluated (factor= 1.000)


 Number of core orbitals:           2 (   2 )
 Number of closed-shell orbitals:   8 (   8 )
 Number of external orbitals:     220 ( 220 )

 Molecular orbitals read from record     2100.2  Type=RHF/CANONICAL (state 1.1)

 MP2-F12 correlation treatment (H.-J. Werner, 2006)
 ==================================================

 Using MP2-F12 with ansatz 3C(FIX)

 Using projected zeroth-order Hamiltonian (+Z)

 FOCKRIB=T FOCKRIC=T FOCKRIP=T CABSP=T CABSA=T CABSK=T CABSF=T GBC=F EBC=F DMAT=T NOFIK=T NOPAO=1 SOLVE=-1  USEPAO=0
 EXCH_A= T EXCH_B= F EXCH_C= F EXCH_P= F

 Geminal basis:    OPTFULL  GEM_TYPE=SLATER  BETA=1.0  NGEM=6

 Optimizing Gaussian exponents for each gem_beta

 Geminal optimization for beta= 1.0000
 Weight function:   m=0, omega= 1.4646

 Augmented Hessian optimization of geminal fit. Trust ratio= 0.40000
 Convergence reached after   2 iterations. Final gradient= 7.85D-16, Step= 4.26D-06, Delta= 1.28D-09

 Alpha:                 0.19532     0.81920     2.85917     9.50073    35.69989   197.79328
 Coeff:                 0.27070     0.30552     0.18297     0.10986     0.06810     0.04224


 All pairs explicitly correlated. Number of r12-pairs:           36

 Excluding core orbitals from MO domains

 AO(A)-basis ORBITAL           loaded. Number of functions:     230
 RI(R)-basis RI                loaded. Number of functions:     556
 DF-basis JKFIT                loaded. Number of functions:     740

 Screening thresholds:   THRAO=  1.00D-10  THRMO=  1.00D-09  THRPROD=  1.00D-09
                         THRSW=  1.00D-05  THROV=  1.00D-12  THRAOF12= 1.00D-10

 CPU time for Fock operators                      3.67 sec

 Construction of ABS:
 Smallest eigenvalue of S          1.14E-04  (threshold= 1.00E-08)
 Ratio eigmin/eigmax               1.62E-05  (threshold= 1.00E-09)
 Smallest eigenvalue of S kept     1.14E-04  (threshold= 1.14E-04, 0 functions deleted, 556 kept)

 Construction of CABS:
 Smallest eigenvalue of S          5.53E-07  (threshold= 1.00E-08)
 Ratio eigmin/eigmax               5.53E-07  (threshold= 1.00E-09)
 Smallest eigenvalue of S kept     5.53E-07  (threshold= 5.53E-07, 0 functions deleted, 556 kept)

 CPU time for CABS singles                        0.68 sec

 CABS-singles contribution of  -0.00236575 patched into reference energy.
 New reference energy        -116.27320433

 AO(A)-basis ORBITAL           loaded. Number of functions:     230
 RI(R)-basis RI                loaded. Number of functions:     556
 DF-basis MP2FIT               loaded. Number of functions:     816

 Screening thresholds:   THRAO=  1.00D-10  THRMO=  1.00D-09  THRPROD=  1.00D-09
                         THRSW=  1.00D-05  THROV=  1.00D-12  THRAOF12= 1.00D-10

 CPU time for 3-index integral evaluation         5.47 sec
 CPU time for first  half transformation          1.11 sec ( 2547.3 MFLOP/sec)
 CPU time for second half transformation          0.06 sec (  808.4 MFLOP/sec)
 CPU time for sorting                             0.09 sec
 CPU time for fitting                             0.60 sec ( 3622.3 MFLOP/sec)
 CPU time for tilde quantities                    0.68 sec ( 4057.8 MFLOP/sec)
 CPU time for assembly                            4.81 sec ( 4117.7 MFLOP/sec)
 CPU time for tranop_f12                          4.46 sec ( 4280.2 MFLOP/sec)
 CPU time for f12 integrals (total)              24.29 sec, Elapsed time:     25.51 sec
 F12-matrices built in  4 passes.
 F12-matrices built in  4 passes.
 F12-matrices built in  4 passes.
 F12-matrices built in  4 passes.
 FC-matrix built in  4 passes.
 CPU time for f12 matrices (total)                1.17 sec, Elapsed time:      1.33 sec

 Diagonal F12 approximation with fixed coefficients:  TSING= 0.500,  TTRIP= 0.250 (scaled by -1/beta)

 DF-MP2-F12 energy corrections:
 ==============================
 Approx.                                    Singlet             Triplet             Total
 DF-MP2-F12/3*C(DX,FIX)                -0.046208595111     -0.006799942347     -0.053008537458
 DF-MP2-F12/3*C(FIX)                   -0.039900652976     -0.005608122752     -0.045508775729
 DF-MP2-F12/3C(FIX)                    -0.040020480327     -0.005573472869     -0.045593953196

 DF-MP2-F12 correlation energies:
 ================================
 Approx.                                    Singlet             Triplet             Ecorr            Total Energy
 DF-MP2                                -0.317562600213     -0.153953334347     -0.471515934560   -116.744720266757
 DF-MP2-F12/3*C(DX,FIX)                -0.363771195324     -0.160753276694     -0.524524472018   -116.797728804215
 DF-MP2-F12/3*C(FIX)                   -0.357463253189     -0.159561457100     -0.517024710289   -116.790229042486
 DF-MP2-F12/3C(FIX)                    -0.357583080540     -0.159526807216     -0.517109887756   -116.790314219953

 SCS-DF-MP2 energies (F_SING= 1.20000  F_TRIP= 0.62222  F_PARALLEL= 0.33333):
 ============================================================================
 SCS-DF-MP2                            -0.476868306072   -116.750072638269
 SCS-DF-MP2-F12/3*C(DX,FIX)            -0.536549695443   -116.809754027640
 SCS-DF-MP2-F12/3*C(FIX)               -0.528238588245   -116.801442920442
 SCS-DF-MP2-F12/3C(FIX)                -0.528360821138   -116.801565153335
 Symmetry transformation completed.

 Number of N-1 electron functions:               8
 Number of N-2 electron functions:              36
 Number of singly external CSFs:              1760
 Number of doubly external CSFs:           1549680
 Total number of CSFs:                     1551441

 Pair and operator lists are different

 Length of J-op  integral file:             315.61 MB
 Length of K-op  integral file:             368.50 MB
 Length of 3-ext integral record:             0.00 MB

 Memory could be reduced to 116.32 Mwords without degradation in triples

 Integral transformation finished. Total CPU:  26.35 sec, npass=  1  Memory used:  59.34 MW

 Reference energy:                   -116.27320433

 Adding F12 terms to K(Cij), methodcc=6,  factor= 1.0

 ITER.      SQ.NORM     CORR.ENERGY   TOTAL ENERGY   ENERGY CHANGE        DEN1      VAR(S)    VAR(P)  DIIS     TIME  TIME/IT
   1      1.13222685    -0.48610060  -116.75930493    -0.01456705    -0.00291548  0.15D-02  0.20D-02  1  1    73.17    15.10
   2      1.14049118    -0.48636210  -116.75956644    -0.00026150    -0.00972974  0.28D-04  0.23D-03  2  2    88.18    15.20
   3      1.14336491    -0.48662255  -116.75982688    -0.00026044    -0.00196217  0.12D-04  0.12D-04  3  3   103.22    15.26
   4      1.14423959    -0.48667842  -116.75988275    -0.00005587    -0.00048098  0.52D-06  0.11D-05  4  4   118.29    15.31
   5      1.14438325    -0.48667288  -116.75987721     0.00000554    -0.00003849  0.19D-06  0.74D-07  5  5   133.32    15.32
   6      1.14442335    -0.48667007  -116.75987441     0.00000280    -0.00000629  0.17D-07  0.53D-08  6  6   148.29    15.33
   7      1.14443280    -0.48666934  -116.75987367     0.00000073    -0.00000262  0.14D-08  0.71D-09  6  2   163.28    15.34
   8      1.14443475    -0.48666931  -116.75987365     0.00000003    -0.00000013  0.22D-09  0.69D-10  6  1   178.31    15.34
   9      1.14443544    -0.48666934  -116.75987367    -0.00000002    -0.00000006  0.21D-10  0.13D-10  6  3   193.35    15.35
  10      1.14443553    -0.48666933  -116.75987367     0.00000000     0.00000007  0.30D-11  0.15D-11  6  4   208.42    15.36
  11      1.14443548    -0.48666934  -116.75987367    -0.00000001     0.00000007  0.54D-12  0.23D-12  6  5   223.53    15.36
  12      1.14443544    -0.48666934  -116.75987367    -0.00000000     0.00000002  0.11D-12  0.32D-13  6  6   238.55    15.36
  13      1.14443542    -0.48666934  -116.75987367    -0.00000000     0.00000001  0.16D-13  0.46D-14  6  2   253.69    15.37
  14      1.14443541    -0.48666934  -116.75987367    -0.00000000     0.00000000  0.18D-14  0.97D-15  6  1   268.71    15.37
  15      1.14443541    -0.48666934  -116.75987367    -0.00000000    -0.00000000  0.22D-15  0.10D-15  6  3   283.82    15.38
  16      1.14443541    -0.48666934  -116.75987367     0.00000000    -0.00000000  0.31D-16  0.15D-16  6  4   298.92    15.38

 Norm of t1 vector:      0.05041426      S-energy:     0.00000000      T1 diagnostic:  0.00891207
                                                                       D1 diagnostic:  0.01879852

 Adding energy correction from Wij-K(Fij), methodcc=6  factor= 1.0

  CCSD correlation energy              -0.486669342649
  MP2-F12 correction (uncoupled)       -0.045329332914
  C*T doubles correction               -0.000609691753
  f12b correction                       0.008422524525


 Total CPU time for triples:    236.78 sec

  Ecorr(MP2)                           -0.471533551020
  Ecorr(MP2-F12)                       -0.517127504216
  Scale factor for triples energy       1.096692914210


 RESULTS
 =======

  Reference energy                   -116.270838584006
  F12 singles correction               -0.002365748191

 F12 singles corrections added to reference energy

  New reference energy               -116.273204332197

  F12a singlet correction              -0.040270348838
  F12a triplet correction              -0.005668675829
  F12a total correction                -0.045939024667

 F12a corrections for ansatz F12/3C(FIX) added to CCSD energy

  CCSD-F12a singlet pair energy        -0.386215310719
  CCSD-F12a triplet pair energy        -0.146393056752
  CCSD-F12a correlation energy         -0.532608367316

  Triples (T) contribution (scaled)    -0.016498187093
  Total correlation energy             -0.549106554408

  CCSD-F12a total energy             -116.805812699513
  CCSD[T]-F12a energy                -116.822903176351
  CCSD-T-F12a energy                 -116.822090737729
 !CCSD(T)-F12a total energy          -116.822310886605

 F12b corrections for ansatz F12/3C(FIX) added to CCSD(T)-F12a energy

  CCSD-F12b singlet pair energy        -0.378323889700
  CCSD-F12b triplet pair energy        -0.145861953246
  CCSD-F12b correlation energy         -0.524185842791

  Triples (T) contribution (scaled)    -0.016498187093
  Total correlation energy             -0.540684029883

  CCSD-F12b total energy             -116.797390174988
  CCSD[T]-F12b energy                -116.814480651826
  CCSD-T-F12b energy                 -116.813668213204
 !CCSD(T)-F12b total energy          -116.813888362080

 Timing summary (sec):

 STEP                 CPU(USER)    SYS     CPU(TOT)    WALL
 Transformation         26.52      1.23     27.75     27.85
 CCSD iterations       240.61      5.21    245.82    246.19
 Triples               236.78      1.45    238.23    238.56
 MP2-F12                31.81      1.18     32.99     33.56
 F12b energy            11.61      0.13     11.74     11.76

 Program statistics:

 Available memory in ccsd:              1999999554
 Min. memory needed in ccsd:               4597329
 Max. memory used in ccsd:                 5918289
 Max. memory used in cckext:               4231061 (17 integral passes)



 **********************************************************************************************************************************
 DATASETS  * FILE   NREC   LENGTH (MB)   RECORD NAMES
              1      19      398.06       500      610      700      900      950      970     1000      129      960     1100   
                                          VAR    BASINP    GEOM    SYMINP    ZMAT    AOBASIS   BASIS     P2S    ABASIS      S 
                                         1400     1410     1200     1210     1080     1600     1650     1700     1380   
                                           T        V       H0       H01     AOSYM     SMH    MOLCAS    OPER     JKOP   

              2       6        5.03       700     1000      520     2100     7360     7350   
                                         GEOM     BASIS   MCVARS     RHF    F12ABS    EF12   

 PROGRAMS   *        TOTAL   CCSD(T)    HF-SCF       INT
 CPU TIMES  *       576.68    547.56     14.40     14.46
 REAL TIME  *       594.69 SEC
 DISK USED  *       570.60 MB (local),        7.57 GB (total)
 SF USED    *         1.36 GB
 GA USED    *         4.87 MB       (max)       0.00 MB       (current)
 **********************************************************************************************************************************

 Running procedure: SET_MONOMER1

 Dummy atoms: C1  H41  H42  H43  H44


 Recomputing one-electron integrals since nuclear charges changed


 PROGRAM * SEWARD (Integral evaluation for generally contracted gaussian basis sets)     Author: Roland Lindh, 1990

 Geometry written to block  1 of record 700


 Point group  C1  



 ATOMIC COORDINATES

 NR  ATOM    CHARGE       X              Y              Z

   1  O10     8.00   -7.075890501    0.749465381   -4.723937366
   2  H19     1.00   -8.725621408    0.873242442   -3.820459306
   3  H20     1.00   -7.500134016    0.238294464   -6.423179097
   4  C1      0.00   -6.193010455    2.801518980    2.403542658
   5  H41     0.00   -4.656285171    1.699997622    3.119937832
   6  H42     0.00   -5.973046335    4.726205038    2.982932688
   7  H43     0.00   -7.940251230    2.077186956    3.118237078
   8  H44     0.00   -6.176569838    2.685300823    0.384937212

 Bond lengths in Bohr (Angstrom)

 1-2  1.884994809  1-3  1.824472726  4-5  2.021904040  4-6  2.022002335  4-7  2.021953343
     ( 0.997496296)     ( 0.965469388)     ( 1.069945541)     ( 1.069997556)     ( 1.069971630)

 4-8  2.022015060
     ( 1.070004290)

 Bond angles

  2-1-3  105.14667399   5-4-6  109.53398059   5-4-7  109.65604535   5-4-8  108.43490854

  6-4-7  109.49436728   6-4-8  109.86987750   7-4-8  109.83468330

 NUCLEAR CHARGE:                   10
 NUMBER OF PRIMITIVE AOS:         296
 NUMBER OF SYMMETRY AOS:          266
 NUMBER OF CONTRACTIONS:          230   (  230A   )
 NUMBER OF CORE ORBITALS:           1   (    1A   )
 NUMBER OF VALENCE ORBITALS:        6   (    6A   )

 MOLECULE CHANGED: INITIALIZING OCCUPATION AND DUMP RECORDS


 NUCLEAR REPULSION ENERGY    8.96831117

 Basis set:  JKFIT                   
 Basis size:   740
 Attributes:
 Sphericals:   T
 Basis set:  MP2FIT                  
 Basis size:   816
 Attributes:
 Sphericals:   T
 Basis set:  RI                      
 Basis size:   556
 Attributes:
 Sphericals:   T
 Basis set:  TDDFT                   
 Basis size:   816
 Attributes:
 Sphericals:   T

 Eigenvalues of metric

         1 0.512E-04 0.790E-04 0.100E-03 0.105E-03 0.330E-03 0.348E-03 0.610E-03 0.717E-03


 Contracted 2-electron integrals neglected if value below      1.0D-14

 OPERATOR DM      FOR CENTER  0  COORDINATES:    0.000000    0.000000    0.000000


 **********************************************************************************************************************************
 DATASETS  * FILE   NREC   LENGTH (MB)   RECORD NAMES
              1      18       32.04       500      610      700      900      950      970     1000      129      960     1100   
                                          VAR    BASINP    GEOM    SYMINP    ZMAT    AOBASIS   BASIS     P2S    ABASIS      S 
                                         1400     1410     1200     1210     1080     1600     1650     1700   
                                           T        V       H0       H01     AOSYM     SMH    MOLCAS    OPER   

              2       7        5.05       700     1000      520     2100     7360     7350      200   
                                         GEOM     BASIS   MCVARS     RHF    F12ABS    EF12    OPTIONS    

 PROGRAMS   *        TOTAL       INT   CCSD(T)    HF-SCF       INT
 CPU TIMES  *       576.93      0.24    547.56     14.40     14.46
 REAL TIME  *       595.48 SEC
 DISK USED  *       570.60 MB (local),        7.58 GB (total)
 SF USED    *         1.36 GB
 GA USED    *         4.87 MB       (max)       0.00 MB       (current)
 **********************************************************************************************************************************


 PROGRAM * RHF-SCF (CLOSED SHELL)       Authors: W. Meyer, H.-J. Werner


 NUMBER OF ELECTRONS:       5+    5-    SPACE SYMMETRY=1    SPIN SYMMETRY: Singlet 
 CONVERGENCE THRESHOLDS:    1.00E-08 (Density)    1.00E-11 (Energy)
 MAX. NUMBER OF ITERATIONS:       60
 INTERPOLATION TYPE:            DIIS
 INTERPOLATION STEPS:              2 (START)      1 (STEP)
 LEVEL SHIFTS:                  0.00 (CLOSED)  0.00 (OPEN) 



 Orbital guess generated from atomic densities. Full valence occupancy:    7

 Molecular orbital dump at record        2101.2

 Initial occupancy:   5

 ITERATION    DDIFF          GRAD             ENERGY        2-EL.EN.            DIPOLE MOMENTS         DIIS   ORB.
    1      0.000D+00      0.000D+00       -76.01912513     77.337116   -1.06820   -0.19637   -0.39862    0    start
    2      0.000D+00      0.640D-02       -76.04580601     73.691535   -0.61491   -0.11591   -0.23978    1    diag
    3      0.445D-02      0.410D-02       -76.05730887     75.305949   -0.72660   -0.13636   -0.28110    2    diag
    4      0.162D-02      0.377D-03       -76.05750308     75.216429   -0.72133   -0.13596   -0.28118    3    diag
    5      0.209D-03      0.106D-03       -76.05752393     75.230731   -0.71931   -0.13583   -0.28127    4    diag
    6      0.689D-04      0.209D-04       -76.05752526     75.229810   -0.71886   -0.13582   -0.28138    5    diag
    7      0.175D-04      0.418D-05       -76.05752532     75.229939   -0.71871   -0.13581   -0.28139    6    diag
    8      0.457D-05      0.760D-06       -76.05752533     75.229922   -0.71867   -0.13581   -0.28138    7    diag
    9      0.780D-06      0.990D-07       -76.05752533     75.229913   -0.71866   -0.13581   -0.28138    8    diag
   10      0.996D-07      0.256D-07       -76.05752533     75.229916   -0.71866   -0.13581   -0.28138    9    orth
   11      0.245D-07      0.580D-08       -76.05752533     75.229916   -0.71866   -0.13581   -0.28138    9    diag
   12      0.632D-08      0.113D-08       -76.05752533     75.229916   -0.71866   -0.13581   -0.28138    0    orth

 Final occupancy:   5

 !RHF STATE  1.1 Energy               -76.057525326122
 Nuclear energy                         8.96831117
 One-electron energy                 -122.64079439
 Two-electron energy                   37.61495789
 Virial quotient                       -1.00251552
 !RHF STATE  1.1 Dipole moment         -0.71866108    -0.13580920    -0.28138297
 Dipole moment /Debye                  -1.82653462    -0.34516994    -0.71515732

 Orbital energies:

         1.1          2.1          3.1          4.1          5.1          6.1          7.1
    -20.571043    -1.341208    -0.705998    -0.578971    -0.508219     0.022173     0.036787


 HOMO      5.1    -0.508219 =     -13.8293eV
 LUMO      6.1     0.022173 =       0.6033eV
 LUMO-HOMO         0.530391 =      14.4327eV


 **********************************************************************************************************************************
 DATASETS  * FILE   NREC   LENGTH (MB)   RECORD NAMES
              1      18       32.04       500      610      700      900      950      970     1000      129      960     1100   
                                          VAR    BASINP    GEOM    SYMINP    ZMAT    AOBASIS   BASIS     P2S    ABASIS      S 
                                         1400     1410     1200     1210     1080     1600     1650     1700   
                                           T        V       H0       H01     AOSYM     SMH    MOLCAS    OPER   

              2       8        9.09       700     1000      520     2100     7360     7350      200     2101   
                                         GEOM     BASIS   MCVARS     RHF    F12ABS    EF12    OPTIONS    RHF  

 PROGRAMS   *        TOTAL    HF-SCF       INT   CCSD(T)    HF-SCF       INT
 CPU TIMES  *       590.40     13.46      0.24    547.56     14.40     14.46
 REAL TIME  *       610.29 SEC
 DISK USED  *       570.60 MB (local),        7.58 GB (total)
 SF USED    *         1.36 GB
 GA USED    *         4.87 MB       (max)       0.00 MB       (current)
 **********************************************************************************************************************************

 Basis set:  JKFIT                   
 Basis size:   740
 Attributes:
 Sphericals:   T
 Basis set:  MP2FIT                  
 Basis size:   816
 Attributes:
 Sphericals:   T
 Basis set:  RI                      
 Basis size:   556
 Attributes:
 Sphericals:   T
 Basis set:  TDDFT                   
 Basis size:   816
 Attributes:
 Sphericals:   T

 PROGRAM * CCSD (Closed-shell coupled cluster)     Authors: C. Hampel, H.-J. Werner, 1991, M. Deegan, P.J. Knowles, 1992

                                  CCSD-F12 implementation by  H.-J. Werner, 2007

                   Density fitting integral evaluation by F.R. Manby, 2003,2007, G. Knizia, 2010



 Convergence thresholds:  THRVAR = 1.00D-08  THRDEN = 1.00D-10

 CCSD(T)     terms to be evaluated (factor= 1.000)


 Number of core orbitals:           1 (   1 )
 Number of closed-shell orbitals:   4 (   4 )
 Number of external orbitals:     225 ( 225 )

 Molecular orbitals read from record     2101.2  Type=RHF/CANONICAL (state 1.1)

 MP2-F12 correlation treatment (H.-J. Werner, 2006)
 ==================================================

 Using MP2-F12 with ansatz 3C(FIX)

 Using projected zeroth-order Hamiltonian (+Z)

 FOCKRIB=T FOCKRIC=T FOCKRIP=T CABSP=T CABSA=T CABSK=T CABSF=T GBC=F EBC=F DMAT=T NOFIK=T NOPAO=1 SOLVE=-1  USEPAO=0
 EXCH_A= T EXCH_B= F EXCH_C= F EXCH_P= F

 Geminal basis:    OPTFULL  GEM_TYPE=SLATER  BETA=1.0  NGEM=6

 Optimizing Gaussian exponents for each gem_beta

 Geminal optimization for beta= 1.0000
 Weight function:   m=0, omega= 1.4646

 Augmented Hessian optimization of geminal fit. Trust ratio= 0.40000
 Convergence reached after   2 iterations. Final gradient= 8.31D-16, Step= 4.24D-06, Delta= 1.28D-09

 Alpha:                 0.19532     0.81920     2.85917     9.50073    35.69989   197.79328
 Coeff:                 0.27070     0.30552     0.18297     0.10986     0.06810     0.04224


 All pairs explicitly correlated. Number of r12-pairs:           10

 Excluding core orbitals from MO domains

 AO(A)-basis ORBITAL           loaded. Number of functions:     230
 RI(R)-basis RI                loaded. Number of functions:     556
 DF-basis JKFIT                loaded. Number of functions:     740

 Screening thresholds:   THRAO=  1.00D-10  THRMO=  1.00D-09  THRPROD=  1.00D-09
                         THRSW=  1.00D-05  THROV=  1.00D-12  THRAOF12= 1.00D-10

 CPU time for Fock operators                      3.16 sec

 Construction of ABS:
 Smallest eigenvalue of S          1.14E-04  (threshold= 1.00E-08)
 Ratio eigmin/eigmax               1.62E-05  (threshold= 1.00E-09)
 Smallest eigenvalue of S kept     1.14E-04  (threshold= 1.14E-04, 0 functions deleted, 556 kept)

 Construction of CABS:
 Smallest eigenvalue of S          5.53E-07  (threshold= 1.00E-08)
 Ratio eigmin/eigmax               5.53E-07  (threshold= 1.00E-09)
 Smallest eigenvalue of S kept     5.53E-07  (threshold= 5.53E-07, 0 functions deleted, 556 kept)

 CPU time for CABS singles                        0.71 sec

 CABS-singles contribution of  -0.00145542 patched into reference energy.
 New reference energy         -76.05898075

 AO(A)-basis ORBITAL           loaded. Number of functions:     230
 RI(R)-basis RI                loaded. Number of functions:     556
 DF-basis MP2FIT               loaded. Number of functions:     816

 Screening thresholds:   THRAO=  1.00D-10  THRMO=  1.00D-09  THRPROD=  1.00D-09
                         THRSW=  1.00D-05  THROV=  1.00D-12  THRAOF12= 1.00D-10

 CPU time for 3-index integral evaluation         5.29 sec
 CPU time for first  half transformation          0.89 sec ( 1621.3 MFLOP/sec)
 CPU time for second half transformation          0.01 sec ( 1364.4 MFLOP/sec)
 CPU time for sorting                             0.03 sec
 CPU time for fitting                             0.42 sec ( 4302.7 MFLOP/sec)
 CPU time for tilde quantities                    0.46 sec ( 2304.4 MFLOP/sec)
 CPU time for assembly                            1.47 sec ( 3109.0 MFLOP/sec)
 CPU time for tranop_f12                          1.30 sec ( 3393.3 MFLOP/sec)
 CPU time for f12 integrals (total)              12.28 sec, Elapsed time:     12.66 sec
 F12-matrices built in  4 passes.
 F12-matrices built in  4 passes.
 F12-matrices built in  4 passes.
 F12-matrices built in  4 passes.
 FC-matrix built in  4 passes.
 CPU time for f12 matrices (total)                0.33 sec, Elapsed time:      0.33 sec

 Diagonal F12 approximation with fixed coefficients:  TSING= 0.500,  TTRIP= 0.250 (scaled by -1/beta)

 DF-MP2-F12 energy corrections:
 ==============================
 Approx.                                    Singlet             Triplet             Total
 DF-MP2-F12/3*C(DX,FIX)                -0.029487143280     -0.004863580774     -0.034350724054
 DF-MP2-F12/3*C(FIX)                   -0.024418587279     -0.003811729870     -0.028230317149
 DF-MP2-F12/3C(FIX)                    -0.024550768687     -0.003784833666     -0.028335602354

 DF-MP2-F12 correlation energies:
 ================================
 Approx.                                    Singlet             Triplet             Ecorr            Total Energy
 DF-MP2                                -0.171975291777     -0.098363596398     -0.270338888175    -76.329319636820
 DF-MP2-F12/3*C(DX,FIX)                -0.201462435057     -0.103227177172     -0.304689612229    -76.363670360873
 DF-MP2-F12/3*C(FIX)                   -0.196393879056     -0.102175326268     -0.298569205324    -76.357549953969
 DF-MP2-F12/3C(FIX)                    -0.196526060464     -0.102148430065     -0.298674490529    -76.357655239173

 SCS-DF-MP2 energies (F_SING= 1.20000  F_TRIP= 0.62222  F_PARALLEL= 0.33333):
 ============================================================================
 SCS-DF-MP2                            -0.267574365669    -76.326555114314
 SCS-DF-MP2-F12/3*C(DX,FIX)            -0.305985165642    -76.364965914286
 SCS-DF-MP2-F12/3*C(FIX)               -0.299248413434    -76.358229162079
 SCS-DF-MP2-F12/3C(FIX)                -0.299390295708    -76.358371044353
 Symmetry transformation completed.

 Number of N-1 electron functions:               4
 Number of N-2 electron functions:              10
 Number of singly external CSFs:               900
 Number of doubly external CSFs:            405450
 Total number of CSFs:                      406351

 Pair and operator lists are different

 Length of J-op  integral file:              81.60 MB
 Length of K-op  integral file:             128.10 MB
 Length of 3-ext integral record:             0.00 MB

 Memory could be reduced to 75.63 Mwords without degradation in triples

 Integral transformation finished. Total CPU:  13.21 sec, npass=  1  Memory used:  32.52 MW

 Reference energy:                    -76.05898075

 Adding F12 terms to K(Cij), methodcc=6,  factor= 1.0

 ITER.      SQ.NORM     CORR.ENERGY   TOTAL ENERGY   ENERGY CHANGE        DEN1      VAR(S)    VAR(P)  DIIS     TIME  TIME/IT
   1      1.06255419    -0.26991718   -76.32889792     0.00042958     0.00641412  0.80D-03  0.10D-02  1  1    35.25     4.00
   2      1.06601967    -0.26959745   -76.32857820     0.00031973    -0.00466532  0.14D-04  0.11D-03  2  2    39.16     4.07
   3      1.06728607    -0.26972199   -76.32870274    -0.00012454    -0.00083990  0.95D-05  0.61D-05  3  3    43.02     4.08
   4      1.06779081    -0.26975960   -76.32874035    -0.00003761    -0.00028209  0.41D-06  0.65D-06  4  4    47.04     4.11
   5      1.06788468    -0.26975639   -76.32873713     0.00000322    -0.00002805  0.15D-06  0.43D-07  5  5    51.08     4.14
   6      1.06791672    -0.26975429   -76.32873504     0.00000210    -0.00000466  0.13D-07  0.29D-08  6  6    55.05     4.14
   7      1.06792379    -0.26975387   -76.32873462     0.00000042    -0.00000147  0.10D-08  0.45D-09  6  1    59.06     4.14
   8      1.06792509    -0.26975396   -76.32873471    -0.00000009     0.00000012  0.14D-09  0.52D-10  6  2    63.07     4.15
   9      1.06792553    -0.26975397   -76.32873472    -0.00000001    -0.00000000  0.15D-10  0.87D-11  6  4    67.06     4.15
  10      1.06792565    -0.26975397   -76.32873472     0.00000000     0.00000000  0.28D-11  0.85D-12  6  3    71.00     4.15
  11      1.06792564    -0.26975397   -76.32873472     0.00000000     0.00000002  0.55D-12  0.16D-12  6  5    74.98     4.15
  12      1.06792563    -0.26975397   -76.32873472     0.00000000     0.00000000  0.97D-13  0.28D-13  6  6    78.89     4.14
  13      1.06792562    -0.26975397   -76.32873472    -0.00000000     0.00000000  0.10D-13  0.40D-14  6  1    82.83     4.14
  14      1.06792561    -0.26975397   -76.32873472    -0.00000000     0.00000000  0.11D-14  0.79D-15  6  2    86.75     4.14
  15      1.06792561    -0.26975397   -76.32873472    -0.00000000     0.00000000  0.14D-15  0.85D-16  6  4    90.81     4.15
  16      1.06792561    -0.26975397   -76.32873472     0.00000000     0.00000000  0.13D-16  0.10D-16  6  3    94.85     4.15

 Norm of t1 vector:      0.03735825      S-energy:    -0.00000000      T1 diagnostic:  0.00933956
                                                                       D1 diagnostic:  0.01861575

 Adding energy correction from Wij-K(Fij), methodcc=6  factor= 1.0

  CCSD correlation energy              -0.269753972435
  MP2-F12 correction (uncoupled)       -0.028062813299
  C*T doubles correction               -0.000414950743
  f12b correction                       0.004759646932


 Total CPU time for triples:     37.48 sec

  Ecorr(MP2)                           -0.270346751744
  Ecorr(MP2-F12)                       -0.298682354098
  Scale factor for triples energy       1.104812068836


 RESULTS
 =======

  Reference energy                    -76.057525326122
  F12 singles correction               -0.001455422522

 F12 singles corrections added to reference energy

  New reference energy                -76.058980748645

  F12a singlet correction              -0.024622842519
  F12a triplet correction              -0.003854921523
  F12a total correction                -0.028477764042

 F12a corrections for ansatz F12/3C(FIX) added to CCSD energy

  CCSD-F12a singlet pair energy        -0.207610250246
  CCSD-F12a triplet pair energy        -0.090621486184
  CCSD-F12a correlation energy         -0.298231736477

  Triples (T) contribution (scaled)    -0.009581092182
  Total correlation energy             -0.307812828658

  CCSD-F12a total energy              -76.357212485121
  CCSD[T]-F12a energy                 -76.367145125833
  CCSD-T-F12a energy                  -76.366648875790
 !CCSD(T)-F12a total energy           -76.366793577303

 F12b corrections for ansatz F12/3C(FIX) added to CCSD(T)-F12a energy

  CCSD-F12b singlet pair energy        -0.203208872694
  CCSD-F12b triplet pair energy        -0.090263216803
  CCSD-F12b correlation energy         -0.293472089544

  Triples (T) contribution (scaled)    -0.009581092182
  Total correlation energy             -0.303053181726

  CCSD-F12b total energy              -76.352452838189
  CCSD[T]-F12b energy                 -76.362385478901
  CCSD-T-F12b energy                  -76.361889228858
 !CCSD(T)-F12b total energy           -76.362033930370

 Timing summary (sec):

 STEP                 CPU(USER)    SYS     CPU(TOT)    WALL
 Transformation         13.27      0.54     13.81     13.84
 CCSD iterations        63.48      2.94     66.42     66.51
 Triples                37.48      0.31     37.79     37.84
 MP2-F12                18.13      0.54     18.67     18.69
 F12b energy             3.28      0.17      3.45      3.45

 Program statistics:

 Available memory in ccsd:              1999999871
 Min. memory needed in ccsd:               1862772
 Max. memory used in ccsd:                 2158322
 Max. memory used in cckext:               1445635 (17 integral passes)



 **********************************************************************************************************************************
 DATASETS  * FILE   NREC   LENGTH (MB)   RECORD NAMES
              1      19      222.31       500      610      700      900      950      970     1000      129      960     1100   
                                          VAR    BASINP    GEOM    SYMINP    ZMAT    AOBASIS   BASIS     P2S    ABASIS      S 
                                         1400     1410     1200     1210     1080     1600     1650     1700     1380   
                                           T        V       H0       H01     AOSYM     SMH    MOLCAS    OPER     JKOP   

              2       8        9.09       700     1000      520     2100     7360     7350      200     2101   
                                         GEOM     BASIS   MCVARS     RHF    F12ABS    EF12    OPTIONS    RHF  

 PROGRAMS   *        TOTAL   CCSD(T)    HF-SCF       INT   CCSD(T)    HF-SCF       INT
 CPU TIMES  *       726.27    135.88     13.46      0.24    547.56     14.40     14.46
 REAL TIME  *       751.37 SEC
 DISK USED  *       570.60 MB (local),        7.58 GB (total)
 SF USED    *         1.36 GB
 GA USED    *         4.87 MB       (max)       0.00 MB       (current)
 **********************************************************************************************************************************

 Running procedure: SET_MONOMER2

 Dummy atoms: O10  H19  H20


 Recomputing one-electron integrals since nuclear charges changed


 PROGRAM * SEWARD (Integral evaluation for generally contracted gaussian basis sets)     Author: Roland Lindh, 1990

 Geometry written to block  1 of record 700


 Point group  C1  



 ATOMIC COORDINATES

 NR  ATOM    CHARGE       X              Y              Z

   1  O10     0.00   -7.075890501    0.749465381   -4.723937366
   2  H19     0.00   -8.725621408    0.873242442   -3.820459306
   3  H20     0.00   -7.500134016    0.238294464   -6.423179097
   4  C1      6.00   -6.193010455    2.801518980    2.403542658
   5  H41     1.00   -4.656285171    1.699997622    3.119937832
   6  H42     1.00   -5.973046335    4.726205038    2.982932688
   7  H43     1.00   -7.940251230    2.077186956    3.118237078
   8  H44     1.00   -6.176569838    2.685300823    0.384937212

 Bond lengths in Bohr (Angstrom)

 1-2  1.884994809  1-3  1.824472726  4-5  2.021904040  4-6  2.022002335  4-7  2.021953343
     ( 0.997496296)     ( 0.965469388)     ( 1.069945541)     ( 1.069997556)     ( 1.069971630)

 4-8  2.022015060
     ( 1.070004290)

 Bond angles

  2-1-3  105.14667399   5-4-6  109.53398059   5-4-7  109.65604535   5-4-8  108.43490854

  6-4-7  109.49436728   6-4-8  109.86987750   7-4-8  109.83468330

 NUCLEAR CHARGE:                   10
 NUMBER OF PRIMITIVE AOS:         296
 NUMBER OF SYMMETRY AOS:          266
 NUMBER OF CONTRACTIONS:          230   (  230A   )
 NUMBER OF CORE ORBITALS:           1   (    1A   )
 NUMBER OF VALENCE ORBITALS:        8   (    8A   )

 MOLECULE CHANGED: INITIALIZING OCCUPATION AND DUMP RECORDS


 NUCLEAR REPULSION ENERGY   13.68681606

 Basis set:  JKFIT                   
 Basis size:   740
 Attributes:
 Sphericals:   T
 Basis set:  MP2FIT                  
 Basis size:   816
 Attributes:
 Sphericals:   T
 Basis set:  RI                      
 Basis size:   556
 Attributes:
 Sphericals:   T
 Basis set:  TDDFT                   
 Basis size:   816
 Attributes:
 Sphericals:   T

 Eigenvalues of metric

         1 0.512E-04 0.790E-04 0.100E-03 0.105E-03 0.330E-03 0.348E-03 0.610E-03 0.717E-03


 Contracted 2-electron integrals neglected if value below      1.0D-14

 OPERATOR DM      FOR CENTER  0  COORDINATES:    0.000000    0.000000    0.000000


 **********************************************************************************************************************************
 DATASETS  * FILE   NREC   LENGTH (MB)   RECORD NAMES
              1      18       32.04       500      610      700      900      950      970     1000      129      960     1100   
                                          VAR    BASINP    GEOM    SYMINP    ZMAT    AOBASIS   BASIS     P2S    ABASIS      S 
                                         1400     1410     1200     1210     1080     1600     1650     1700   
                                           T        V       H0       H01     AOSYM     SMH    MOLCAS    OPER   

              2       8        9.09       700     1000      520     2100     7360     7350      200     2101   
                                         GEOM     BASIS   MCVARS     RHF    F12ABS    EF12    OPTIONS    RHF  

 PROGRAMS   *        TOTAL       INT   CCSD(T)    HF-SCF       INT   CCSD(T)    HF-SCF       INT
 CPU TIMES  *       726.52      0.23    135.88     13.46      0.24    547.56     14.40     14.46
 REAL TIME  *       752.11 SEC
 DISK USED  *       570.60 MB (local),        7.58 GB (total)
 SF USED    *         1.36 GB
 GA USED    *         4.87 MB       (max)       0.00 MB       (current)
 **********************************************************************************************************************************


 PROGRAM * RHF-SCF (CLOSED SHELL)       Authors: W. Meyer, H.-J. Werner


 NUMBER OF ELECTRONS:       5+    5-    SPACE SYMMETRY=1    SPIN SYMMETRY: Singlet 
 CONVERGENCE THRESHOLDS:    1.00E-08 (Density)    1.00E-11 (Energy)
 MAX. NUMBER OF ITERATIONS:       60
 INTERPOLATION TYPE:            DIIS
 INTERPOLATION STEPS:              2 (START)      1 (STEP)
 LEVEL SHIFTS:                  0.00 (CLOSED)  0.00 (OPEN) 



 Orbital guess generated from atomic densities. Full valence occupancy:    9

 Molecular orbital dump at record        2102.2

 Initial occupancy:   5

 ITERATION    DDIFF          GRAD             ENERGY        2-EL.EN.            DIPOLE MOMENTS         DIIS   ORB.
    1      0.000D+00      0.000D+00       -40.19358861     53.494068    0.00410   -0.00277   -0.00133    0    start
    2      0.000D+00      0.353D-02       -40.21070597     52.213715    0.00129   -0.00090   -0.00044    1    diag
    3      0.324D-02      0.137D-02       -40.21295438     52.664886    0.00182   -0.00125   -0.00060    2    diag
    4      0.908D-03      0.342D-03       -40.21326981     52.609866    0.00162   -0.00112   -0.00053    3    diag
    5      0.301D-03      0.443D-04       -40.21327521     52.612203    0.00159   -0.00110   -0.00052    4    diag
    6      0.814D-04      0.345D-05       -40.21327524     52.612301    0.00159   -0.00110   -0.00052    5    diag
    7      0.684D-05      0.264D-06       -40.21327524     52.612267    0.00159   -0.00110   -0.00052    6    diag
    8      0.981D-06      0.221D-07       -40.21327524     52.612267    0.00159   -0.00110   -0.00052    7    diag
    9      0.185D-06      0.284D-08       -40.21327524     52.612267    0.00159   -0.00110   -0.00052    8    diag
   10      0.104D-07      0.793D-09       -40.21327524     52.612267    0.00159   -0.00110   -0.00052    9    orth
   11      0.123D-08      0.107D-09       -40.21327524     52.612267    0.00159   -0.00110   -0.00052    0    orth

 Final occupancy:   5

 !RHF STATE  1.1 Energy               -40.213275244941
 Nuclear energy                        13.68681606
 One-electron energy                  -80.20622491
 Two-electron energy                   26.30613361
 Virial quotient                       -0.99869786
 !RHF STATE  1.1 Dipole moment          0.00158516    -0.00110259    -0.00051774
 Dipole moment /Debye                   0.00402880    -0.00280233    -0.00131588

 Orbital energies:

         1.1          2.1          3.1          4.1          5.1          6.1          7.1
    -11.197206    -0.950741    -0.551694    -0.549758    -0.547581     0.026179     0.039984


 HOMO      5.1    -0.547581 =     -14.9004eV
 LUMO      6.1     0.026179 =       0.7124eV
 LUMO-HOMO         0.573760 =      15.6128eV


 **********************************************************************************************************************************
 DATASETS  * FILE   NREC   LENGTH (MB)   RECORD NAMES
              1      18       32.04       500      610      700      900      950      970     1000      129      960     1100   
                                          VAR    BASINP    GEOM    SYMINP    ZMAT    AOBASIS   BASIS     P2S    ABASIS      S 
                                         1400     1410     1200     1210     1080     1600     1650     1700   
                                           T        V       H0       H01     AOSYM     SMH    MOLCAS    OPER   

              2       9       13.71       700     1000      520     2100     7360     7350      200     2101     2102   
                                         GEOM     BASIS   MCVARS     RHF    F12ABS    EF12    OPTIONS    RHF      RHF  

 PROGRAMS   *        TOTAL    HF-SCF       INT   CCSD(T)    HF-SCF       INT   CCSD(T)    HF-SCF       INT
 CPU TIMES  *       738.90     12.38      0.23    135.88     13.46      0.24    547.56     14.40     14.46
 REAL TIME  *       765.74 SEC
 DISK USED  *       570.60 MB (local),        7.58 GB (total)
 SF USED    *         1.36 GB
 GA USED    *         4.87 MB       (max)       0.00 MB       (current)
 **********************************************************************************************************************************

 Basis set:  JKFIT                   
 Basis size:   740
 Attributes:
 Sphericals:   T
 Basis set:  MP2FIT                  
 Basis size:   816
 Attributes:
 Sphericals:   T
 Basis set:  RI                      
 Basis size:   556
 Attributes:
 Sphericals:   T
 Basis set:  TDDFT                   
 Basis size:   816
 Attributes:
 Sphericals:   T

 PROGRAM * CCSD (Closed-shell coupled cluster)     Authors: C. Hampel, H.-J. Werner, 1991, M. Deegan, P.J. Knowles, 1992

                                  CCSD-F12 implementation by  H.-J. Werner, 2007

                   Density fitting integral evaluation by F.R. Manby, 2003,2007, G. Knizia, 2010



 Convergence thresholds:  THRVAR = 1.00D-08  THRDEN = 1.00D-10

 CCSD(T)     terms to be evaluated (factor= 1.000)


 Number of core orbitals:           1 (   1 )
 Number of closed-shell orbitals:   4 (   4 )
 Number of external orbitals:     225 ( 225 )

 Molecular orbitals read from record     2102.2  Type=RHF/CANONICAL (state 1.1)

 MP2-F12 correlation treatment (H.-J. Werner, 2006)
 ==================================================

 Using MP2-F12 with ansatz 3C(FIX)

 Using projected zeroth-order Hamiltonian (+Z)

 FOCKRIB=T FOCKRIC=T FOCKRIP=T CABSP=T CABSA=T CABSK=T CABSF=T GBC=F EBC=F DMAT=T NOFIK=T NOPAO=1 SOLVE=-1  USEPAO=0
 EXCH_A= T EXCH_B= F EXCH_C= F EXCH_P= F

 Geminal basis:    OPTFULL  GEM_TYPE=SLATER  BETA=1.0  NGEM=6

 Optimizing Gaussian exponents for each gem_beta

 Geminal optimization for beta= 1.0000
 Weight function:   m=0, omega= 1.4646

 Augmented Hessian optimization of geminal fit. Trust ratio= 0.40000
 Convergence reached after   2 iterations. Final gradient= 7.85D-16, Step= 4.26D-06, Delta= 1.28D-09

 Alpha:                 0.19532     0.81920     2.85917     9.50073    35.69989   197.79328
 Coeff:                 0.27070     0.30552     0.18297     0.10986     0.06810     0.04224


 All pairs explicitly correlated. Number of r12-pairs:           10

 Excluding core orbitals from MO domains

 AO(A)-basis ORBITAL           loaded. Number of functions:     230
 RI(R)-basis RI                loaded. Number of functions:     556
 DF-basis JKFIT                loaded. Number of functions:     740

 Screening thresholds:   THRAO=  1.00D-10  THRMO=  1.00D-09  THRPROD=  1.00D-09
                         THRSW=  1.00D-05  THROV=  1.00D-12  THRAOF12= 1.00D-10

 CPU time for Fock operators                      3.11 sec

 Construction of ABS:
 Smallest eigenvalue of S          1.14E-04  (threshold= 1.00E-08)
 Ratio eigmin/eigmax               1.62E-05  (threshold= 1.00E-09)
 Smallest eigenvalue of S kept     1.14E-04  (threshold= 1.14E-04, 0 functions deleted, 556 kept)

 Construction of CABS:
 Smallest eigenvalue of S          5.53E-07  (threshold= 1.00E-08)
 Ratio eigmin/eigmax               5.53E-07  (threshold= 1.00E-09)
 Smallest eigenvalue of S kept     5.53E-07  (threshold= 5.53E-07, 0 functions deleted, 556 kept)

 CPU time for CABS singles                        0.70 sec

 CABS-singles contribution of  -0.00091085 patched into reference energy.
 New reference energy         -40.21418610

 AO(A)-basis ORBITAL           loaded. Number of functions:     230
 RI(R)-basis RI                loaded. Number of functions:     556
 DF-basis MP2FIT               loaded. Number of functions:     816

 Screening thresholds:   THRAO=  1.00D-10  THRMO=  1.00D-09  THRPROD=  1.00D-09
                         THRSW=  1.00D-05  THROV=  1.00D-12  THRAOF12= 1.00D-10

 CPU time for 3-index integral evaluation         5.26 sec
 CPU time for first  half transformation          0.90 sec ( 1504.2 MFLOP/sec)
 CPU time for sorting                             0.04 sec
 CPU time for fitting                             0.36 sec (  869.3 MFLOP/sec)
 CPU time for tilde quantities                    0.39 sec ( 4599.5 MFLOP/sec)
 CPU time for assembly                            1.33 sec ( 3436.3 MFLOP/sec)
 CPU time for tranop_f12                          1.22 sec ( 3988.4 MFLOP/sec)
 CPU time for f12 integrals (total)              11.86 sec, Elapsed time:     12.23 sec
 F12-matrices built in  4 passes.
 F12-matrices built in  4 passes.
 F12-matrices built in  4 passes.
 F12-matrices built in  4 passes.
 FC-matrix built in  4 passes.
 CPU time for f12 matrices (total)                0.31 sec, Elapsed time:      0.33 sec

 Diagonal F12 approximation with fixed coefficients:  TSING= 0.500,  TTRIP= 0.250 (scaled by -1/beta)

 DF-MP2-F12 energy corrections:
 ==============================
 Approx.                                    Singlet             Triplet             Total
 DF-MP2-F12/3*C(DX,FIX)                -0.016700044949     -0.001927236258     -0.018627281207
 DF-MP2-F12/3*C(FIX)                   -0.015461087733     -0.001785262937     -0.017246350670
 DF-MP2-F12/3C(FIX)                    -0.015448621944     -0.001776630386     -0.017225252330

 DF-MP2-F12 correlation energies:
 ================================
 Approx.                                    Singlet             Triplet             Ecorr            Total Energy
 DF-MP2                                -0.145445601168     -0.055066389645     -0.200511990813    -40.414698087202
 DF-MP2-F12/3*C(DX,FIX)                -0.162145646117     -0.056993625903     -0.219139272020    -40.433325368409
 DF-MP2-F12/3*C(FIX)                   -0.160906688901     -0.056851652583     -0.217758341483    -40.431944437872
 DF-MP2-F12/3C(FIX)                    -0.160894223111     -0.056843020032     -0.217737243143    -40.431923339532

 SCS-DF-MP2 energies (F_SING= 1.20000  F_TRIP= 0.62222  F_PARALLEL= 0.33333):
 ============================================================================
 SCS-DF-MP2                            -0.208798252736    -40.422984349125
 SCS-DF-MP2-F12/3*C(DX,FIX)            -0.230037475902    -40.444223572291
 SCS-DF-MP2-F12/3*C(FIX)               -0.228462388288    -40.442648484676
 SCS-DF-MP2-F12/3C(FIX)                -0.228442057976    -40.442628154365
 Symmetry transformation completed.

 Number of N-1 electron functions:               4
 Number of N-2 electron functions:              10
 Number of singly external CSFs:               900
 Number of doubly external CSFs:            405450
 Total number of CSFs:                      406351

 Pair and operator lists are different

 Length of J-op  integral file:              81.60 MB
 Length of K-op  integral file:             128.10 MB
 Length of 3-ext integral record:             0.00 MB

 Memory could be reduced to 75.63 Mwords without degradation in triples

 Integral transformation finished. Total CPU:  13.05 sec, npass=  1  Memory used:  32.52 MW

 Reference energy:                    -40.21418610

 Adding F12 terms to K(Cij), methodcc=6,  factor= 1.0

 ITER.      SQ.NORM     CORR.ENERGY   TOTAL ENERGY   ENERGY CHANGE        DEN1      VAR(S)    VAR(P)  DIIS     TIME  TIME/IT
   1      1.06946227    -0.21558102   -40.42976712    -0.01505925    -0.00938338  0.67D-03  0.94D-03  1  1    34.58     4.00
   2      1.07448964    -0.21614964   -40.43033574    -0.00056862    -0.00524395  0.17D-04  0.83D-04  2  2    38.50     4.07
   3      1.07589692    -0.21630455   -40.43049064    -0.00015490    -0.00097900  0.20D-05  0.51D-05  3  3    42.46     4.10
   4      1.07623506    -0.21631689   -40.43050298    -0.00001234    -0.00017398  0.10D-06  0.25D-06  4  4    46.49     4.11
   5      1.07627976    -0.21631562   -40.43050172     0.00000126    -0.00000983  0.77D-08  0.16D-07  5  5    50.49     4.12
   6      1.07628562    -0.21631464   -40.43050073     0.00000098    -0.00000185  0.57D-09  0.12D-08  6  6    54.45     4.14
   7      1.07628676    -0.21631432   -40.43050042     0.00000032    -0.00000073  0.39D-10  0.95D-10  6  1    58.44     4.14
   8      1.07628678    -0.21631443   -40.43050052    -0.00000011     0.00000013  0.38D-11  0.55D-11  6  3    62.49     4.15
   9      1.07628689    -0.21631441   -40.43050051     0.00000001    -0.00000007  0.32D-12  0.47D-12  6  2    66.46     4.15
  10      1.07628689    -0.21631441   -40.43050051     0.00000000     0.00000000  0.36D-13  0.48D-13  6  4    70.46     4.15
  11      1.07628689    -0.21631441   -40.43050050     0.00000000     0.00000000  0.27D-14  0.49D-14  6  5    74.46     4.15
  12      1.07628689    -0.21631441   -40.43050050     0.00000000     0.00000000  0.60D-16  0.60D-15  6  6    78.41     4.16
  13      1.07628689    -0.21631441   -40.43050050    -0.00000000     0.00000000  0.80D-17  0.66D-16  6  1    82.41     4.16
  14      1.07628689    -0.21631441   -40.43050050    -0.00000000     0.00000000  0.14D-17  0.80D-17  6  3    86.36     4.15

 Norm of t1 vector:      0.03361804      S-energy:     0.00000000      T1 diagnostic:  0.00840451
                                                                       D1 diagnostic:  0.01339514

 Adding energy correction from Wij-K(Fij), methodcc=6  factor= 1.0

  CCSD correlation energy              -0.216314407951
  MP2-F12 correction (uncoupled)       -0.017234848177
  C*T doubles correction               -0.000194108375
  f12b correction                       0.003653969837

 Total CPU time for triples:     37.09 sec

  Ecorr(MP2)                           -0.200521767280
  Ecorr(MP2-F12)                       -0.217747019611
  Scale factor for triples energy       1.085902156977


 RESULTS
 =======

  Reference energy                    -40.213275244940
  F12 singles correction               -0.000910851448

 F12 singles corrections added to reference energy

  New reference energy                -40.214186096389

  F12a singlet correction              -0.015626662744
  F12a triplet correction              -0.001802293808
  F12a total correction                -0.017428956552

 F12a corrections for ansatz F12/3C(FIX) added to CCSD energy

  CCSD-F12a singlet pair energy        -0.178526105775
  CCSD-F12a triplet pair energy        -0.055217258753
  CCSD-F12a correlation energy         -0.233743364503

  Triples (T) contribution (scaled)    -0.006801724309
  Total correlation energy             -0.240545088813

  CCSD-F12a total energy              -40.447929460892
  CCSD[T]-F12a energy                 -40.454970348060
  CCSD-T-F12a energy                  -40.454656425978
 !CCSD(T)-F12a total energy           -40.454731185201

 F12b corrections for ansatz F12/3C(FIX) added to CCSD(T)-F12a energy

  CCSD-F12b singlet pair energy        -0.175043006949
  CCSD-F12b triplet pair energy        -0.055046387742
  CCSD-F12b correlation energy         -0.230089394666

  Triples (T) contribution (scaled)    -0.006801724309
  Total correlation energy             -0.236891118976

  CCSD-F12b total energy              -40.444275491055
  CCSD[T]-F12b energy                 -40.451316378224
  CCSD-T-F12b energy                  -40.451002456141
 !CCSD(T)-F12b total energy           -40.451077215365

 Timing summary (sec):

 STEP                 CPU(USER)    SYS     CPU(TOT)    WALL
 Transformation         13.11      0.62     13.73     13.75
 CCSD iterations        55.61      2.42     58.03     58.21
 Triples                37.09      0.23     37.32     37.37
 MP2-F12                17.66      0.48     18.14     18.16
 F12b energy             3.37      0.08      3.45      3.46

 Program statistics:

 Available memory in ccsd:              1999999866
 Min. memory needed in ccsd:               1862772
 Max. memory used in ccsd:                 2158322
 Max. memory used in cckext:               1445635 (15 integral passes)



 **********************************************************************************************************************************
 DATASETS  * FILE   NREC   LENGTH (MB)   RECORD NAMES
              1      19      222.31       500      610      700      900      950      970     1000      129      960     1100   
                                          VAR    BASINP    GEOM    SYMINP    ZMAT    AOBASIS   BASIS     P2S    ABASIS      S 
                                         1400     1410     1200     1210     1080     1600     1650     1700     1380   
                                           T        V       H0       H01     AOSYM     SMH    MOLCAS    OPER     JKOP   

              2       9       13.71       700     1000      520     2100     7360     7350      200     2101     2102   
                                         GEOM     BASIS   MCVARS     RHF    F12ABS    EF12    OPTIONS    RHF      RHF  

 PROGRAMS   *        TOTAL   CCSD(T)    HF-SCF       INT   CCSD(T)    HF-SCF       INT   CCSD(T)    HF-SCF       INT
 CPU TIMES  *       865.93    127.02     12.38      0.23    135.88     13.46      0.24    547.56     14.40     14.46
 REAL TIME  *       897.45 SEC
 DISK USED  *       570.60 MB (local),        7.58 GB (total)
 SF USED    *         1.36 GB
 GA USED    *         4.87 MB       (max)       0.00 MB       (current)
 **********************************************************************************************************************************
 Molecular orbitals read from record     2102.2  Type=RHF/CANONICAL (state 1.1)
 Occupation numbers read from record     2102.2  Type=RHF/RHF (state 1.1)
 Orbital energies read from record       2102.2  Type=RHF/CANONICAL (state 1.1)
 Redundancy group numbers read from rec  2102.2  Type=RHF/RHF (state 1.1)

 CCSD(T)-F12/aug-cc-pVTZ energy=    -40.451077215365

     CCSD(T)-F12          HF-SCF     CCSD(T)-F12          HF-SCF     CCSD(T)-F12          HF-SCF
    -40.45107722    -40.21327524    -76.36203393    -76.05752533   -116.81388836   -116.27083858
 **********************************************************************************************************************************
 Molpro calculation terminated
