
 Primary working directories    : /scratch/klimes/383159/molpro.lwoX0FzMnN
 Secondary working directories  : /scratch/klimes/383159/molpro.lwoX0FzMnN
 Wavefunction directory         : /scratch/klimes/383159/
 Main file repository           : /scratch/klimes/383159/molpro.lwoX0FzMnN/

 id        : karlovklimes

 Nodes                      nprocs
 nc-20.cc.karlov.mff.cuni.cz    4

 Using customized tuning parameters: mindgm=1; mindgv=20; mindgc=4; mindgr=1; noblas=0; minvec=7
 default implementation of scratch files=sf  


 Variables initialized (930), CPU time= 0.01 sec
                                                                                 !gdirect
 memory,2000,m
 gthresh,orbital=1d-10,energy=1d-10,grid=1d-8
 
 symmetry,nosym
 angstrom
 geometry={
 O11        -2.921900000000      2.481400000000      4.906200000000
 H21        -2.027400000000      2.492000000000      4.514500000000
 H22        -3.418800000000      3.190500000000      4.446000000000
 C1        -3.277200000000      1.482500000000      1.271900000000
 H41        -2.464000000000      0.899600000000      1.651000000000
 H42        -3.160800000000      2.501000000000      1.578500000000
 H43        -4.201800000000      1.099200000000      1.650100000000
 H44        -3.268500000000      1.421000000000      0.203700000000
 }
 
 nkerna=1
 nkernb=1
 
 gf=0
 sing=1
 thrdum=1d-4
 gridthr=1d-8
 
 basis={
 set,orbital
 default,avtz
 set,jkfit
 default,avqz/jkfit
 set,mp2fit
 default,avqz/mp2fit
 set,ri
 default,avqz/optri
 set,tddft
 default,avqz/mp2fit
 }
 
 proc set_monomer1
 dummy,4,5,6,7,8
 endproc
 
 proc set_monomer2
 dummy,1,2,3
 endproc
 
                                                                                 !12 energy
 {hf,accu=1.d-16}
 {ccsd(t)-f12,df_basis=mp2fit,df_basis_exch=jkfit,ri_basis=ri,scale_trip=1,THRAOF12=1d-10}
 
 set_monomer1
 {hf,accu=1.d-16}
 {ccsd(t)-f12,df_basis=mp2fit,df_basis_exch=jkfit,ri_basis=ri,scale_trip=1,THRAOF12=1d-10}
 
 set_monomer2
 {hf,accu=1.d-16}
 {ccsd(t)-f12,df_basis=mp2fit,df_basis_exch=jkfit,ri_basis=ri,scale_trip=1,THRAOF12=1d-10}
 
 Commands  initialized (760), CPU time= 0.02 sec, 617 directives.
 Default parameters read. Elapsed time= 0.20 sec

 Checking input...
 Passed
1


                                         ***  PROGRAM SYSTEM MOLPRO  ***
                                       Copyright, TTI GmbH Stuttgart, 2015
                                    Version 2019.1 linked Jan 14 2019 13:09:19


 **********************************************************************************************************************************
 LABEL *                                                                                 
  64 bit mpp version                                                                     DATE: 11-Mar-20          TIME: 16:18:25  
 **********************************************************************************************************************************

 SHA1:             d688ac825633d238f2093ded1675ba87ccd55965
 **********************************************************************************************************************************

 THRESHOLDS:

 ZERO    =  1.00D-12  ONEINT  =  1.00D-12  TWOINT  =  1.00D-11  PREFAC  =  1.00D-14  XXXXXX  =  1.00D-09  EORDER  =  1.00D-04
 ENERGY  =  1.00D-10  ETEST   =  0.00D+00  EDENS   =  0.00D+00  THRDEDEF=  1.00D-06  GRADIENT=  1.00D-02  STEP    =  1.00D-03
 ORBITAL =  1.00D-10  CIVEC   =  1.00D-05  COEFF   =  1.00D-04  PRINTCI =  5.00D-02  PUNCHCI =  9.90D+01  OPTGRAD =  3.00D-04
 OPTENERG=  1.00D-06  OPTSTEP =  3.00D-04  THRGRAD =  1.00D-10  COMPRESS=  1.00D-11  VARMIN  =  1.00D-07  VARMAX  =  1.00D-03
 THRDOUB =  0.00D+00  THRDIV  =  1.00D-05  THRRED  =  1.00D-07  THRPSP  =  1.00D+00  THRDC   =  1.00D-10  THRCS   =  1.00D-10
 THRNRM  =  1.00D-08  THREQ   =  0.00D+00  THRDE   =  1.00D+00  THRREF  =  1.00D-05  SPARFAC =  1.00D+00  THRDLP  =  1.00D-07
 THRDIA  =  1.00D-10  THRDLS  =  1.00D-07  THRGPS  =  0.00D+00  THRKEX  =  0.00D+00  THRDIS  =  2.00D-01  THRVAR  =  1.00D-10
 THRLOC  =  1.00D-06  THRGAP  =  1.00D-06  THRLOCT = -1.00D+00  THRGAPT = -1.00D+00  THRORB  =  1.00D-06  THRMLTP =  0.00D+00
 THRCPQCI=  1.00D-10  KEXTA   =  0.00D+00  THRCOARS=  0.00D+00  SYMTOL  =  1.00D-06  GRADTOL =  1.00D-06  THROVL  =  1.00D-08
 THRORTH =  1.00D-08  GRID    =  1.00D-08  GRIDMAX =  1.00D-03  DTMAX   =  0.00D+00  THROCCDE=  1.00D-01  THROCCDE=  1.00D-01
 THRPRINT=  2.50D-01


 Variable memory set to 2000000000 words,  buffer space 

 ZSYMEL=NOSYM
 ZUNIT=ANG


Geometry recognized as XYZ

 SETTING NKERNA         =         1.00000000                                  
 SETTING NKERNB         =         1.00000000                                  
 SETTING GF             =     0.00000000D+00                                  
 SETTING SING           =         1.00000000                                  
 SETTING THRDUM         =     1.00000000D-04                                  
 SETTING GRIDTHR        =     1.00000000D-08                                  
 SETTING BASIS          =    AVTZ


 Recomputing integrals since basis changed


 Using spherical harmonics

 Library entry O      S aug-cc-pVTZ          selected for orbital group  1
 Library entry O      P aug-cc-pVTZ          selected for orbital group  1
 Library entry O      D aug-cc-pVTZ          selected for orbital group  1
 Library entry O      F aug-cc-pVTZ          selected for orbital group  1
 Library entry H      S aug-cc-pVTZ          selected for orbital group  2
 Library entry H      P aug-cc-pVTZ          selected for orbital group  2
 Library entry H      D aug-cc-pVTZ          selected for orbital group  2
 Library entry C      S aug-cc-pVTZ          selected for orbital group  3
 Library entry C      P aug-cc-pVTZ          selected for orbital group  3
 Library entry C      D aug-cc-pVTZ          selected for orbital group  3
 Library entry C      F aug-cc-pVTZ          selected for orbital group  3


 PROGRAM * SEWARD (Integral evaluation for generally contracted gaussian basis sets)     Author: Roland Lindh, 1990

 Geometry written to block  1 of record 700


 Point group  C1  



 ATOMIC COORDINATES

 NR  ATOM    CHARGE       X              Y              Z

   1  O11     8.00   -5.521590763    4.689166405    9.271374312
   2  H21     1.00   -3.831230745    4.709197502    8.531168589
   3  H22     1.00   -6.460595675    6.029171200    8.401722350
   4  C1      6.00   -6.193010455    2.801518980    2.403542658
   5  H41     1.00   -4.656285171    1.699997622    3.119937832
   6  H42     1.00   -5.973046335    4.726205038    2.982932688
   7  H43     1.00   -7.940251230    2.077186956    3.118237078
   8  H44     1.00   -6.176569838    2.685300823    0.384937212

 Bond lengths in Bohr (Angstrom)

 1-2  1.845432944  1-3  1.853007720  4-5  2.021904040  4-6  2.022002335  4-7  2.021953343
     ( 0.976561058)     ( 0.980569457)     ( 1.069945541)     ( 1.069997556)     ( 1.069971630)

 4-8  2.022015060
     ( 1.070004290)

 Bond angles

  2-1-3  105.54946434   5-4-6  109.53398059   5-4-7  109.65604535   5-4-8  108.43490854

  6-4-7  109.49436728   6-4-8  109.86987750   7-4-8  109.83468330

 NUCLEAR CHARGE:                   20
 NUMBER OF PRIMITIVE AOS:         296
 NUMBER OF SYMMETRY AOS:          266
 NUMBER OF CONTRACTIONS:          230   (  230A   )
 NUMBER OF CORE ORBITALS:           2   (    2A   )
 NUMBER OF VALENCE ORBITALS:       14   (   14A   )


 NUCLEAR REPULSION ENERGY   36.73986578


 Basis set:  JKFIT                   
 Basis size:   740
 Attributes:
 Sphericals:   T
 Basis set:  MP2FIT                  
 Basis size:   816
 Attributes:
 Sphericals:   T
 Basis set:  RI                      
 Basis size:   556
 Attributes:
 Sphericals:   T
 Basis set:  TDDFT                   
 Basis size:   816
 Attributes:
 Sphericals:   T

 **********************************************************************************************************************************


 Eigenvalues of metric

         1 0.599E-04 0.687E-04 0.996E-04 0.103E-03 0.333E-03 0.393E-03 0.626E-03 0.729E-03


 Contracted 2-electron integrals neglected if value below      1.0D-14
 AO integral compression algorithm  1   Integral accuracy      1.0D-14

     2187.330 MB (compressed) written to integral file ( 68.2%)

     Node minimum: 501.744 MB, node maximum: 568.590 MB


 NUMBER OF SORTED TWO-ELECTRON INTEGRALS:   88219044.     BUFFER LENGTH:  32768
 NUMBER OF SEGMENTS:   6  SEGMENT LENGTH:   15998348      RECORD LENGTH: 524288

 Memory used in sort:      16.56 MW

 SORT1 READ   400769927. AND WROTE    82598320. INTEGRALS IN    238 RECORDS. CPU TIME:     7.49 SEC, REAL TIME:     8.33 SEC
 SORT2 READ   330187348. AND WROTE   352862895. INTEGRALS IN   8676 RECORDS. CPU TIME:     1.73 SEC, REAL TIME:     2.47 SEC

 Node minimum:    88205762.  Node maximum:    88225686. integrals

 OPERATOR DM      FOR CENTER  0  COORDINATES:    0.000000    0.000000    0.000000


 **********************************************************************************************************************************
 DATASETS  * FILE   NREC   LENGTH (MB)   RECORD NAMES
              1      18       32.04       500      610      700      900      950      970     1000      129      960     1100   
                                          VAR    BASINP    GEOM    SYMINP    ZMAT    AOBASIS   BASIS     P2S    ABASIS      S 
                                         1400     1410     1200     1210     1080     1600     1650     1700   
                                           T        V       H0       H01     AOSYM     SMH    MOLCAS    OPER   

 PROGRAMS   *        TOTAL       INT
 CPU TIMES  *        14.57     14.34
 REAL TIME  *        19.36 SEC
 DISK USED  *        32.49 MB (local),        6.22 GB (total)
 GA USED    *         0.00 MB       (max)       0.00 MB       (current)
 **********************************************************************************************************************************


 PROGRAM * RHF-SCF (CLOSED SHELL)       Authors: W. Meyer, H.-J. Werner


 NUMBER OF ELECTRONS:      10+   10-    SPACE SYMMETRY=1    SPIN SYMMETRY: Singlet 
 CONVERGENCE THRESHOLDS:    1.00E-08 (Density)    1.00E-11 (Energy)
 MAX. NUMBER OF ITERATIONS:       60
 INTERPOLATION TYPE:            DIIS
 INTERPOLATION STEPS:              2 (START)      1 (STEP)
 LEVEL SHIFTS:                  0.00 (CLOSED)  0.00 (OPEN) 



 Orbital guess generated from atomic densities. Full valence occupancy:   16

 Molecular orbital dump at record        2100.2

 Initial occupancy:  10

 ITERATION    DDIFF          GRAD             ENERGY        2-EL.EN.            DIPOLE MOMENTS         DIIS   ORB.
    1      0.000D+00      0.000D+00      -116.21324754    158.882853    0.38791    0.69417   -0.82679    0    start
    2      0.000D+00      0.522D-02      -116.25715256    154.058621    0.20550    0.35971   -0.48612    1    diag
    3      0.553D-02      0.307D-02      -116.27052139    156.068420    0.25199    0.44531   -0.57120    2    diag
    4      0.183D-02      0.454D-03      -116.27117666    155.957560    0.24896    0.43966   -0.56285    3    diag
    5      0.405D-03      0.133D-03      -116.27124348    155.951339    0.24864    0.43924   -0.56281    4    diag
    6      0.142D-03      0.323D-04      -116.27124719    155.957273    0.24838    0.43876   -0.56228    5    diag
    7      0.400D-04      0.613D-05      -116.27124740    155.955694    0.24839    0.43880   -0.56229    6    diag
    8      0.107D-04      0.153D-05      -116.27124741    155.955840    0.24837    0.43875   -0.56225    7    diag
    9      0.208D-05      0.348D-06      -116.27124741    155.955815    0.24836    0.43874   -0.56223    8    diag
   10      0.710D-06      0.404D-07      -116.27124741    155.955817    0.24836    0.43874   -0.56223    9    orth
   11      0.563D-07      0.101D-07      -116.27124741    155.955818    0.24836    0.43874   -0.56223    9    diag
   12      0.224D-07      0.268D-08      -116.27124741    155.955818    0.24836    0.43874   -0.56223    9    diag
   13      0.432D-08      0.709D-09      -116.27124741    155.955818    0.24836    0.43874   -0.56223    0    orth

 Final occupancy:  10

 !RHF STATE  1.1 Energy              -116.271247412965
 Nuclear energy                        36.73986578
 One-electron energy                 -230.98902218
 Two-electron energy                   77.97790899
 Virial quotient                       -1.00110157
 !RHF STATE  1.1 Dipole moment          0.24836388     0.43874167    -0.56223320
 Dipole moment /Debye                   0.63123666     1.11509705    -1.42896066

 Orbital energies:

         1.1          2.1          3.1          4.1          5.1          6.1          7.1          8.1          9.1         10.1
    -20.569177   -11.200649    -1.341106    -0.954046    -0.707211    -0.578405    -0.555394    -0.552976    -0.550791    -0.506849

        11.1         12.1
      0.026309     0.041109


 HOMO     10.1    -0.506849 =     -13.7921eV
 LUMO     11.1     0.026309 =       0.7159eV
 LUMO-HOMO         0.533157 =      14.5079eV


 **********************************************************************************************************************************
 DATASETS  * FILE   NREC   LENGTH (MB)   RECORD NAMES
              1      18       32.04       500      610      700      900      950      970     1000      129      960     1100   
                                          VAR    BASINP    GEOM    SYMINP    ZMAT    AOBASIS   BASIS     P2S    ABASIS      S 
                                         1400     1410     1200     1210     1080     1600     1650     1700   
                                           T        V       H0       H01     AOSYM     SMH    MOLCAS    OPER   

              2       4        3.96       700     1000      520     2100   
                                         GEOM     BASIS   MCVARS     RHF  

 PROGRAMS   *        TOTAL    HF-SCF       INT
 CPU TIMES  *        29.07     14.50     14.34
 REAL TIME  *        34.55 SEC
 DISK USED  *        39.90 MB (local),        6.25 GB (total)
 SF USED    *         0.21 MB
 GA USED    *         0.00 MB       (max)       0.00 MB       (current)
 **********************************************************************************************************************************

 Basis set:  JKFIT                   
 Basis size:   740
 Attributes:
 Sphericals:   T
 Basis set:  MP2FIT                  
 Basis size:   816
 Attributes:
 Sphericals:   T
 Basis set:  RI                      
 Basis size:   556
 Attributes:
 Sphericals:   T
 Basis set:  TDDFT                   
 Basis size:   816
 Attributes:
 Sphericals:   T

 PROGRAM * CCSD (Closed-shell coupled cluster)     Authors: C. Hampel, H.-J. Werner, 1991, M. Deegan, P.J. Knowles, 1992

                                  CCSD-F12 implementation by  H.-J. Werner, 2007

                   Density fitting integral evaluation by F.R. Manby, 2003,2007, G. Knizia, 2010



 Convergence thresholds:  THRVAR = 1.00D-08  THRDEN = 1.00D-10

 CCSD(T)     terms to be evaluated (factor= 1.000)


 Number of core orbitals:           2 (   2 )
 Number of closed-shell orbitals:   8 (   8 )
 Number of external orbitals:     220 ( 220 )

 Molecular orbitals read from record     2100.2  Type=RHF/CANONICAL (state 1.1)

 MP2-F12 correlation treatment (H.-J. Werner, 2006)
 ==================================================

 Using MP2-F12 with ansatz 3C(FIX)

 Using projected zeroth-order Hamiltonian (+Z)

 FOCKRIB=T FOCKRIC=T FOCKRIP=T CABSP=T CABSA=T CABSK=T CABSF=T GBC=F EBC=F DMAT=T NOFIK=T NOPAO=1 SOLVE=-1  USEPAO=0
 EXCH_A= T EXCH_B= F EXCH_C= F EXCH_P= F

 Geminal basis:    OPTFULL  GEM_TYPE=SLATER  BETA=1.0  NGEM=6

 Optimizing Gaussian exponents for each gem_beta

 Geminal optimization for beta= 1.0000
 Weight function:   m=0, omega= 1.4646

 Augmented Hessian optimization of geminal fit. Trust ratio= 0.40000
 Convergence reached after   2 iterations. Final gradient= 7.85D-16, Step= 4.26D-06, Delta= 1.28D-09

 Alpha:                 0.19532     0.81920     2.85917     9.50073    35.69989   197.79328
 Coeff:                 0.27070     0.30552     0.18297     0.10986     0.06810     0.04224


 All pairs explicitly correlated. Number of r12-pairs:           36

 Excluding core orbitals from MO domains

 AO(A)-basis ORBITAL           loaded. Number of functions:     230
 RI(R)-basis RI                loaded. Number of functions:     556
 DF-basis JKFIT                loaded. Number of functions:     740

 Screening thresholds:   THRAO=  1.00D-10  THRMO=  1.00D-09  THRPROD=  1.00D-09
                         THRSW=  1.00D-05  THROV=  1.00D-12  THRAOF12= 1.00D-10

 CPU time for Fock operators                      3.62 sec

 Construction of ABS:
 Smallest eigenvalue of S          1.11E-04  (threshold= 1.00E-08)
 Ratio eigmin/eigmax               1.57E-05  (threshold= 1.00E-09)
 Smallest eigenvalue of S kept     1.11E-04  (threshold= 1.11E-04, 0 functions deleted, 556 kept)

 Construction of CABS:
 Smallest eigenvalue of S          6.54E-07  (threshold= 1.00E-08)
 Ratio eigmin/eigmax               6.54E-07  (threshold= 1.00E-09)
 Smallest eigenvalue of S kept     6.54E-07  (threshold= 6.54E-07, 0 functions deleted, 556 kept)

 CPU time for CABS singles                        0.67 sec

 CABS-singles contribution of  -0.00237874 patched into reference energy.
 New reference energy        -116.27362615

 AO(A)-basis ORBITAL           loaded. Number of functions:     230
 RI(R)-basis RI                loaded. Number of functions:     556
 DF-basis MP2FIT               loaded. Number of functions:     816

 Screening thresholds:   THRAO=  1.00D-10  THRMO=  1.00D-09  THRPROD=  1.00D-09
                         THRSW=  1.00D-05  THROV=  1.00D-12  THRAOF12= 1.00D-10

 CPU time for 3-index integral evaluation         5.51 sec
 CPU time for first  half transformation          1.35 sec ( 2366.4 MFLOP/sec)
 CPU time for second half transformation          0.05 sec ( 1070.9 MFLOP/sec)
 CPU time for sorting                             0.08 sec
 CPU time for fitting                             0.53 sec ( 4100.7 MFLOP/sec)
 CPU time for tilde quantities                    0.63 sec ( 4379.9 MFLOP/sec)
 CPU time for assembly                            4.63 sec ( 4277.8 MFLOP/sec)
 CPU time for tranop_f12                          4.56 sec ( 4186.4 MFLOP/sec)
 CPU time for f12 integrals (total)              24.48 sec, Elapsed time:     25.52 sec
 F12-matrices built in  4 passes.
 F12-matrices built in  4 passes.
 F12-matrices built in  4 passes.
 F12-matrices built in  4 passes.
 FC-matrix built in  4 passes.
 CPU time for f12 matrices (total)                1.14 sec, Elapsed time:      1.17 sec

 Diagonal F12 approximation with fixed coefficients:  TSING= 0.500,  TTRIP= 0.250 (scaled by -1/beta)

 DF-MP2-F12 energy corrections:
 ==============================
 Approx.                                    Singlet             Triplet             Total
 DF-MP2-F12/3*C(DX,FIX)                -0.046217438964     -0.006805198822     -0.053022637787
 DF-MP2-F12/3*C(FIX)                   -0.039906536350     -0.005614068418     -0.045520604768
 DF-MP2-F12/3C(FIX)                    -0.040022569439     -0.005579745991     -0.045602315430

 DF-MP2-F12 correlation energies:
 ================================
 Approx.                                    Singlet             Triplet             Ecorr            Total Energy
 DF-MP2                                -0.317429752069     -0.153842700996     -0.471272453065   -116.744898601132
 DF-MP2-F12/3*C(DX,FIX)                -0.363647191034     -0.160647899818     -0.524295090851   -116.797921238919
 DF-MP2-F12/3*C(FIX)                   -0.357336288419     -0.159456769414     -0.516793057833   -116.790419205900
 DF-MP2-F12/3C(FIX)                    -0.357452321508     -0.159422446987     -0.516874768495   -116.790500916562

 SCS-DF-MP2 energies (F_SING= 1.20000  F_TRIP= 0.62222  F_PARALLEL= 0.33333):
 ============================================================================
 SCS-DF-MP2                            -0.476640049769   -116.750266197837
 SCS-DF-MP2-F12/3*C(DX,FIX)            -0.536335322460   -116.809961470528
 SCS-DF-MP2-F12/3*C(FIX)               -0.528021091516   -116.801647239584
 SCS-DF-MP2-F12/3C(FIX)                -0.528138975046   -116.801765123113
 Symmetry transformation completed.

 Number of N-1 electron functions:               8
 Number of N-2 electron functions:              36
 Number of singly external CSFs:              1760
 Number of doubly external CSFs:           1549680
 Total number of CSFs:                     1551441

 Pair and operator lists are different

 Length of J-op  integral file:             315.61 MB
 Length of K-op  integral file:             368.50 MB
 Length of 3-ext integral record:             0.00 MB

 Memory could be reduced to 116.32 Mwords without degradation in triples

 Integral transformation finished. Total CPU:  23.48 sec, npass=  1  Memory used:  59.34 MW

 Reference energy:                   -116.27362615

 Adding F12 terms to K(Cij), methodcc=6,  factor= 1.0

 ITER.      SQ.NORM     CORR.ENERGY   TOTAL ENERGY   ENERGY CHANGE        DEN1      VAR(S)    VAR(P)  DIIS     TIME  TIME/IT
   1      1.13207695    -0.48593361  -116.75955975    -0.01464374    -0.00301055  0.15D-02  0.20D-02  1  1    69.71    14.28
   2      1.14033409    -0.48620062  -116.75982677    -0.00026701    -0.00971491  0.28D-04  0.23D-03  2  2    84.17    14.45
   3      1.14320900    -0.48646038  -116.76008652    -0.00025976    -0.00196193  0.12D-04  0.12D-04  3  3    98.58    14.51
   4      1.14408235    -0.48651519  -116.76014134    -0.00005481    -0.00048065  0.52D-06  0.11D-05  4  4   112.98    14.54
   5      1.14422742    -0.48650978  -116.76013593     0.00000541    -0.00003919  0.20D-06  0.77D-07  5  5   127.43    14.56
   6      1.14426796    -0.48650684  -116.76013299     0.00000294    -0.00000625  0.19D-07  0.60D-08  6  6   141.92    14.58
   7      1.14427765    -0.48650612  -116.76013227     0.00000072    -0.00000259  0.18D-08  0.96D-09  6  2   156.37    14.59
   8      1.14427982    -0.48650600  -116.76013215     0.00000012    -0.00000029  0.35D-09  0.11D-09  6  1   170.79    14.61
   9      1.14428062    -0.48650608  -116.76013223    -0.00000008     0.00000000  0.34D-10  0.16D-10  6  3   185.30    14.62
  10      1.14428080    -0.48650607  -116.76013222     0.00000001     0.00000003  0.40D-11  0.22D-11  6  4   199.82    14.63
  11      1.14428074    -0.48650608  -116.76013223    -0.00000001     0.00000008  0.72D-12  0.31D-12  6  5   214.23    14.64
  12      1.14428072    -0.48650608  -116.76013223    -0.00000000     0.00000002  0.14D-12  0.44D-13  6  6   228.73    14.64
  13      1.14428069    -0.48650608  -116.76013223    -0.00000000     0.00000001  0.21D-13  0.69D-14  6  2   243.19    14.65
  14      1.14428068    -0.48650608  -116.76013223    -0.00000000     0.00000000  0.27D-14  0.14D-14  6  1   257.61    14.65
  15      1.14428068    -0.48650608  -116.76013223    -0.00000000    -0.00000000  0.25D-15  0.16D-15  6  3   272.03    14.65
  16      1.14428068    -0.48650608  -116.76013223     0.00000000    -0.00000000  0.30D-16  0.21D-16  6  4   286.51    14.65
  17      1.14428068    -0.48650608  -116.76013223     0.00000000    -0.00000000  0.48D-17  0.32D-17  6  5   300.97    14.65

 Norm of t1 vector:      0.05061514      S-energy:     0.00000000      T1 diagnostic:  0.00894758
                                                                       D1 diagnostic:  0.01908714

 Adding energy correction from Wij-K(Fij), methodcc=6  factor= 1.0

  CCSD correlation energy              -0.486506080432
  MP2-F12 correction (uncoupled)       -0.045347049399
  C*T doubles correction               -0.000606981516
  f12b correction                       0.008421204055


 Total CPU time for triples:    219.49 sec

  Ecorr(MP2)                           -0.471289868502
  Ecorr(MP2-F12)                       -0.516892183932
  Scale factor for triples energy       1.096760653003


 RESULTS
 =======

  Reference energy                   -116.271247412964
  F12 singles correction               -0.002378735103

 F12 singles corrections added to reference energy

  New reference energy               -116.273626148067

  F12a singlet correction              -0.040278867830
  F12a triplet correction              -0.005675163086
  F12a total correction                -0.045954030915

 F12a corrections for ansatz F12/3C(FIX) added to CCSD energy

  CCSD-F12a singlet pair energy        -0.386083123675
  CCSD-F12a triplet pair energy        -0.146376987764
  CCSD-F12a correlation energy         -0.532460111347

  Triples (T) contribution (scaled)    -0.016486620413
  Total correlation energy             -0.548946731760

  CCSD-F12a total energy             -116.806086259414
  CCSD[T]-F12a energy                -116.823165643361
  CCSD-T-F12a energy                 -116.822352553066
 !CCSD(T)-F12a total energy          -116.822572879827

 F12b corrections for ansatz F12/3C(FIX) added to CCSD(T)-F12a energy

  CCSD-F12b singlet pair energy        -0.378193057250
  CCSD-F12b triplet pair energy        -0.145845850134
  CCSD-F12b correlation energy         -0.524038907292

  Triples (T) contribution (scaled)    -0.016486620413
  Total correlation energy             -0.540525527705

  CCSD-F12b total energy             -116.797665055359
  CCSD[T]-F12b energy                -116.814744439306
  CCSD-T-F12b energy                 -116.813931349011
 !CCSD(T)-F12b total energy          -116.814151675772

 Timing summary (sec):

 STEP                 CPU(USER)    SYS     CPU(TOT)    WALL
 Transformation         23.66      1.07     24.73     24.75
 CCSD iterations       245.43      3.31    248.74    249.15
 Triples               219.49      0.82    220.31    220.61
 MP2-F12                31.90      1.25     33.15     33.39
 F12b energy            11.20      0.04     11.24     11.25

 Program statistics:

 Available memory in ccsd:              1999999554
 Min. memory needed in ccsd:               4597329
 Max. memory used in ccsd:                 5918289
 Max. memory used in cckext:               4231061 (18 integral passes)



 **********************************************************************************************************************************
 DATASETS  * FILE   NREC   LENGTH (MB)   RECORD NAMES
              1      19      398.06       500      610      700      900      950      970     1000      129      960     1100   
                                          VAR    BASINP    GEOM    SYMINP    ZMAT    AOBASIS   BASIS     P2S    ABASIS      S 
                                         1400     1410     1200     1210     1080     1600     1650     1700     1380   
                                           T        V       H0       H01     AOSYM     SMH    MOLCAS    OPER     JKOP   

              2       6        5.03       700     1000      520     2100     7360     7350   
                                         GEOM     BASIS   MCVARS     RHF    F12ABS    EF12   

 PROGRAMS   *        TOTAL   CCSD(T)    HF-SCF       INT
 CPU TIMES  *       560.98    531.89     14.50     14.34
 REAL TIME  *       574.66 SEC
 DISK USED  *       570.60 MB (local),        7.87 GB (total)
 SF USED    *         1.36 GB
 GA USED    *         4.87 MB       (max)       0.00 MB       (current)
 **********************************************************************************************************************************

 Running procedure: SET_MONOMER1

 Dummy atoms: C1  H41  H42  H43  H44


 Recomputing one-electron integrals since nuclear charges changed


 PROGRAM * SEWARD (Integral evaluation for generally contracted gaussian basis sets)     Author: Roland Lindh, 1990

 Geometry written to block  1 of record 700


 Point group  C1  



 ATOMIC COORDINATES

 NR  ATOM    CHARGE       X              Y              Z

   1  O11     8.00   -5.521590763    4.689166405    9.271374312
   2  H21     1.00   -3.831230745    4.709197502    8.531168589
   3  H22     1.00   -6.460595675    6.029171200    8.401722350
   4  C1      0.00   -6.193010455    2.801518980    2.403542658
   5  H41     0.00   -4.656285171    1.699997622    3.119937832
   6  H42     0.00   -5.973046335    4.726205038    2.982932688
   7  H43     0.00   -7.940251230    2.077186956    3.118237078
   8  H44     0.00   -6.176569838    2.685300823    0.384937212

 Bond lengths in Bohr (Angstrom)

 1-2  1.845432944  1-3  1.853007720  4-5  2.021904040  4-6  2.022002335  4-7  2.021953343
     ( 0.976561058)     ( 0.980569457)     ( 1.069945541)     ( 1.069997556)     ( 1.069971630)

 4-8  2.022015060
     ( 1.070004290)

 Bond angles

  2-1-3  105.54946434   5-4-6  109.53398059   5-4-7  109.65604535   5-4-8  108.43490854

  6-4-7  109.49436728   6-4-8  109.86987750   7-4-8  109.83468330

 NUCLEAR CHARGE:                   10
 NUMBER OF PRIMITIVE AOS:         296
 NUMBER OF SYMMETRY AOS:          266
 NUMBER OF CONTRACTIONS:          230   (  230A   )
 NUMBER OF CORE ORBITALS:           1   (    1A   )
 NUMBER OF VALENCE ORBITALS:        6   (    6A   )

 MOLECULE CHANGED: INITIALIZING OCCUPATION AND DUMP RECORDS


 NUCLEAR REPULSION ENERGY    8.99189736

 Basis set:  JKFIT                   
 Basis size:   740
 Attributes:
 Sphericals:   T
 Basis set:  MP2FIT                  
 Basis size:   816
 Attributes:
 Sphericals:   T
 Basis set:  RI                      
 Basis size:   556
 Attributes:
 Sphericals:   T
 Basis set:  TDDFT                   
 Basis size:   816
 Attributes:
 Sphericals:   T

 Eigenvalues of metric

         1 0.599E-04 0.687E-04 0.996E-04 0.103E-03 0.333E-03 0.393E-03 0.626E-03 0.729E-03


 Contracted 2-electron integrals neglected if value below      1.0D-14

 OPERATOR DM      FOR CENTER  0  COORDINATES:    0.000000    0.000000    0.000000


 **********************************************************************************************************************************
 DATASETS  * FILE   NREC   LENGTH (MB)   RECORD NAMES
              1      18       32.04       500      610      700      900      950      970     1000      129      960     1100   
                                          VAR    BASINP    GEOM    SYMINP    ZMAT    AOBASIS   BASIS     P2S    ABASIS      S 
                                         1400     1410     1200     1210     1080     1600     1650     1700   
                                           T        V       H0       H01     AOSYM     SMH    MOLCAS    OPER   

              2       7        5.05       700     1000      520     2100     7360     7350      200   
                                         GEOM     BASIS   MCVARS     RHF    F12ABS    EF12    OPTIONS    

 PROGRAMS   *        TOTAL       INT   CCSD(T)    HF-SCF       INT
 CPU TIMES  *       561.21      0.24    531.89     14.50     14.34
 REAL TIME  *       575.42 SEC
 DISK USED  *       570.60 MB (local),        7.87 GB (total)
 SF USED    *         1.36 GB
 GA USED    *         4.87 MB       (max)       0.00 MB       (current)
 **********************************************************************************************************************************


 PROGRAM * RHF-SCF (CLOSED SHELL)       Authors: W. Meyer, H.-J. Werner


 NUMBER OF ELECTRONS:       5+    5-    SPACE SYMMETRY=1    SPIN SYMMETRY: Singlet 
 CONVERGENCE THRESHOLDS:    1.00E-08 (Density)    1.00E-11 (Energy)
 MAX. NUMBER OF ITERATIONS:       60
 INTERPOLATION TYPE:            DIIS
 INTERPOLATION STEPS:              2 (START)      1 (STEP)
 LEVEL SHIFTS:                  0.00 (CLOSED)  0.00 (OPEN) 



 Orbital guess generated from atomic densities. Full valence occupancy:    7

 Molecular orbital dump at record        2101.2

 Initial occupancy:   5

 ITERATION    DDIFF          GRAD             ENERGY        2-EL.EN.            DIPOLE MOMENTS         DIIS   ORB.
    1      0.000D+00      0.000D+00       -76.02020525     77.370353    0.38419    0.69823   -0.82577    0    start
    2      0.000D+00      0.639D-02       -76.04680703     73.739859    0.22471    0.40585   -0.48050    1    diag
    3      0.445D-02      0.408D-02       -76.05817120     75.345107    0.26442    0.47810   -0.56596    2    diag
    4      0.161D-02      0.376D-03       -76.05836226     75.255736    0.26310    0.47519   -0.56264    3    diag
    5      0.204D-03      0.105D-03       -76.05838229     75.269842    0.26260    0.47408   -0.56137    4    diag
    6      0.646D-04      0.204D-04       -76.05838353     75.268962    0.26252    0.47386   -0.56113    5    diag
    7      0.162D-04      0.403D-05       -76.05838359     75.269091    0.26248    0.47378   -0.56103    6    diag
    8      0.416D-05      0.747D-06       -76.05838359     75.269076    0.26247    0.47375   -0.56101    7    diag
    9      0.711D-06      0.957D-07       -76.05838359     75.269067    0.26247    0.47375   -0.56100    8    diag
   10      0.870D-07      0.236D-07       -76.05838359     75.269070    0.26247    0.47375   -0.56100    9    orth
   11      0.228D-07      0.421D-08       -76.05838359     75.269070    0.26247    0.47375   -0.56100    9    diag
   12      0.479D-08      0.622D-09       -76.05838359     75.269070    0.26247    0.47375   -0.56100    0    orth

 Final occupancy:   5

 !RHF STATE  1.1 Energy               -76.058383592699
 Nuclear energy                         8.99189736
 One-electron energy                 -122.68481579
 Two-electron energy                   37.63453483
 Virial quotient                       -1.00241651
 !RHF STATE  1.1 Dipole moment          0.26246573     0.47375218    -0.56100344
 Dipole moment /Debye                   0.66707765     1.20407906    -1.42583513

 Orbital energies:

         1.1          2.1          3.1          4.1          5.1          6.1          7.1
    -20.570407    -1.342121    -0.708196    -0.578830    -0.508319     0.019751     0.038417


 HOMO      5.1    -0.508319 =     -13.8321eV
 LUMO      6.1     0.019751 =       0.5375eV
 LUMO-HOMO         0.528070 =      14.3695eV


 **********************************************************************************************************************************
 DATASETS  * FILE   NREC   LENGTH (MB)   RECORD NAMES
              1      18       32.04       500      610      700      900      950      970     1000      129      960     1100   
                                          VAR    BASINP    GEOM    SYMINP    ZMAT    AOBASIS   BASIS     P2S    ABASIS      S 
                                         1400     1410     1200     1210     1080     1600     1650     1700   
                                           T        V       H0       H01     AOSYM     SMH    MOLCAS    OPER   

              2       8        9.09       700     1000      520     2100     7360     7350      200     2101   
                                         GEOM     BASIS   MCVARS     RHF    F12ABS    EF12    OPTIONS    RHF  

 PROGRAMS   *        TOTAL    HF-SCF       INT   CCSD(T)    HF-SCF       INT
 CPU TIMES  *       574.64     13.43      0.24    531.89     14.50     14.34
 REAL TIME  *       589.52 SEC
 DISK USED  *       570.60 MB (local),        7.87 GB (total)
 SF USED    *         1.36 GB
 GA USED    *         4.87 MB       (max)       0.00 MB       (current)
 **********************************************************************************************************************************

 Basis set:  JKFIT                   
 Basis size:   740
 Attributes:
 Sphericals:   T
 Basis set:  MP2FIT                  
 Basis size:   816
 Attributes:
 Sphericals:   T
 Basis set:  RI                      
 Basis size:   556
 Attributes:
 Sphericals:   T
 Basis set:  TDDFT                   
 Basis size:   816
 Attributes:
 Sphericals:   T

 PROGRAM * CCSD (Closed-shell coupled cluster)     Authors: C. Hampel, H.-J. Werner, 1991, M. Deegan, P.J. Knowles, 1992

                                  CCSD-F12 implementation by  H.-J. Werner, 2007

                   Density fitting integral evaluation by F.R. Manby, 2003,2007, G. Knizia, 2010



 Convergence thresholds:  THRVAR = 1.00D-08  THRDEN = 1.00D-10

 CCSD(T)     terms to be evaluated (factor= 1.000)


 Number of core orbitals:           1 (   1 )
 Number of closed-shell orbitals:   4 (   4 )
 Number of external orbitals:     225 ( 225 )

 Molecular orbitals read from record     2101.2  Type=RHF/CANONICAL (state 1.1)

 MP2-F12 correlation treatment (H.-J. Werner, 2006)
 ==================================================

 Using MP2-F12 with ansatz 3C(FIX)

 Using projected zeroth-order Hamiltonian (+Z)

 FOCKRIB=T FOCKRIC=T FOCKRIP=T CABSP=T CABSA=T CABSK=T CABSF=T GBC=F EBC=F DMAT=T NOFIK=T NOPAO=1 SOLVE=-1  USEPAO=0
 EXCH_A= T EXCH_B= F EXCH_C= F EXCH_P= F

 Geminal basis:    OPTFULL  GEM_TYPE=SLATER  BETA=1.0  NGEM=6

 Optimizing Gaussian exponents for each gem_beta

 Geminal optimization for beta= 1.0000
 Weight function:   m=0, omega= 1.4646

 Augmented Hessian optimization of geminal fit. Trust ratio= 0.40000
 Convergence reached after   2 iterations. Final gradient= 8.31D-16, Step= 4.24D-06, Delta= 1.28D-09

 Alpha:                 0.19532     0.81920     2.85917     9.50073    35.69989   197.79328
 Coeff:                 0.27070     0.30552     0.18297     0.10986     0.06810     0.04224


 All pairs explicitly correlated. Number of r12-pairs:           10

 Excluding core orbitals from MO domains

 AO(A)-basis ORBITAL           loaded. Number of functions:     230
 RI(R)-basis RI                loaded. Number of functions:     556
 DF-basis JKFIT                loaded. Number of functions:     740

 Screening thresholds:   THRAO=  1.00D-10  THRMO=  1.00D-09  THRPROD=  1.00D-09
                         THRSW=  1.00D-05  THROV=  1.00D-12  THRAOF12= 1.00D-10

 CPU time for Fock operators                      2.99 sec

 Construction of ABS:
 Smallest eigenvalue of S          1.11E-04  (threshold= 1.00E-08)
 Ratio eigmin/eigmax               1.57E-05  (threshold= 1.00E-09)
 Smallest eigenvalue of S kept     1.11E-04  (threshold= 1.11E-04, 0 functions deleted, 556 kept)

 Construction of CABS:
 Smallest eigenvalue of S          6.54E-07  (threshold= 1.00E-08)
 Ratio eigmin/eigmax               6.54E-07  (threshold= 1.00E-09)
 Smallest eigenvalue of S kept     6.54E-07  (threshold= 6.54E-07, 0 functions deleted, 556 kept)

 CPU time for CABS singles                        0.68 sec

 CABS-singles contribution of  -0.00146766 patched into reference energy.
 New reference energy         -76.05985125

 AO(A)-basis ORBITAL           loaded. Number of functions:     230
 RI(R)-basis RI                loaded. Number of functions:     556
 DF-basis MP2FIT               loaded. Number of functions:     816

 Screening thresholds:   THRAO=  1.00D-10  THRMO=  1.00D-09  THRPROD=  1.00D-09
                         THRSW=  1.00D-05  THROV=  1.00D-12  THRAOF12= 1.00D-10

 CPU time for 3-index integral evaluation         5.33 sec
 CPU time for first  half transformation          0.62 sec ( 2292.4 MFLOP/sec)
 CPU time for sorting                             0.04 sec
 CPU time for fitting                             0.37 sec ( 2829.0 MFLOP/sec)
 CPU time for tilde quantities                    0.38 sec ( 5544.1 MFLOP/sec)
 CPU time for assembly                            1.41 sec ( 3486.2 MFLOP/sec)
 CPU time for tranop_f12                          1.28 sec ( 3483.4 MFLOP/sec)
 CPU time for f12 integrals (total)              11.75 sec, Elapsed time:     12.12 sec
 F12-matrices built in  4 passes.
 F12-matrices built in  4 passes.
 F12-matrices built in  4 passes.
 F12-matrices built in  4 passes.
 FC-matrix built in  4 passes.
 CPU time for f12 matrices (total)                0.27 sec, Elapsed time:      0.30 sec

 Diagonal F12 approximation with fixed coefficients:  TSING= 0.500,  TTRIP= 0.250 (scaled by -1/beta)

 DF-MP2-F12 energy corrections:
 ==============================
 Approx.                                    Singlet             Triplet             Total
 DF-MP2-F12/3*C(DX,FIX)                -0.029500514767     -0.004867648330     -0.034368163096
 DF-MP2-F12/3*C(FIX)                   -0.024427644356     -0.003814196373     -0.028241840729
 DF-MP2-F12/3C(FIX)                    -0.024557983724     -0.003787246903     -0.028345230627

 DF-MP2-F12 correlation energies:
 ================================
 Approx.                                    Singlet             Triplet             Ecorr            Total Energy
 DF-MP2                                -0.171803507955     -0.098278366843     -0.270081874798    -76.329933127825
 DF-MP2-F12/3*C(DX,FIX)                -0.201304022722     -0.103146015173     -0.304450037895    -76.364301290921
 DF-MP2-F12/3*C(FIX)                   -0.196231152311     -0.102092563216     -0.298323715527    -76.358174968554
 DF-MP2-F12/3C(FIX)                    -0.196361491679     -0.102065613746     -0.298427105425    -76.358278358452

 SCS-DF-MP2 energies (F_SING= 1.20000  F_TRIP= 0.62222  F_PARALLEL= 0.33333):
 ============================================================================
 SCS-DF-MP2                            -0.267315193360    -76.327166446386
 SCS-DF-MP2-F12/3*C(DX,FIX)            -0.305744570040    -76.365595823067
 SCS-DF-MP2-F12/3*C(FIX)               -0.299001644330    -76.358852897357
 SCS-DF-MP2-F12/3C(FIX)                -0.299141283013    -76.358992536039
 Symmetry transformation completed.

 Number of N-1 electron functions:               4
 Number of N-2 electron functions:              10
 Number of singly external CSFs:               900
 Number of doubly external CSFs:            405450
 Total number of CSFs:                      406351

 Pair and operator lists are different

 Length of J-op  integral file:              81.60 MB
 Length of K-op  integral file:             128.10 MB
 Length of 3-ext integral record:             0.00 MB

 Memory could be reduced to 75.63 Mwords without degradation in triples

 Integral transformation finished. Total CPU:  12.24 sec, npass=  1  Memory used:  32.52 MW

 Reference energy:                    -76.05985125

 Adding F12 terms to K(Cij), methodcc=6,  factor= 1.0

 ITER.      SQ.NORM     CORR.ENERGY   TOTAL ENERGY   ENERGY CHANGE        DEN1      VAR(S)    VAR(P)  DIIS     TIME  TIME/IT
   1      1.06234678    -0.26968833   -76.32953959     0.00040108     0.00634714  0.79D-03  0.10D-02  1  1    33.44     3.90
   2      1.06577637    -0.26936479   -76.32921604     0.00032354    -0.00463605  0.13D-04  0.11D-03  2  2    37.37     3.96
   3      1.06701795    -0.26948674   -76.32933799    -0.00012195    -0.00082867  0.93D-05  0.60D-05  3  3    41.26     3.97
   4      1.06750993    -0.26952384   -76.32937509    -0.00003710    -0.00027707  0.42D-06  0.66D-06  4  4    45.13     3.98
   5      1.06760272    -0.26952095   -76.32937221     0.00000288    -0.00002850  0.16D-06  0.46D-07  5  5    49.05     3.99
   6      1.06763424    -0.26951885   -76.32937010     0.00000211    -0.00000443  0.17D-07  0.38D-08  6  6    52.91     4.00
   7      1.06764211    -0.26951856   -76.32936981     0.00000029    -0.00000157  0.14D-08  0.86D-09  6  2    56.83     4.00
   8      1.06764373    -0.26951844   -76.32936970     0.00000012    -0.00000006  0.26D-09  0.90D-10  6  1    60.77     4.00
   9      1.06764434    -0.26951851   -76.32936976    -0.00000007     0.00000009  0.23D-10  0.91D-11  6  3    64.66     4.00
  10      1.06764451    -0.26951850   -76.32936975     0.00000001    -0.00000001  0.32D-11  0.14D-11  6  4    68.54     4.01
  11      1.06764449    -0.26951850   -76.32936975    -0.00000000     0.00000004  0.68D-12  0.19D-12  6  5    72.38     4.01
  12      1.06764449    -0.26951850   -76.32936975    -0.00000000     0.00000001  0.11D-12  0.34D-13  6  6    76.27     4.01
  13      1.06764447    -0.26951850   -76.32936975     0.00000000     0.00000000  0.15D-13  0.57D-14  6  2    80.18     4.01
  14      1.06764447    -0.26951850   -76.32936975    -0.00000000     0.00000000  0.16D-14  0.85D-15  6  1    84.06     4.01
  15      1.06764447    -0.26951850   -76.32936975    -0.00000000     0.00000000  0.25D-15  0.12D-15  6  5    87.89     4.01
  16      1.06764447    -0.26951850   -76.32936975    -0.00000000     0.00000000  0.53D-16  0.21D-16  6  1    91.78     4.01

 Norm of t1 vector:      0.03704446      S-energy:    -0.00000000      T1 diagnostic:  0.00926111
                                                                       D1 diagnostic:  0.01841921

 Adding energy correction from Wij-K(Fij), methodcc=6  factor= 1.0

  CCSD correlation energy              -0.269518501872
  MP2-F12 correction (uncoupled)       -0.028079425872
  C*T doubles correction               -0.000412983641
  f12b correction                       0.004758770120


 Total CPU time for triples:     34.64 sec

  Ecorr(MP2)                           -0.270089411123
  Ecorr(MP2-F12)                       -0.298434641750
  Scale factor for triples energy       1.104947582022


 RESULTS
 =======

  Reference energy                    -76.058383592700
  F12 singles correction               -0.001467660326

 F12 singles corrections added to reference energy

  New reference energy                -76.059851253027

  F12a singlet correction              -0.024634616427
  F12a triplet correction              -0.003857793086
  F12a total correction                -0.028492409513

 F12a corrections for ansatz F12/3C(FIX) added to CCSD energy

  CCSD-F12a singlet pair energy        -0.207407182126
  CCSD-F12a triplet pair energy        -0.090603729257
  CCSD-F12a correlation energy         -0.298010911385

  Triples (T) contribution (scaled)    -0.009548305261
  Total correlation energy             -0.307559216646

  CCSD-F12a total energy              -76.357862164412
  CCSD[T]-F12a energy                 -76.367758493404
  CCSD-T-F12a energy                  -76.367267395903
 !CCSD(T)-F12a total energy           -76.367410469673

 F12b corrections for ansatz F12/3C(FIX) added to CCSD(T)-F12a energy

  CCSD-F12b singlet pair energy        -0.203006967559
  CCSD-F12b triplet pair energy        -0.090245173704
  CCSD-F12b correlation energy         -0.293252141265

  Triples (T) contribution (scaled)    -0.009548305261
  Total correlation energy             -0.302800446526

  CCSD-F12b total energy              -76.353103394292
  CCSD[T]-F12b energy                 -76.362999723284
  CCSD-T-F12b energy                  -76.362508625782
 !CCSD(T)-F12b total energy           -76.362651699553

 Timing summary (sec):

 STEP                 CPU(USER)    SYS     CPU(TOT)    WALL
 Transformation         12.30      0.38     12.68     12.70
 CCSD iterations        62.16      1.90     64.06     64.15
 Triples                34.64      0.13     34.77     34.82
 MP2-F12                17.33      0.49     17.82     17.83
 F12b energy             3.36      0.04      3.40      3.41

 Program statistics:

 Available memory in ccsd:              1999999871
 Min. memory needed in ccsd:               1862772
 Max. memory used in ccsd:                 2158322
 Max. memory used in cckext:               1445635 (17 integral passes)



 **********************************************************************************************************************************
 DATASETS  * FILE   NREC   LENGTH (MB)   RECORD NAMES
              1      19      222.31       500      610      700      900      950      970     1000      129      960     1100   
                                          VAR    BASINP    GEOM    SYMINP    ZMAT    AOBASIS   BASIS     P2S    ABASIS      S 
                                         1400     1410     1200     1210     1080     1600     1650     1700     1380   
                                           T        V       H0       H01     AOSYM     SMH    MOLCAS    OPER     JKOP   

              2       8        9.09       700     1000      520     2100     7360     7350      200     2101   
                                         GEOM     BASIS   MCVARS     RHF    F12ABS    EF12    OPTIONS    RHF  

 PROGRAMS   *        TOTAL   CCSD(T)    HF-SCF       INT   CCSD(T)    HF-SCF       INT
 CPU TIMES  *       704.66    130.02     13.43      0.24    531.89     14.50     14.34
 REAL TIME  *       723.21 SEC
 DISK USED  *       570.60 MB (local),        7.87 GB (total)
 SF USED    *         1.36 GB
 GA USED    *         4.87 MB       (max)       0.00 MB       (current)
 **********************************************************************************************************************************

 Running procedure: SET_MONOMER2

 Dummy atoms: O11  H21  H22


 Recomputing one-electron integrals since nuclear charges changed


 PROGRAM * SEWARD (Integral evaluation for generally contracted gaussian basis sets)     Author: Roland Lindh, 1990

 Geometry written to block  1 of record 700


 Point group  C1  



 ATOMIC COORDINATES

 NR  ATOM    CHARGE       X              Y              Z

   1  O11     0.00   -5.521590763    4.689166405    9.271374312
   2  H21     0.00   -3.831230745    4.709197502    8.531168589
   3  H22     0.00   -6.460595675    6.029171200    8.401722350
   4  C1      6.00   -6.193010455    2.801518980    2.403542658
   5  H41     1.00   -4.656285171    1.699997622    3.119937832
   6  H42     1.00   -5.973046335    4.726205038    2.982932688
   7  H43     1.00   -7.940251230    2.077186956    3.118237078
   8  H44     1.00   -6.176569838    2.685300823    0.384937212

 Bond lengths in Bohr (Angstrom)

 1-2  1.845432944  1-3  1.853007720  4-5  2.021904040  4-6  2.022002335  4-7  2.021953343
     ( 0.976561058)     ( 0.980569457)     ( 1.069945541)     ( 1.069997556)     ( 1.069971630)

 4-8  2.022015060
     ( 1.070004290)

 Bond angles

  2-1-3  105.54946434   5-4-6  109.53398059   5-4-7  109.65604535   5-4-8  108.43490854

  6-4-7  109.49436728   6-4-8  109.86987750   7-4-8  109.83468330

 NUCLEAR CHARGE:                   10
 NUMBER OF PRIMITIVE AOS:         296
 NUMBER OF SYMMETRY AOS:          266
 NUMBER OF CONTRACTIONS:          230   (  230A   )
 NUMBER OF CORE ORBITALS:           1   (    1A   )
 NUMBER OF VALENCE ORBITALS:        8   (    8A   )

 MOLECULE CHANGED: INITIALIZING OCCUPATION AND DUMP RECORDS


 NUCLEAR REPULSION ENERGY   13.68681606

 Basis set:  JKFIT                   
 Basis size:   740
 Attributes:
 Sphericals:   T
 Basis set:  MP2FIT                  
 Basis size:   816
 Attributes:
 Sphericals:   T
 Basis set:  RI                      
 Basis size:   556
 Attributes:
 Sphericals:   T
 Basis set:  TDDFT                   
 Basis size:   816
 Attributes:
 Sphericals:   T

 Eigenvalues of metric

         1 0.599E-04 0.687E-04 0.996E-04 0.103E-03 0.333E-03 0.393E-03 0.626E-03 0.729E-03


 Contracted 2-electron integrals neglected if value below      1.0D-14

 OPERATOR DM      FOR CENTER  0  COORDINATES:    0.000000    0.000000    0.000000


 **********************************************************************************************************************************
 DATASETS  * FILE   NREC   LENGTH (MB)   RECORD NAMES
              1      18       32.04       500      610      700      900      950      970     1000      129      960     1100   
                                          VAR    BASINP    GEOM    SYMINP    ZMAT    AOBASIS   BASIS     P2S    ABASIS      S 
                                         1400     1410     1200     1210     1080     1600     1650     1700   
                                           T        V       H0       H01     AOSYM     SMH    MOLCAS    OPER   

              2       8        9.09       700     1000      520     2100     7360     7350      200     2101   
                                         GEOM     BASIS   MCVARS     RHF    F12ABS    EF12    OPTIONS    RHF  

 PROGRAMS   *        TOTAL       INT   CCSD(T)    HF-SCF       INT   CCSD(T)    HF-SCF       INT
 CPU TIMES  *       704.92      0.25    130.02     13.43      0.24    531.89     14.50     14.34
 REAL TIME  *       723.96 SEC
 DISK USED  *       570.60 MB (local),        7.87 GB (total)
 SF USED    *         1.36 GB
 GA USED    *         4.87 MB       (max)       0.00 MB       (current)
 **********************************************************************************************************************************


 PROGRAM * RHF-SCF (CLOSED SHELL)       Authors: W. Meyer, H.-J. Werner


 NUMBER OF ELECTRONS:       5+    5-    SPACE SYMMETRY=1    SPIN SYMMETRY: Singlet 
 CONVERGENCE THRESHOLDS:    1.00E-08 (Density)    1.00E-11 (Energy)
 MAX. NUMBER OF ITERATIONS:       60
 INTERPOLATION TYPE:            DIIS
 INTERPOLATION STEPS:              2 (START)      1 (STEP)
 LEVEL SHIFTS:                  0.00 (CLOSED)  0.00 (OPEN) 



 Orbital guess generated from atomic densities. Full valence occupancy:    9

 Molecular orbital dump at record        2102.2

 Initial occupancy:   5

 ITERATION    DDIFF          GRAD             ENERGY        2-EL.EN.            DIPOLE MOMENTS         DIIS   ORB.
    1      0.000D+00      0.000D+00       -40.19358873     53.494051    0.00410   -0.00277   -0.00133    0    start
    2      0.000D+00      0.353D-02       -40.21070669     52.213673    0.00128   -0.00090   -0.00041    1    diag
    3      0.324D-02      0.137D-02       -40.21295529     52.664851    0.00181   -0.00125   -0.00058    2    diag
    4      0.914D-03      0.342D-03       -40.21327079     52.609823    0.00161   -0.00112   -0.00051    3    diag
    5      0.303D-03      0.444D-04       -40.21327619     52.612161    0.00158   -0.00110   -0.00050    4    diag
    6      0.771D-04      0.345D-05       -40.21327623     52.612259    0.00158   -0.00110   -0.00050    5    diag
    7      0.651D-05      0.264D-06       -40.21327623     52.612225    0.00158   -0.00110   -0.00050    6    diag
    8      0.972D-06      0.221D-07       -40.21327623     52.612225    0.00158   -0.00110   -0.00050    7    diag
    9      0.190D-06      0.284D-08       -40.21327623     52.612225    0.00158   -0.00110   -0.00050    8    diag
   10      0.115D-07      0.795D-09       -40.21327623     52.612225    0.00158   -0.00110   -0.00050    9    orth
   11      0.112D-08      0.106D-09       -40.21327623     52.612225    0.00158   -0.00110   -0.00050    0    orth

 Final occupancy:   5

 !RHF STATE  1.1 Energy               -40.213276228148
 Nuclear energy                        13.68681606
 One-electron energy                  -80.20620491
 Two-electron energy                   26.30611263
 Virial quotient                       -0.99870084
 !RHF STATE  1.1 Dipole moment          0.00158172    -0.00110105    -0.00049772
 Dipole moment /Debye                   0.00402007    -0.00279840    -0.00126499

 Orbital energies:

         1.1          2.1          3.1          4.1          5.1          6.1          7.1
    -11.197213    -0.950741    -0.551695    -0.549759    -0.547582     0.027774     0.041013


 HOMO      5.1    -0.547582 =     -14.9005eV
 LUMO      6.1     0.027774 =       0.7558eV
 LUMO-HOMO         0.575356 =      15.6562eV


 **********************************************************************************************************************************
 DATASETS  * FILE   NREC   LENGTH (MB)   RECORD NAMES
              1      18       32.04       500      610      700      900      950      970     1000      129      960     1100   
                                          VAR    BASINP    GEOM    SYMINP    ZMAT    AOBASIS   BASIS     P2S    ABASIS      S 
                                         1400     1410     1200     1210     1080     1600     1650     1700   
                                           T        V       H0       H01     AOSYM     SMH    MOLCAS    OPER   

              2       9       13.71       700     1000      520     2100     7360     7350      200     2101     2102   
                                         GEOM     BASIS   MCVARS     RHF    F12ABS    EF12    OPTIONS    RHF      RHF  

 PROGRAMS   *        TOTAL    HF-SCF       INT   CCSD(T)    HF-SCF       INT   CCSD(T)    HF-SCF       INT
 CPU TIMES  *       717.30     12.38      0.25    130.02     13.43      0.24    531.89     14.50     14.34
 REAL TIME  *       736.97 SEC
 DISK USED  *       570.60 MB (local),        7.87 GB (total)
 SF USED    *         1.36 GB
 GA USED    *         4.87 MB       (max)       0.00 MB       (current)
 **********************************************************************************************************************************

 Basis set:  JKFIT                   
 Basis size:   740
 Attributes:
 Sphericals:   T
 Basis set:  MP2FIT                  
 Basis size:   816
 Attributes:
 Sphericals:   T
 Basis set:  RI                      
 Basis size:   556
 Attributes:
 Sphericals:   T
 Basis set:  TDDFT                   
 Basis size:   816
 Attributes:
 Sphericals:   T

 PROGRAM * CCSD (Closed-shell coupled cluster)     Authors: C. Hampel, H.-J. Werner, 1991, M. Deegan, P.J. Knowles, 1992

                                  CCSD-F12 implementation by  H.-J. Werner, 2007

                   Density fitting integral evaluation by F.R. Manby, 2003,2007, G. Knizia, 2010



 Convergence thresholds:  THRVAR = 1.00D-08  THRDEN = 1.00D-10

 CCSD(T)     terms to be evaluated (factor= 1.000)


 Number of core orbitals:           1 (   1 )
 Number of closed-shell orbitals:   4 (   4 )
 Number of external orbitals:     225 ( 225 )

 Molecular orbitals read from record     2102.2  Type=RHF/CANONICAL (state 1.1)

 MP2-F12 correlation treatment (H.-J. Werner, 2006)
 ==================================================

 Using MP2-F12 with ansatz 3C(FIX)

 Using projected zeroth-order Hamiltonian (+Z)

 FOCKRIB=T FOCKRIC=T FOCKRIP=T CABSP=T CABSA=T CABSK=T CABSF=T GBC=F EBC=F DMAT=T NOFIK=T NOPAO=1 SOLVE=-1  USEPAO=0
 EXCH_A= T EXCH_B= F EXCH_C= F EXCH_P= F

 Geminal basis:    OPTFULL  GEM_TYPE=SLATER  BETA=1.0  NGEM=6

 Optimizing Gaussian exponents for each gem_beta

 Geminal optimization for beta= 1.0000
 Weight function:   m=0, omega= 1.4646

 Augmented Hessian optimization of geminal fit. Trust ratio= 0.40000
 Convergence reached after   2 iterations. Final gradient= 7.85D-16, Step= 4.26D-06, Delta= 1.28D-09

 Alpha:                 0.19532     0.81920     2.85917     9.50073    35.69989   197.79328
 Coeff:                 0.27070     0.30552     0.18297     0.10986     0.06810     0.04224


 All pairs explicitly correlated. Number of r12-pairs:           10

 Excluding core orbitals from MO domains

 AO(A)-basis ORBITAL           loaded. Number of functions:     230
 RI(R)-basis RI                loaded. Number of functions:     556
 DF-basis JKFIT                loaded. Number of functions:     740

 Screening thresholds:   THRAO=  1.00D-10  THRMO=  1.00D-09  THRPROD=  1.00D-09
                         THRSW=  1.00D-05  THROV=  1.00D-12  THRAOF12= 1.00D-10

 CPU time for Fock operators                      3.07 sec

 Construction of ABS:
 Smallest eigenvalue of S          1.11E-04  (threshold= 1.00E-08)
 Ratio eigmin/eigmax               1.57E-05  (threshold= 1.00E-09)
 Smallest eigenvalue of S kept     1.11E-04  (threshold= 1.11E-04, 0 functions deleted, 556 kept)

 Construction of CABS:
 Smallest eigenvalue of S          6.54E-07  (threshold= 1.00E-08)
 Ratio eigmin/eigmax               6.54E-07  (threshold= 1.00E-09)
 Smallest eigenvalue of S kept     6.54E-07  (threshold= 6.54E-07, 0 functions deleted, 556 kept)

 CPU time for CABS singles                        0.68 sec

 CABS-singles contribution of  -0.00090913 patched into reference energy.
 New reference energy         -40.21418536

 AO(A)-basis ORBITAL           loaded. Number of functions:     230
 RI(R)-basis RI                loaded. Number of functions:     556
 DF-basis MP2FIT               loaded. Number of functions:     816

 Screening thresholds:   THRAO=  1.00D-10  THRMO=  1.00D-09  THRPROD=  1.00D-09
                         THRSW=  1.00D-05  THROV=  1.00D-12  THRAOF12= 1.00D-10

 CPU time for 3-index integral evaluation         5.34 sec
 CPU time for first  half transformation          0.63 sec ( 2394.4 MFLOP/sec)
 CPU time for second half transformation          0.01 sec ( 1252.1 MFLOP/sec)
 CPU time for sorting                             0.05 sec
 CPU time for fitting                             0.36 sec ( 5870.6 MFLOP/sec)
 CPU time for tilde quantities                    0.39 sec ( 5419.0 MFLOP/sec)
 CPU time for assembly                            1.34 sec ( 3668.4 MFLOP/sec)
 CPU time for tranop_f12                          1.29 sec ( 3500.3 MFLOP/sec)
 CPU time for f12 integrals (total)              11.59 sec, Elapsed time:     11.94 sec
 F12-matrices built in  4 passes.
 F12-matrices built in  4 passes.
 F12-matrices built in  4 passes.
 F12-matrices built in  4 passes.
 FC-matrix built in  4 passes.
 CPU time for f12 matrices (total)                0.30 sec, Elapsed time:      0.29 sec

 Diagonal F12 approximation with fixed coefficients:  TSING= 0.500,  TTRIP= 0.250 (scaled by -1/beta)

 DF-MP2-F12 energy corrections:
 ==============================
 Approx.                                    Singlet             Triplet             Total
 DF-MP2-F12/3*C(DX,FIX)                -0.016700577251     -0.001926271858     -0.018626849108
 DF-MP2-F12/3*C(FIX)                   -0.015463004142     -0.001784472703     -0.017247476845
 DF-MP2-F12/3C(FIX)                    -0.015448319242     -0.001775754989     -0.017224074231

 DF-MP2-F12 correlation energies:
 ================================
 Approx.                                    Singlet             Triplet             Ecorr            Total Energy
 DF-MP2                                -0.145446097295     -0.055066555641     -0.200512652937    -40.414698008569
 DF-MP2-F12/3*C(DX,FIX)                -0.162146674546     -0.056992827499     -0.219139502045    -40.433324857677
 DF-MP2-F12/3*C(FIX)                   -0.160909101438     -0.056851028344     -0.217760129781    -40.431945485414
 DF-MP2-F12/3C(FIX)                    -0.160894416537     -0.056842310631     -0.217736727167    -40.431922082800

 SCS-DF-MP2 energies (F_SING= 1.20000  F_TRIP= 0.62222  F_PARALLEL= 0.33333):
 ============================================================================
 SCS-DF-MP2                            -0.208798951376    -40.422984307008
 SCS-DF-MP2-F12/3*C(DX,FIX)            -0.230038213232    -40.444223568865
 SCS-DF-MP2-F12/3*C(FIX)               -0.228464894917    -40.442650250549
 SCS-DF-MP2-F12/3C(FIX)                -0.228441848681    -40.442627204313
 Symmetry transformation completed.

 Number of N-1 electron functions:               4
 Number of N-2 electron functions:              10
 Number of singly external CSFs:               900
 Number of doubly external CSFs:            405450
 Total number of CSFs:                      406351

 Pair and operator lists are different

 Length of J-op  integral file:              81.60 MB
 Length of K-op  integral file:             128.10 MB
 Length of 3-ext integral record:             0.00 MB

 Memory could be reduced to 75.63 Mwords without degradation in triples

 Integral transformation finished. Total CPU:  12.16 sec, npass=  1  Memory used:  32.52 MW

 Reference energy:                    -40.21418536

 Adding F12 terms to K(Cij), methodcc=6,  factor= 1.0

 ITER.      SQ.NORM     CORR.ENERGY   TOTAL ENERGY   ENERGY CHANGE        DEN1      VAR(S)    VAR(P)  DIIS     TIME  TIME/IT
   1      1.06946199    -0.21558115   -40.42976651    -0.01505860    -0.00938246  0.67D-03  0.94D-03  1  1    33.35     3.92
   2      1.07448936    -0.21614994   -40.43033530    -0.00056879    -0.00524386  0.17D-04  0.83D-04  2  2    37.15     3.95
   3      1.07589714    -0.21630485   -40.43049020    -0.00015490    -0.00097948  0.20D-05  0.51D-05  3  3    41.05     3.96
   4      1.07623525    -0.21631717   -40.43050252    -0.00001232    -0.00017400  0.10D-06  0.25D-06  4  4    45.04     3.99
   5      1.07627996    -0.21631590   -40.43050125     0.00000127    -0.00000982  0.77D-08  0.17D-07  5  5    48.94     3.99
   6      1.07628583    -0.21631491   -40.43050027     0.00000098    -0.00000185  0.58D-09  0.12D-08  6  6    52.87     4.01
   7      1.07628697    -0.21631460   -40.43049995     0.00000032    -0.00000073  0.40D-10  0.10D-09  6  1    56.83     4.02
   8      1.07628700    -0.21631470   -40.43050006    -0.00000010     0.00000012  0.39D-11  0.61D-11  6  3    60.70     4.01
   9      1.07628711    -0.21631469   -40.43050004     0.00000001    -0.00000007  0.34D-12  0.50D-12  6  2    64.58     4.01
  10      1.07628711    -0.21631468   -40.43050004     0.00000000     0.00000001  0.37D-13  0.49D-13  6  4    68.55     4.01
  11      1.07628711    -0.21631468   -40.43050004     0.00000000     0.00000000  0.27D-14  0.51D-14  6  5    72.49     4.02
  12      1.07628711    -0.21631468   -40.43050004     0.00000000     0.00000000  0.56D-16  0.60D-15  6  6    76.47     4.02
  13      1.07628711    -0.21631468   -40.43050004    -0.00000000     0.00000000  0.79D-17  0.65D-16  6  1    80.39     4.02
  14      1.07628711    -0.21631468   -40.43050004    -0.00000000     0.00000000  0.15D-17  0.79D-17  6  3    84.33     4.02

 Norm of t1 vector:      0.03361665      S-energy:     0.00000000      T1 diagnostic:  0.00840416
                                                                       D1 diagnostic:  0.01339564

 Adding energy correction from Wij-K(Fij), methodcc=6  factor= 1.0

  CCSD correlation energy              -0.216314681222
  MP2-F12 correction (uncoupled)       -0.017237341436
  C*T doubles correction               -0.000192341548
  f12b correction                       0.003654098099

 Total CPU time for triples:     34.62 sec

  Ecorr(MP2)                           -0.200522554509
  Ecorr(MP2-F12)                       -0.217746628740
  Scale factor for triples energy       1.085895944589


 RESULTS
 =======

  Reference energy                    -40.213276228148
  F12 singles correction               -0.000909127485

 F12 singles corrections added to reference energy

  New reference energy                -40.214185355632

  F12a singlet correction              -0.015628260977
  F12a triplet correction              -0.001801422007
  F12a total correction                -0.017429682984

 F12a corrections for ansatz F12/3C(FIX) added to CCSD energy

  CCSD-F12a singlet pair energy        -0.178527980100
  CCSD-F12a triplet pair energy        -0.055216384132
  CCSD-F12a correlation energy         -0.233744364206

  Triples (T) contribution (scaled)    -0.006801470999
  Total correlation energy             -0.240545835205

  CCSD-F12a total energy              -40.447929719838
  CCSD[T]-F12a energy                 -40.454970346325
  CCSD-T-F12a energy                  -40.454656433657
 !CCSD(T)-F12a total energy           -40.454731190837

 F12b corrections for ansatz F12/3C(FIX) added to CCSD(T)-F12a energy

  CCSD-F12b singlet pair energy        -0.175044778484
  CCSD-F12b triplet pair energy        -0.055045487649
  CCSD-F12b correlation energy         -0.230090266107

  Triples (T) contribution (scaled)    -0.006801470999
  Total correlation energy             -0.236891737106

  CCSD-F12b total energy              -40.444275621739
  CCSD[T]-F12b energy                 -40.451316248226
  CCSD-T-F12b energy                  -40.451002335558
 !CCSD(T)-F12b total energy           -40.451077092738

 Timing summary (sec):

 STEP                 CPU(USER)    SYS     CPU(TOT)    WALL
 Transformation         12.22      0.46     12.68     12.70
 CCSD iterations        54.86      1.39     56.25     56.33
 Triples                34.62      0.15     34.77     34.82
 MP2-F12                17.26      0.41     17.67     17.68
 F12b energy             3.36      0.07      3.43      3.43

 Program statistics:

 Available memory in ccsd:              1999999866
 Min. memory needed in ccsd:               1862772
 Max. memory used in ccsd:                 2158322
 Max. memory used in cckext:               1445635 (15 integral passes)



 **********************************************************************************************************************************
 DATASETS  * FILE   NREC   LENGTH (MB)   RECORD NAMES
              1      19      222.31       500      610      700      900      950      970     1000      129      960     1100   
                                          VAR    BASINP    GEOM    SYMINP    ZMAT    AOBASIS   BASIS     P2S    ABASIS      S 
                                         1400     1410     1200     1210     1080     1600     1650     1700     1380   
                                           T        V       H0       H01     AOSYM     SMH    MOLCAS    OPER     JKOP   

              2       9       13.71       700     1000      520     2100     7360     7350      200     2101     2102   
                                         GEOM     BASIS   MCVARS     RHF    F12ABS    EF12    OPTIONS    RHF      RHF  

 PROGRAMS   *        TOTAL   CCSD(T)    HF-SCF       INT   CCSD(T)    HF-SCF       INT   CCSD(T)    HF-SCF       INT
 CPU TIMES  *       839.86    122.55     12.38      0.25    130.02     13.43      0.24    531.89     14.50     14.34
 REAL TIME  *       862.73 SEC
 DISK USED  *       570.60 MB (local),        7.87 GB (total)
 SF USED    *         1.36 GB
 GA USED    *         4.87 MB       (max)       0.00 MB       (current)
 **********************************************************************************************************************************
 Molecular orbitals read from record     2102.2  Type=RHF/CANONICAL (state 1.1)
 Occupation numbers read from record     2102.2  Type=RHF/RHF (state 1.1)
 Orbital energies read from record       2102.2  Type=RHF/CANONICAL (state 1.1)
 Redundancy group numbers read from rec  2102.2  Type=RHF/RHF (state 1.1)

 CCSD(T)-F12/aug-cc-pVTZ energy=    -40.451077092738

     CCSD(T)-F12          HF-SCF     CCSD(T)-F12          HF-SCF     CCSD(T)-F12          HF-SCF
    -40.45107709    -40.21327623    -76.36265170    -76.05838359   -116.81415168   -116.27124741
 **********************************************************************************************************************************
 Molpro calculation terminated
