
 Primary working directories    : /scratch/klimes/383160/molpro.OMiosNQ06k
 Secondary working directories  : /scratch/klimes/383160/molpro.OMiosNQ06k
 Wavefunction directory         : /scratch/klimes/383160/
 Main file repository           : /scratch/klimes/383160/molpro.OMiosNQ06k/

 id        : karlovklimes

 Nodes                      nprocs
 nc-05.cc.karlov.mff.cuni.cz    4

 Using customized tuning parameters: mindgm=1; mindgv=20; mindgc=4; mindgr=1; noblas=0; minvec=7
 default implementation of scratch files=sf  


 Variables initialized (930), CPU time= 0.01 sec
                                                                                 !gdirect
 memory,2000,m
 gthresh,orbital=1d-10,energy=1d-10,grid=1d-8
 
 symmetry,nosym
 angstrom
 geometry={
 O12        -3.033300000000      5.280000000000      1.506600000000
 H23        -3.438200000000      5.030900000000      0.655500000000
 H24        -2.124100000000      4.895600000000      1.489400000000
 C1        -3.277200000000      1.482500000000      1.271900000000
 H41        -2.464000000000      0.899600000000      1.651000000000
 H42        -3.160800000000      2.501000000000      1.578500000000
 H43        -4.201800000000      1.099200000000      1.650100000000
 H44        -3.268500000000      1.421000000000      0.203700000000
 }
 
 nkerna=1
 nkernb=1
 
 gf=0
 sing=1
 thrdum=1d-4
 gridthr=1d-8
 
 basis={
 set,orbital
 default,avtz
 set,jkfit
 default,avqz/jkfit
 set,mp2fit
 default,avqz/mp2fit
 set,ri
 default,avqz/optri
 set,tddft
 default,avqz/mp2fit
 }
 
 proc set_monomer1
 dummy,4,5,6,7,8
 endproc
 
 proc set_monomer2
 dummy,1,2,3
 endproc
 
                                                                                 !12 energy
 {hf,accu=1.d-16}
 {ccsd(t)-f12,df_basis=mp2fit,df_basis_exch=jkfit,ri_basis=ri,scale_trip=1,THRAOF12=1d-10}
 
 set_monomer1
 {hf,accu=1.d-16}
 {ccsd(t)-f12,df_basis=mp2fit,df_basis_exch=jkfit,ri_basis=ri,scale_trip=1,THRAOF12=1d-10}
 
 set_monomer2
 {hf,accu=1.d-16}
 {ccsd(t)-f12,df_basis=mp2fit,df_basis_exch=jkfit,ri_basis=ri,scale_trip=1,THRAOF12=1d-10}
 
 Commands  initialized (760), CPU time= 0.01 sec, 617 directives.
 Default parameters read. Elapsed time= 0.22 sec

 Checking input...
 Passed
1


                                         ***  PROGRAM SYSTEM MOLPRO  ***
                                       Copyright, TTI GmbH Stuttgart, 2015
                                    Version 2019.1 linked Jan 14 2019 13:09:19


 **********************************************************************************************************************************
 LABEL *                                                                                 
  64 bit mpp version                                                                     DATE: 11-Mar-20          TIME: 16:18:28  
 **********************************************************************************************************************************

 SHA1:             d688ac825633d238f2093ded1675ba87ccd55965
 **********************************************************************************************************************************

 THRESHOLDS:

 ZERO    =  1.00D-12  ONEINT  =  1.00D-12  TWOINT  =  1.00D-11  PREFAC  =  1.00D-14  XXXXXX  =  1.00D-09  EORDER  =  1.00D-04
 ENERGY  =  1.00D-10  ETEST   =  0.00D+00  EDENS   =  0.00D+00  THRDEDEF=  1.00D-06  GRADIENT=  1.00D-02  STEP    =  1.00D-03
 ORBITAL =  1.00D-10  CIVEC   =  1.00D-05  COEFF   =  1.00D-04  PRINTCI =  5.00D-02  PUNCHCI =  9.90D+01  OPTGRAD =  3.00D-04
 OPTENERG=  1.00D-06  OPTSTEP =  3.00D-04  THRGRAD =  1.00D-10  COMPRESS=  1.00D-11  VARMIN  =  1.00D-07  VARMAX  =  1.00D-03
 THRDOUB =  0.00D+00  THRDIV  =  1.00D-05  THRRED  =  1.00D-07  THRPSP  =  1.00D+00  THRDC   =  1.00D-10  THRCS   =  1.00D-10
 THRNRM  =  1.00D-08  THREQ   =  0.00D+00  THRDE   =  1.00D+00  THRREF  =  1.00D-05  SPARFAC =  1.00D+00  THRDLP  =  1.00D-07
 THRDIA  =  1.00D-10  THRDLS  =  1.00D-07  THRGPS  =  0.00D+00  THRKEX  =  0.00D+00  THRDIS  =  2.00D-01  THRVAR  =  1.00D-10
 THRLOC  =  1.00D-06  THRGAP  =  1.00D-06  THRLOCT = -1.00D+00  THRGAPT = -1.00D+00  THRORB  =  1.00D-06  THRMLTP =  0.00D+00
 THRCPQCI=  1.00D-10  KEXTA   =  0.00D+00  THRCOARS=  0.00D+00  SYMTOL  =  1.00D-06  GRADTOL =  1.00D-06  THROVL  =  1.00D-08
 THRORTH =  1.00D-08  GRID    =  1.00D-08  GRIDMAX =  1.00D-03  DTMAX   =  0.00D+00  THROCCDE=  1.00D-01  THROCCDE=  1.00D-01
 THRPRINT=  2.50D-01


 Variable memory set to 2000000000 words,  buffer space 

 ZSYMEL=NOSYM
 ZUNIT=ANG


Geometry recognized as XYZ

 SETTING NKERNA         =         1.00000000                                  
 SETTING NKERNB         =         1.00000000                                  
 SETTING GF             =     0.00000000D+00                                  
 SETTING SING           =         1.00000000                                  
 SETTING THRDUM         =     1.00000000D-04                                  
 SETTING GRIDTHR        =     1.00000000D-08                                  
 SETTING BASIS          =    AVTZ


 Recomputing integrals since basis changed


 Using spherical harmonics

 Library entry O      S aug-cc-pVTZ          selected for orbital group  1
 Library entry O      P aug-cc-pVTZ          selected for orbital group  1
 Library entry O      D aug-cc-pVTZ          selected for orbital group  1
 Library entry O      F aug-cc-pVTZ          selected for orbital group  1
 Library entry H      S aug-cc-pVTZ          selected for orbital group  2
 Library entry H      P aug-cc-pVTZ          selected for orbital group  2
 Library entry H      D aug-cc-pVTZ          selected for orbital group  2
 Library entry C      S aug-cc-pVTZ          selected for orbital group  3
 Library entry C      P aug-cc-pVTZ          selected for orbital group  3
 Library entry C      D aug-cc-pVTZ          selected for orbital group  3
 Library entry C      F aug-cc-pVTZ          selected for orbital group  3


 PROGRAM * SEWARD (Integral evaluation for generally contracted gaussian basis sets)     Author: Roland Lindh, 1990

 Geometry written to block  1 of record 700


 Point group  C1  



 ATOMIC COORDINATES

 NR  ATOM    CHARGE       X              Y              Z

   1  O12     8.00   -5.732106254    9.977753938    2.847061379
   2  H23     1.00   -6.497256361    9.507023160    1.238715475
   3  H24     1.00   -4.013967261    9.251343215    2.814558090
   4  C1      6.00   -6.193010455    2.801518980    2.403542658
   5  H41     1.00   -4.656285171    1.699997622    3.119937832
   6  H42     1.00   -5.973046335    4.726205038    2.982932688
   7  H43     1.00   -7.940251230    2.077186956    3.118237078
   8  H44     1.00   -6.176569838    2.685300823    0.384937212

 Bond lengths in Bohr (Angstrom)

 1-2  1.842231989  1-3  1.865671621  4-5  2.021904040  4-6  2.022002335  4-7  2.021953343
     ( 0.974867186)     ( 0.987270905)     ( 1.069945541)     ( 1.069997556)     ( 1.069971630)

 4-8  2.022015060
     ( 1.070004290)

 Bond angles

  2-1-3  105.53314040   5-4-6  109.53398059   5-4-7  109.65604535   5-4-8  108.43490854

  6-4-7  109.49436728   6-4-8  109.86987750   7-4-8  109.83468330

 NUCLEAR CHARGE:                   20
 NUMBER OF PRIMITIVE AOS:         296
 NUMBER OF SYMMETRY AOS:          266
 NUMBER OF CONTRACTIONS:          230   (  230A   )
 NUMBER OF CORE ORBITALS:           2   (    2A   )
 NUMBER OF VALENCE ORBITALS:       14   (   14A   )


 NUCLEAR REPULSION ENERGY   36.75387538


 Basis set:  JKFIT                   
 Basis size:   740
 Attributes:
 Sphericals:   T
 Basis set:  MP2FIT                  
 Basis size:   816
 Attributes:
 Sphericals:   T
 Basis set:  RI                      
 Basis size:   556
 Attributes:
 Sphericals:   T
 Basis set:  TDDFT                   
 Basis size:   816
 Attributes:
 Sphericals:   T

 **********************************************************************************************************************************


 Eigenvalues of metric

         1 0.460E-04 0.760E-04 0.100E-03 0.103E-03 0.331E-03 0.387E-03 0.511E-03 0.667E-03


 Contracted 2-electron integrals neglected if value below      1.0D-14
 AO integral compression algorithm  1   Integral accuracy      1.0D-14

     2174.747 MB (compressed) written to integral file ( 67.8%)

     Node minimum: 501.481 MB, node maximum: 576.717 MB


 NUMBER OF SORTED TWO-ELECTRON INTEGRALS:   88219044.     BUFFER LENGTH:  32768
 NUMBER OF SEGMENTS:   6  SEGMENT LENGTH:   15998348      RECORD LENGTH: 524288

 Memory used in sort:      16.56 MW

 SORT1 READ   400769927. AND WROTE    82172604. INTEGRALS IN    236 RECORDS. CPU TIME:     7.46 SEC, REAL TIME:     8.46 SEC
 SORT2 READ   328722426. AND WROTE   352862895. INTEGRALS IN   7652 RECORDS. CPU TIME:     1.86 SEC, REAL TIME:     2.85 SEC

 Node minimum:    88205762.  Node maximum:    88225686. integrals

 OPERATOR DM      FOR CENTER  0  COORDINATES:    0.000000    0.000000    0.000000


 **********************************************************************************************************************************
 DATASETS  * FILE   NREC   LENGTH (MB)   RECORD NAMES
              1      18       32.04       500      610      700      900      950      970     1000      129      960     1100   
                                          VAR    BASINP    GEOM    SYMINP    ZMAT    AOBASIS   BASIS     P2S    ABASIS      S 
                                         1400     1410     1200     1210     1080     1600     1650     1700   
                                           T        V       H0       H01     AOSYM     SMH    MOLCAS    OPER   

 PROGRAMS   *        TOTAL       INT
 CPU TIMES  *        14.27     14.07
 REAL TIME  *        19.75 SEC
 DISK USED  *        32.49 MB (local),        6.19 GB (total)
 GA USED    *         0.00 MB       (max)       0.00 MB       (current)
 **********************************************************************************************************************************


 PROGRAM * RHF-SCF (CLOSED SHELL)       Authors: W. Meyer, H.-J. Werner


 NUMBER OF ELECTRONS:      10+   10-    SPACE SYMMETRY=1    SPIN SYMMETRY: Singlet 
 CONVERGENCE THRESHOLDS:    1.00E-08 (Density)    1.00E-11 (Energy)
 MAX. NUMBER OF ITERATIONS:       60
 INTERPOLATION TYPE:            DIIS
 INTERPOLATION STEPS:              2 (START)      1 (STEP)
 LEVEL SHIFTS:                  0.00 (CLOSED)  0.00 (OPEN) 



 Orbital guess generated from atomic densities. Full valence occupancy:   16

 Molecular orbital dump at record        2100.2

 Initial occupancy:  10

 ITERATION    DDIFF          GRAD             ENERGY        2-EL.EN.            DIPOLE MOMENTS         DIIS   ORB.
    1      0.000D+00      0.000D+00      -116.21330098    158.834731    0.49587   -0.60676   -0.83969    0    start
    2      0.000D+00      0.520D-02      -116.25683497    154.091989    0.26099   -0.35576   -0.45977    1    diag
    3      0.548D-02      0.304D-02      -116.26999473    156.079788    0.32031   -0.41688   -0.55563    2    diag
    4      0.182D-02      0.456D-03      -116.27064762    155.967068    0.31554   -0.40950   -0.54783    3    diag
    5      0.406D-03      0.134D-03      -116.27071568    155.961804    0.31488   -0.40953   -0.54712    4    diag
    6      0.147D-03      0.330D-04      -116.27071968    155.967642    0.31445   -0.40928   -0.54642    5    diag
    7      0.407D-04      0.666D-05      -116.27071993    155.966061    0.31442   -0.40934   -0.54641    6    diag
    8      0.113D-04      0.173D-05      -116.27071995    155.966221    0.31437   -0.40935   -0.54635    7    diag
    9      0.265D-05      0.376D-06      -116.27071995    155.966192    0.31435   -0.40935   -0.54633    8    diag
   10      0.813D-06      0.471D-07      -116.27071995    155.966194    0.31435   -0.40935   -0.54633    9    orth
   11      0.672D-07      0.135D-07      -116.27071995    155.966195    0.31435   -0.40935   -0.54633    9    diag
   12      0.263D-07      0.375D-08      -116.27071995    155.966195    0.31435   -0.40935   -0.54633    9    diag
   13      0.526D-08      0.968D-09      -116.27071995    155.966195    0.31435   -0.40935   -0.54633    0    orth

 Final occupancy:  10

 !RHF STATE  1.1 Energy              -116.270719950922
 Nuclear energy                        36.75387538
 One-electron energy                 -231.00769292
 Two-electron energy                   77.98309760
 Virial quotient                       -1.00113281
 !RHF STATE  1.1 Dipole moment          0.31435271    -0.40935024    -0.54633285
 Dipole moment /Debye                   0.79895257    -1.04039639    -1.38854864

 Orbital energies:

         1.1          2.1          3.1          4.1          5.1          6.1          7.1          8.1          9.1         10.1
    -20.571178   -11.199614    -1.341842    -0.953882    -0.707574    -0.580120    -0.555151    -0.553333    -0.551023    -0.507031

        11.1         12.1
      0.025095     0.041602


 HOMO     10.1    -0.507031 =     -13.7970eV
 LUMO     11.1     0.025095 =       0.6829eV
 LUMO-HOMO         0.532127 =      14.4799eV


 **********************************************************************************************************************************
 DATASETS  * FILE   NREC   LENGTH (MB)   RECORD NAMES
              1      18       32.04       500      610      700      900      950      970     1000      129      960     1100   
                                          VAR    BASINP    GEOM    SYMINP    ZMAT    AOBASIS   BASIS     P2S    ABASIS      S 
                                         1400     1410     1200     1210     1080     1600     1650     1700   
                                           T        V       H0       H01     AOSYM     SMH    MOLCAS    OPER   

              2       4        3.96       700     1000      520     2100   
                                         GEOM     BASIS   MCVARS     RHF  

 PROGRAMS   *        TOTAL    HF-SCF       INT
 CPU TIMES  *        29.51     15.24     14.07
 REAL TIME  *        37.37 SEC
 DISK USED  *        39.90 MB (local),        6.22 GB (total)
 SF USED    *         0.21 MB
 GA USED    *         0.00 MB       (max)       0.00 MB       (current)
 **********************************************************************************************************************************

 Basis set:  JKFIT                   
 Basis size:   740
 Attributes:
 Sphericals:   T
 Basis set:  MP2FIT                  
 Basis size:   816
 Attributes:
 Sphericals:   T
 Basis set:  RI                      
 Basis size:   556
 Attributes:
 Sphericals:   T
 Basis set:  TDDFT                   
 Basis size:   816
 Attributes:
 Sphericals:   T

 PROGRAM * CCSD (Closed-shell coupled cluster)     Authors: C. Hampel, H.-J. Werner, 1991, M. Deegan, P.J. Knowles, 1992

                                  CCSD-F12 implementation by  H.-J. Werner, 2007

                   Density fitting integral evaluation by F.R. Manby, 2003,2007, G. Knizia, 2010



 Convergence thresholds:  THRVAR = 1.00D-08  THRDEN = 1.00D-10

 CCSD(T)     terms to be evaluated (factor= 1.000)


 Number of core orbitals:           2 (   2 )
 Number of closed-shell orbitals:   8 (   8 )
 Number of external orbitals:     220 ( 220 )

 Molecular orbitals read from record     2100.2  Type=RHF/CANONICAL (state 1.1)

 MP2-F12 correlation treatment (H.-J. Werner, 2006)
 ==================================================

 Using MP2-F12 with ansatz 3C(FIX)

 Using projected zeroth-order Hamiltonian (+Z)

 FOCKRIB=T FOCKRIC=T FOCKRIP=T CABSP=T CABSA=T CABSK=T CABSF=T GBC=F EBC=F DMAT=T NOFIK=T NOPAO=1 SOLVE=-1  USEPAO=0
 EXCH_A= T EXCH_B= F EXCH_C= F EXCH_P= F

 Geminal basis:    OPTFULL  GEM_TYPE=SLATER  BETA=1.0  NGEM=6

 Optimizing Gaussian exponents for each gem_beta

 Geminal optimization for beta= 1.0000
 Weight function:   m=0, omega= 1.4646

 Augmented Hessian optimization of geminal fit. Trust ratio= 0.40000
 Convergence reached after   2 iterations. Final gradient= 7.85D-16, Step= 4.26D-06, Delta= 1.28D-09

 Alpha:                 0.19532     0.81920     2.85917     9.50073    35.69989   197.79328
 Coeff:                 0.27070     0.30552     0.18297     0.10986     0.06810     0.04224


 All pairs explicitly correlated. Number of r12-pairs:           36

 Excluding core orbitals from MO domains

 AO(A)-basis ORBITAL           loaded. Number of functions:     230
 RI(R)-basis RI                loaded. Number of functions:     556
 DF-basis JKFIT                loaded. Number of functions:     740

 Screening thresholds:   THRAO=  1.00D-10  THRMO=  1.00D-09  THRPROD=  1.00D-09
                         THRSW=  1.00D-05  THROV=  1.00D-12  THRAOF12= 1.00D-10

 CPU time for Fock operators                      3.70 sec

 Construction of ABS:
 Smallest eigenvalue of S          1.12E-04  (threshold= 1.00E-08)
 Ratio eigmin/eigmax               1.59E-05  (threshold= 1.00E-09)
 Smallest eigenvalue of S kept     1.12E-04  (threshold= 1.12E-04, 0 functions deleted, 556 kept)

 Construction of CABS:
 Smallest eigenvalue of S          5.36E-07  (threshold= 1.00E-08)
 Ratio eigmin/eigmax               5.36E-07  (threshold= 1.00E-09)
 Smallest eigenvalue of S kept     5.36E-07  (threshold= 5.36E-07, 0 functions deleted, 556 kept)

 CPU time for CABS singles                        0.68 sec

 CABS-singles contribution of  -0.00234914 patched into reference energy.
 New reference energy        -116.27306909

 AO(A)-basis ORBITAL           loaded. Number of functions:     230
 RI(R)-basis RI                loaded. Number of functions:     556
 DF-basis MP2FIT               loaded. Number of functions:     816

 Screening thresholds:   THRAO=  1.00D-10  THRMO=  1.00D-09  THRPROD=  1.00D-09
                         THRSW=  1.00D-05  THROV=  1.00D-12  THRAOF12= 1.00D-10

 CPU time for 3-index integral evaluation         5.44 sec
 CPU time for first  half transformation          0.98 sec ( 2873.4 MFLOP/sec)
 CPU time for second half transformation          0.01 sec ( 5185.1 MFLOP/sec)
 CPU time for sorting                             0.09 sec
 CPU time for fitting                             0.53 sec ( 4100.7 MFLOP/sec)
 CPU time for tilde quantities                    0.63 sec ( 4379.9 MFLOP/sec)
 CPU time for assembly                            4.60 sec ( 4305.7 MFLOP/sec)
 CPU time for tranop_f12                          4.43 sec ( 4309.2 MFLOP/sec)
 CPU time for f12 integrals (total)              23.65 sec, Elapsed time:     24.63 sec
 F12-matrices built in  4 passes.
 F12-matrices built in  4 passes.
 F12-matrices built in  4 passes.
 F12-matrices built in  4 passes.
 FC-matrix built in  4 passes.
 CPU time for f12 matrices (total)                1.20 sec, Elapsed time:      1.25 sec

 Diagonal F12 approximation with fixed coefficients:  TSING= 0.500,  TTRIP= 0.250 (scaled by -1/beta)

 DF-MP2-F12 energy corrections:
 ==============================
 Approx.                                    Singlet             Triplet             Total
 DF-MP2-F12/3*C(DX,FIX)                -0.046159015266     -0.006796605581     -0.052955620846
 DF-MP2-F12/3*C(FIX)                   -0.039856211731     -0.005606754474     -0.045462966204
 DF-MP2-F12/3C(FIX)                    -0.039977087387     -0.005574408992     -0.045551496379

 DF-MP2-F12 correlation energies:
 ================================
 Approx.                                    Singlet             Triplet             Ecorr            Total Energy
 DF-MP2                                -0.317655415877     -0.154181749334     -0.471837165212   -116.744906258051
 DF-MP2-F12/3*C(DX,FIX)                -0.363814431143     -0.160978354915     -0.524792786058   -116.797861878897
 DF-MP2-F12/3*C(FIX)                   -0.357511627608     -0.159788503808     -0.517300131416   -116.790369224255
 DF-MP2-F12/3C(FIX)                    -0.357632503264     -0.159756158327     -0.517388661591   -116.790457754430

 SCS-DF-MP2 energies (F_SING= 1.20000  F_TRIP= 0.62222  F_PARALLEL= 0.33333):
 ============================================================================
 SCS-DF-MP2                            -0.477121809750   -116.750190902589
 SCS-DF-MP2-F12/3*C(DX,FIX)            -0.536741627096   -116.809810719936
 SCS-DF-MP2-F12/3*C(FIX)               -0.528437911054   -116.801507003893
 SCS-DF-MP2-F12/3C(FIX)                -0.528562835764   -116.801631928604
 Symmetry transformation completed.

 Number of N-1 electron functions:               8
 Number of N-2 electron functions:              36
 Number of singly external CSFs:              1760
 Number of doubly external CSFs:           1549680
 Total number of CSFs:                     1551441

 Pair and operator lists are different

 Length of J-op  integral file:             315.61 MB
 Length of K-op  integral file:             368.50 MB
 Length of 3-ext integral record:             0.00 MB

 Memory could be reduced to 116.32 Mwords without degradation in triples

 Integral transformation finished. Total CPU:  25.51 sec, npass=  1  Memory used:  59.34 MW

 Reference energy:                   -116.27306909

 Adding F12 terms to K(Cij), methodcc=6,  factor= 1.0

 ITER.      SQ.NORM     CORR.ENERGY   TOTAL ENERGY   ENERGY CHANGE        DEN1      VAR(S)    VAR(P)  DIIS     TIME  TIME/IT
   1      1.13228685    -0.48645722  -116.75952631    -0.01460298    -0.00294543  0.15D-02  0.20D-02  1  1    71.57    14.94
   2      1.14056651    -0.48672719  -116.75979628    -0.00026997    -0.00973730  0.28D-04  0.23D-03  2  2    86.57    15.10
   3      1.14345041    -0.48698587  -116.76005497    -0.00025868    -0.00196179  0.13D-04  0.12D-04  3  3   101.40    15.12
   4      1.14432769    -0.48704040  -116.76010949    -0.00005453    -0.00048243  0.54D-06  0.11D-05  4  4   116.32    15.14
   5      1.14447683    -0.48703521  -116.76010430     0.00000519    -0.00004074  0.22D-06  0.78D-07  5  5   131.30    15.16
   6      1.14451915    -0.48703207  -116.76010116     0.00000314    -0.00000647  0.20D-07  0.62D-08  6  6   146.20    15.17
   7      1.14452932    -0.48703133  -116.76010042     0.00000075    -0.00000266  0.19D-08  0.10D-08  6  2   161.17    15.18
   8      1.14453167    -0.48703118  -116.76010027     0.00000015    -0.00000036  0.38D-09  0.11D-09  6  1   176.10    15.19
   9      1.14453252    -0.48703126  -116.76010035    -0.00000009     0.00000001  0.35D-10  0.17D-10  6  3   191.04    15.20
  10      1.14453271    -0.48703125  -116.76010034     0.00000001     0.00000003  0.41D-11  0.24D-11  6  4   205.88    15.20
  11      1.14453265    -0.48703126  -116.76010035    -0.00000001     0.00000008  0.76D-12  0.32D-12  6  5   220.87    15.21
  12      1.14453263    -0.48703126  -116.76010035    -0.00000000     0.00000002  0.14D-12  0.43D-13  6  6   235.84    15.21
  13      1.14453261    -0.48703126  -116.76010035     0.00000000     0.00000001  0.21D-13  0.68D-14  6  2   250.79    15.21
  14      1.14453260    -0.48703126  -116.76010035    -0.00000000     0.00000000  0.28D-14  0.13D-14  6  1   265.70    15.22
  15      1.14453260    -0.48703126  -116.76010035    -0.00000000    -0.00000000  0.29D-15  0.15D-15  6  3   280.57    15.21
  16      1.14453260    -0.48703126  -116.76010035     0.00000000    -0.00000000  0.46D-16  0.22D-16  6  4   295.36    15.21
  17      1.14453260    -0.48703126  -116.76010035     0.00000000    -0.00000000  0.95D-17  0.38D-17  6  5   310.24    15.21

 Norm of t1 vector:      0.05087818      S-energy:     0.00000000      T1 diagnostic:  0.00899408
                                                                       D1 diagnostic:  0.01952848

 Adding energy correction from Wij-K(Fij), methodcc=6  factor= 1.0

  CCSD correlation energy              -0.487031260542
  MP2-F12 correction (uncoupled)       -0.045289408794
  C*T doubles correction               -0.000606793581
  f12b correction                       0.008420012286


 Total CPU time for triples:    228.45 sec

  Ecorr(MP2)                           -0.471854240731
  Ecorr(MP2-F12)                       -0.517405737110
  Scale factor for triples energy       1.096537219436


 RESULTS
 =======

  Reference energy                   -116.270719950919
  F12 singles correction               -0.002349141921

 F12 singles corrections added to reference energy

  New reference energy               -116.273069092839

  F12a singlet correction              -0.040228259003
  F12a triplet correction              -0.005667943373
  F12a total correction                -0.045896202375

 F12a corrections for ansatz F12/3C(FIX) added to CCSD energy

  CCSD-F12a singlet pair energy        -0.386230371192
  CCSD-F12a triplet pair energy        -0.146697091869
  CCSD-F12a correlation energy         -0.532927462917

  Triples (T) contribution (scaled)    -0.016578150783
  Total correlation energy             -0.549505613700

  CCSD-F12a total energy             -116.805996555756
  CCSD[T]-F12a energy                -116.823170369022
  CCSD-T-F12a energy                 -116.822352844095
 !CCSD(T)-F12a total energy          -116.822574706539

 F12b corrections for ansatz F12/3C(FIX) added to CCSD(T)-F12a energy

  CCSD-F12b singlet pair energy        -0.378342238813
  CCSD-F12b triplet pair energy        -0.146165211962
  CCSD-F12b correlation energy         -0.524507450631

  Triples (T) contribution (scaled)    -0.016578150783
  Total correlation energy             -0.541085601414

  CCSD-F12b total energy             -116.797576543470
  CCSD[T]-F12b energy                -116.814750356736
  CCSD-T-F12b energy                 -116.813932831809
 !CCSD(T)-F12b total energy          -116.814154694253

 Timing summary (sec):

 STEP                 CPU(USER)    SYS     CPU(TOT)    WALL
 Transformation         25.68      0.98     26.66     26.71
 CCSD iterations       253.41      4.66    258.07    258.69
 Triples               228.45      1.01    229.46    229.92
 MP2-F12                31.17      1.19     32.36     32.45
 F12b energy            11.81      0.13     11.94     11.96

 Program statistics:

 Available memory in ccsd:              1999999554
 Min. memory needed in ccsd:               4597329
 Max. memory used in ccsd:                 5918289
 Max. memory used in cckext:               4231061 (18 integral passes)



 **********************************************************************************************************************************
 DATASETS  * FILE   NREC   LENGTH (MB)   RECORD NAMES
              1      19      398.06       500      610      700      900      950      970     1000      129      960     1100   
                                          VAR    BASINP    GEOM    SYMINP    ZMAT    AOBASIS   BASIS     P2S    ABASIS      S 
                                         1400     1410     1200     1210     1080     1600     1650     1700     1380   
                                           T        V       H0       H01     AOSYM     SMH    MOLCAS    OPER     JKOP   

              2       6        5.03       700     1000      520     2100     7360     7350   
                                         GEOM     BASIS   MCVARS     RHF    F12ABS    EF12   

 PROGRAMS   *        TOTAL   CCSD(T)    HF-SCF       INT
 CPU TIMES  *       580.26    550.74     15.24     14.07
 REAL TIME  *       597.97 SEC
 DISK USED  *       570.60 MB (local),        7.84 GB (total)
 SF USED    *         1.35 GB
 GA USED    *         4.87 MB       (max)       0.00 MB       (current)
 **********************************************************************************************************************************

 Running procedure: SET_MONOMER1

 Dummy atoms: C1  H41  H42  H43  H44


 Recomputing one-electron integrals since nuclear charges changed


 PROGRAM * SEWARD (Integral evaluation for generally contracted gaussian basis sets)     Author: Roland Lindh, 1990

 Geometry written to block  1 of record 700


 Point group  C1  



 ATOMIC COORDINATES

 NR  ATOM    CHARGE       X              Y              Z

   1  O12     8.00   -5.732106254    9.977753938    2.847061379
   2  H23     1.00   -6.497256361    9.507023160    1.238715475
   3  H24     1.00   -4.013967261    9.251343215    2.814558090
   4  C1      0.00   -6.193010455    2.801518980    2.403542658
   5  H41     0.00   -4.656285171    1.699997622    3.119937832
   6  H42     0.00   -5.973046335    4.726205038    2.982932688
   7  H43     0.00   -7.940251230    2.077186956    3.118237078
   8  H44     0.00   -6.176569838    2.685300823    0.384937212

 Bond lengths in Bohr (Angstrom)

 1-2  1.842231989  1-3  1.865671621  4-5  2.021904040  4-6  2.022002335  4-7  2.021953343
     ( 0.974867186)     ( 0.987270905)     ( 1.069945541)     ( 1.069997556)     ( 1.069971630)

 4-8  2.022015060
     ( 1.070004290)

 Bond angles

  2-1-3  105.53314040   5-4-6  109.53398059   5-4-7  109.65604535   5-4-8  108.43490854

  6-4-7  109.49436728   6-4-8  109.86987750   7-4-8  109.83468330

 NUCLEAR CHARGE:                   10
 NUMBER OF PRIMITIVE AOS:         296
 NUMBER OF SYMMETRY AOS:          266
 NUMBER OF CONTRACTIONS:          230   (  230A   )
 NUMBER OF CORE ORBITALS:           1   (    1A   )
 NUMBER OF VALENCE ORBITALS:        6   (    6A   )

 MOLECULE CHANGED: INITIALIZING OCCUPATION AND DUMP RECORDS


 NUCLEAR REPULSION ENERGY    8.96929098

 Basis set:  JKFIT                   
 Basis size:   740
 Attributes:
 Sphericals:   T
 Basis set:  MP2FIT                  
 Basis size:   816
 Attributes:
 Sphericals:   T
 Basis set:  RI                      
 Basis size:   556
 Attributes:
 Sphericals:   T
 Basis set:  TDDFT                   
 Basis size:   816
 Attributes:
 Sphericals:   T

 Eigenvalues of metric

         1 0.460E-04 0.760E-04 0.100E-03 0.103E-03 0.331E-03 0.387E-03 0.511E-03 0.667E-03


 Contracted 2-electron integrals neglected if value below      1.0D-14

 OPERATOR DM      FOR CENTER  0  COORDINATES:    0.000000    0.000000    0.000000


 **********************************************************************************************************************************
 DATASETS  * FILE   NREC   LENGTH (MB)   RECORD NAMES
              1      18       32.04       500      610      700      900      950      970     1000      129      960     1100   
                                          VAR    BASINP    GEOM    SYMINP    ZMAT    AOBASIS   BASIS     P2S    ABASIS      S 
                                         1400     1410     1200     1210     1080     1600     1650     1700   
                                           T        V       H0       H01     AOSYM     SMH    MOLCAS    OPER   

              2       7        5.05       700     1000      520     2100     7360     7350      200   
                                         GEOM     BASIS   MCVARS     RHF    F12ABS    EF12    OPTIONS    

 PROGRAMS   *        TOTAL       INT   CCSD(T)    HF-SCF       INT
 CPU TIMES  *       580.51      0.25    550.74     15.24     14.07
 REAL TIME  *       598.76 SEC
 DISK USED  *       570.60 MB (local),        7.84 GB (total)
 SF USED    *         1.35 GB
 GA USED    *         4.87 MB       (max)       0.00 MB       (current)
 **********************************************************************************************************************************


 PROGRAM * RHF-SCF (CLOSED SHELL)       Authors: W. Meyer, H.-J. Werner


 NUMBER OF ELECTRONS:       5+    5-    SPACE SYMMETRY=1    SPIN SYMMETRY: Singlet 
 CONVERGENCE THRESHOLDS:    1.00E-08 (Density)    1.00E-11 (Energy)
 MAX. NUMBER OF ITERATIONS:       60
 INTERPOLATION TYPE:            DIIS
 INTERPOLATION STEPS:              2 (START)      1 (STEP)
 LEVEL SHIFTS:                  0.00 (CLOSED)  0.00 (OPEN) 



 Orbital guess generated from atomic densities. Full valence occupancy:    7

 Molecular orbital dump at record        2101.2

 Initial occupancy:   5

 ITERATION    DDIFF          GRAD             ENERGY        2-EL.EN.            DIPOLE MOMENTS         DIIS   ORB.
    1      0.000D+00      0.000D+00       -76.01970486     77.339336    0.49241   -0.61458   -0.83951    0    start
    2      0.000D+00      0.640D-02       -76.04631169     73.699366    0.28262   -0.35643   -0.48933    1    diag
    3      0.445D-02      0.409D-02       -76.05775698     75.310584    0.33391   -0.42033   -0.57653    2    diag
    4      0.162D-02      0.377D-03       -76.05794968     75.221107    0.33123   -0.41773   -0.57346    3    diag
    5      0.205D-03      0.105D-03       -76.05797013     75.235316    0.33019   -0.41673   -0.57230    4    diag
    6      0.649D-04      0.207D-04       -76.05797142     75.234412    0.32995   -0.41653   -0.57209    5    diag
    7      0.168D-04      0.410D-05       -76.05797148     75.234541    0.32987   -0.41645   -0.57201    6    diag
    8      0.441D-05      0.755D-06       -76.05797148     75.234526    0.32985   -0.41643   -0.57198    7    diag
    9      0.751D-06      0.977D-07       -76.05797148     75.234517    0.32985   -0.41643   -0.57198    8    diag
   10      0.992D-07      0.244D-07       -76.05797148     75.234520    0.32985   -0.41643   -0.57197    9    orth
   11      0.237D-07      0.454D-08       -76.05797148     75.234520    0.32985   -0.41643   -0.57197    9    diag
   12      0.488D-08      0.763D-09       -76.05797148     75.234520    0.32985   -0.41643   -0.57197    0    orth

 Final occupancy:   5

 !RHF STATE  1.1 Energy               -76.057971481492
 Nuclear energy                         8.96929098
 One-electron energy                 -122.64452222
 Two-electron energy                   37.61725976
 Virial quotient                       -1.00252748
 !RHF STATE  1.1 Dipole moment          0.32984756    -0.41643078    -0.57197488
 Dipole moment /Debye                   0.83833396    -1.05839215    -1.45371990

 Orbital energies:

         1.1          2.1          3.1          4.1          5.1          6.1          7.1
    -20.570796    -1.340919    -0.706812    -0.578348    -0.508126     0.018646     0.039285


 HOMO      5.1    -0.508126 =     -13.8268eV
 LUMO      6.1     0.018646 =       0.5074eV
 LUMO-HOMO         0.526772 =      14.3342eV


 **********************************************************************************************************************************
 DATASETS  * FILE   NREC   LENGTH (MB)   RECORD NAMES
              1      18       32.04       500      610      700      900      950      970     1000      129      960     1100   
                                          VAR    BASINP    GEOM    SYMINP    ZMAT    AOBASIS   BASIS     P2S    ABASIS      S 
                                         1400     1410     1200     1210     1080     1600     1650     1700   
                                           T        V       H0       H01     AOSYM     SMH    MOLCAS    OPER   

              2       8        9.09       700     1000      520     2100     7360     7350      200     2101   
                                         GEOM     BASIS   MCVARS     RHF    F12ABS    EF12    OPTIONS    RHF  

 PROGRAMS   *        TOTAL    HF-SCF       INT   CCSD(T)    HF-SCF       INT
 CPU TIMES  *       593.76     13.25      0.25    550.74     15.24     14.07
 REAL TIME  *       613.61 SEC
 DISK USED  *       570.60 MB (local),        7.84 GB (total)
 SF USED    *         1.35 GB
 GA USED    *         4.87 MB       (max)       0.00 MB       (current)
 **********************************************************************************************************************************

 Basis set:  JKFIT                   
 Basis size:   740
 Attributes:
 Sphericals:   T
 Basis set:  MP2FIT                  
 Basis size:   816
 Attributes:
 Sphericals:   T
 Basis set:  RI                      
 Basis size:   556
 Attributes:
 Sphericals:   T
 Basis set:  TDDFT                   
 Basis size:   816
 Attributes:
 Sphericals:   T

 PROGRAM * CCSD (Closed-shell coupled cluster)     Authors: C. Hampel, H.-J. Werner, 1991, M. Deegan, P.J. Knowles, 1992

                                  CCSD-F12 implementation by  H.-J. Werner, 2007

                   Density fitting integral evaluation by F.R. Manby, 2003,2007, G. Knizia, 2010



 Convergence thresholds:  THRVAR = 1.00D-08  THRDEN = 1.00D-10

 CCSD(T)     terms to be evaluated (factor= 1.000)


 Number of core orbitals:           1 (   1 )
 Number of closed-shell orbitals:   4 (   4 )
 Number of external orbitals:     225 ( 225 )

 Molecular orbitals read from record     2101.2  Type=RHF/CANONICAL (state 1.1)

 MP2-F12 correlation treatment (H.-J. Werner, 2006)
 ==================================================

 Using MP2-F12 with ansatz 3C(FIX)

 Using projected zeroth-order Hamiltonian (+Z)

 FOCKRIB=T FOCKRIC=T FOCKRIP=T CABSP=T CABSA=T CABSK=T CABSF=T GBC=F EBC=F DMAT=T NOFIK=T NOPAO=1 SOLVE=-1  USEPAO=0
 EXCH_A= T EXCH_B= F EXCH_C= F EXCH_P= F

 Geminal basis:    OPTFULL  GEM_TYPE=SLATER  BETA=1.0  NGEM=6

 Optimizing Gaussian exponents for each gem_beta

 Geminal optimization for beta= 1.0000
 Weight function:   m=0, omega= 1.4646

 Augmented Hessian optimization of geminal fit. Trust ratio= 0.40000
 Convergence reached after   2 iterations. Final gradient= 8.31D-16, Step= 4.24D-06, Delta= 1.28D-09

 Alpha:                 0.19532     0.81920     2.85917     9.50073    35.69989   197.79328
 Coeff:                 0.27070     0.30552     0.18297     0.10986     0.06810     0.04224


 All pairs explicitly correlated. Number of r12-pairs:           10

 Excluding core orbitals from MO domains

 AO(A)-basis ORBITAL           loaded. Number of functions:     230
 RI(R)-basis RI                loaded. Number of functions:     556
 DF-basis JKFIT                loaded. Number of functions:     740

 Screening thresholds:   THRAO=  1.00D-10  THRMO=  1.00D-09  THRPROD=  1.00D-09
                         THRSW=  1.00D-05  THROV=  1.00D-12  THRAOF12= 1.00D-10

 CPU time for Fock operators                      3.08 sec

 Construction of ABS:
 Smallest eigenvalue of S          1.12E-04  (threshold= 1.00E-08)
 Ratio eigmin/eigmax               1.59E-05  (threshold= 1.00E-09)
 Smallest eigenvalue of S kept     1.12E-04  (threshold= 1.12E-04, 0 functions deleted, 556 kept)

 Construction of CABS:
 Smallest eigenvalue of S          5.36E-07  (threshold= 1.00E-08)
 Ratio eigmin/eigmax               5.36E-07  (threshold= 1.00E-09)
 Smallest eigenvalue of S kept     5.36E-07  (threshold= 5.36E-07, 0 functions deleted, 556 kept)

 CPU time for CABS singles                        0.69 sec

 CABS-singles contribution of  -0.00144122 patched into reference energy.
 New reference energy         -76.05941270

 AO(A)-basis ORBITAL           loaded. Number of functions:     230
 RI(R)-basis RI                loaded. Number of functions:     556
 DF-basis MP2FIT               loaded. Number of functions:     816

 Screening thresholds:   THRAO=  1.00D-10  THRMO=  1.00D-09  THRPROD=  1.00D-09
                         THRSW=  1.00D-05  THROV=  1.00D-12  THRAOF12= 1.00D-10

 CPU time for 3-index integral evaluation         5.29 sec
 CPU time for first  half transformation          0.88 sec ( 1677.6 MFLOP/sec)
 CPU time for sorting                             0.04 sec
 CPU time for fitting                             0.30 sec ( 3555.7 MFLOP/sec)
 CPU time for tilde quantities                    0.48 sec ( 4389.1 MFLOP/sec)
 CPU time for assembly                            1.35 sec ( 4196.7 MFLOP/sec)
 CPU time for tranop_f12                          1.26 sec ( 4017.0 MFLOP/sec)
 CPU time for f12 integrals (total)              11.92 sec, Elapsed time:     12.33 sec
 F12-matrices built in  4 passes.
 F12-matrices built in  4 passes.
 F12-matrices built in  4 passes.
 F12-matrices built in  4 passes.
 FC-matrix built in  4 passes.
 CPU time for f12 matrices (total)                0.31 sec, Elapsed time:      0.32 sec

 Diagonal F12 approximation with fixed coefficients:  TSING= 0.500,  TTRIP= 0.250 (scaled by -1/beta)

 DF-MP2-F12 energy corrections:
 ==============================
 Approx.                                    Singlet             Triplet             Total
 DF-MP2-F12/3*C(DX,FIX)                -0.029430696623     -0.004854210811     -0.034284907434
 DF-MP2-F12/3*C(FIX)                   -0.024368802523     -0.003803233325     -0.028172035848
 DF-MP2-F12/3C(FIX)                    -0.024500823233     -0.003778248444     -0.028279071677

 DF-MP2-F12 correlation energies:
 ================================
 Approx.                                    Singlet             Triplet             Ecorr            Total Energy
 DF-MP2                                -0.171992332783     -0.098352464410     -0.270344797193    -76.329757498075
 DF-MP2-F12/3*C(DX,FIX)                -0.201423029406     -0.103206675221     -0.304629704627    -76.364042405509
 DF-MP2-F12/3*C(FIX)                   -0.196361135305     -0.102155697735     -0.298516833041    -76.357929533923
 DF-MP2-F12/3C(FIX)                    -0.196493156016     -0.102130712854     -0.298623868870    -76.358036569752

 SCS-DF-MP2 energies (F_SING= 1.20000  F_TRIP= 0.62222  F_PARALLEL= 0.33333):
 ============================================================================
 SCS-DF-MP2                            -0.267587888306    -76.327000589188
 SCS-DF-MP2-F12/3*C(DX,FIX)            -0.305925122091    -76.365337822973
 SCS-DF-MP2-F12/3*C(FIX)               -0.299196907624    -76.358609608506
 SCS-DF-MP2-F12/3C(FIX)                -0.299339786328    -76.358752487210
 Symmetry transformation completed.

 Number of N-1 electron functions:               4
 Number of N-2 electron functions:              10
 Number of singly external CSFs:               900
 Number of doubly external CSFs:            405450
 Total number of CSFs:                      406351

 Pair and operator lists are different

 Length of J-op  integral file:              81.60 MB
 Length of K-op  integral file:             128.10 MB
 Length of 3-ext integral record:             0.00 MB

 Memory could be reduced to 75.63 Mwords without degradation in triples

 Integral transformation finished. Total CPU:  12.86 sec, npass=  1  Memory used:  32.52 MW

 Reference energy:                    -76.05941270

 Adding F12 terms to K(Cij), methodcc=6,  factor= 1.0

 ITER.      SQ.NORM     CORR.ENERGY   TOTAL ENERGY   ENERGY CHANGE        DEN1      VAR(S)    VAR(P)  DIIS     TIME  TIME/IT
   1      1.06251623    -0.26993101   -76.32934371     0.00042121     0.00640036  0.80D-03  0.10D-02  1  1    34.42     3.99
   2      1.06597460    -0.26961126   -76.32902396     0.00031975    -0.00466201  0.13D-04  0.11D-03  2  2    38.37     4.04
   3      1.06723222    -0.26973503   -76.32914774    -0.00012378    -0.00083769  0.94D-05  0.61D-05  3  3    42.35     4.07
   4      1.06772989    -0.26977231   -76.32918501    -0.00003727    -0.00027971  0.43D-06  0.68D-06  4  4    46.25     4.08
   5      1.06782519    -0.26976952   -76.32918222     0.00000279    -0.00002974  0.17D-06  0.48D-07  5  5    50.14     4.10
   6      1.06785738    -0.26976736   -76.32918006     0.00000216    -0.00000444  0.17D-07  0.38D-08  6  6    54.02     4.10
   7      1.06786548    -0.26976707   -76.32917977     0.00000029    -0.00000163  0.14D-08  0.85D-09  6  2    57.92     4.10
   8      1.06786712    -0.26976695   -76.32917965     0.00000012    -0.00000005  0.26D-09  0.90D-10  6  1    61.84     4.11
   9      1.06786774    -0.26976702   -76.32917972    -0.00000006     0.00000008  0.23D-10  0.93D-11  6  3    65.77     4.11
  10      1.06786791    -0.26976700   -76.32917971     0.00000001    -0.00000001  0.33D-11  0.14D-11  6  4    69.76     4.11
  11      1.06786789    -0.26976701   -76.32917971    -0.00000000     0.00000004  0.72D-12  0.20D-12  6  5    73.67     4.11
  12      1.06786788    -0.26976701   -76.32917971    -0.00000000     0.00000001  0.12D-12  0.35D-13  6  6    77.69     4.11
  13      1.06786787    -0.26976701   -76.32917971     0.00000000     0.00000000  0.16D-13  0.58D-14  6  2    81.67     4.11
  14      1.06786787    -0.26976701   -76.32917971    -0.00000000     0.00000000  0.17D-14  0.85D-15  6  1    85.63     4.11
  15      1.06786787    -0.26976701   -76.32917971    -0.00000000     0.00000000  0.18D-15  0.12D-15  6  3    89.52     4.12
  16      1.06786787    -0.26976701   -76.32917971     0.00000000     0.00000000  0.30D-16  0.18D-16  6  4    93.51     4.12
  17      1.06786787    -0.26976701   -76.32917971     0.00000000     0.00000000  0.39D-17  0.22D-17  6  5    97.49     4.12

 Norm of t1 vector:      0.03721707      S-energy:    -0.00000000      T1 diagnostic:  0.00930427
                                                                       D1 diagnostic:  0.01851695

 Adding energy correction from Wij-K(Fij), methodcc=6  factor= 1.0

  CCSD correlation energy              -0.269767007789
  MP2-F12 correction (uncoupled)       -0.028009626445
  C*T doubles correction               -0.000412110973
  f12b correction                       0.004754600251


 Total CPU time for triples:     36.05 sec

  Ecorr(MP2)                           -0.270352224430
  Ecorr(MP2-F12)                       -0.298631296107
  Scale factor for triples energy       1.104600847049


 RESULTS
 =======

  Reference energy                    -76.057971481493
  F12 singles correction               -0.001441219390

 F12 singles corrections added to reference energy

  New reference energy                -76.059412700882

  F12a singlet correction              -0.024574876263
  F12a triplet correction              -0.003846861154
  F12a total correction                -0.028421737417

 F12a corrections for ansatz F12/3C(FIX) added to CCSD energy

  CCSD-F12a singlet pair energy        -0.207571272571
  CCSD-F12a triplet pair energy        -0.090617472593
  CCSD-F12a correlation energy         -0.298188745206

  Triples (T) contribution (scaled)    -0.009579380079
  Total correlation energy             -0.307768125286

  CCSD-F12a total energy              -76.357601446088
  CCSD[T]-F12a energy                 -76.367531449512
  CCSD-T-F12a energy                  -76.367036504893
 !CCSD(T)-F12a total energy           -76.367180826168

 F12b corrections for ansatz F12/3C(FIX) added to CCSD(T)-F12a energy

  CCSD-F12b singlet pair energy        -0.203174729047
  CCSD-F12b triplet pair energy        -0.090259415867
  CCSD-F12b correlation energy         -0.293434144956

  Triples (T) contribution (scaled)    -0.009579380079
  Total correlation energy             -0.303013525035

  CCSD-F12b total energy              -76.352846845838
  CCSD[T]-F12b energy                 -76.362776849261
  CCSD-T-F12b energy                  -76.362281904643
 !CCSD(T)-F12b total energy           -76.362426225917

 Timing summary (sec):

 STEP                 CPU(USER)    SYS     CPU(TOT)    WALL
 Transformation         12.93      0.67     13.60     13.64
 CCSD iterations        66.93      2.76     69.69     70.03
 Triples                36.05      0.17     36.22     36.37
 MP2-F12                17.65      0.50     18.15     18.18
 F12b energy             3.37      0.11      3.48      3.50

 Program statistics:

 Available memory in ccsd:              1999999871
 Min. memory needed in ccsd:               1862772
 Max. memory used in ccsd:                 2158322
 Max. memory used in cckext:               1445635 (18 integral passes)



 **********************************************************************************************************************************
 DATASETS  * FILE   NREC   LENGTH (MB)   RECORD NAMES
              1      19      222.31       500      610      700      900      950      970     1000      129      960     1100   
                                          VAR    BASINP    GEOM    SYMINP    ZMAT    AOBASIS   BASIS     P2S    ABASIS      S 
                                         1400     1410     1200     1210     1080     1600     1650     1700     1380   
                                           T        V       H0       H01     AOSYM     SMH    MOLCAS    OPER     JKOP   

              2       8        9.09       700     1000      520     2100     7360     7350      200     2101   
                                         GEOM     BASIS   MCVARS     RHF    F12ABS    EF12    OPTIONS    RHF  

 PROGRAMS   *        TOTAL   CCSD(T)    HF-SCF       INT   CCSD(T)    HF-SCF       INT
 CPU TIMES  *       730.92    137.15     13.25      0.25    550.74     15.24     14.07
 REAL TIME  *       756.11 SEC
 DISK USED  *       570.60 MB (local),        7.84 GB (total)
 SF USED    *         1.35 GB
 GA USED    *         4.87 MB       (max)       0.00 MB       (current)
 **********************************************************************************************************************************

 Running procedure: SET_MONOMER2

 Dummy atoms: O12  H23  H24


 Recomputing one-electron integrals since nuclear charges changed


 PROGRAM * SEWARD (Integral evaluation for generally contracted gaussian basis sets)     Author: Roland Lindh, 1990

 Geometry written to block  1 of record 700


 Point group  C1  



 ATOMIC COORDINATES

 NR  ATOM    CHARGE       X              Y              Z

   1  O12     0.00   -5.732106254    9.977753938    2.847061379
   2  H23     0.00   -6.497256361    9.507023160    1.238715475
   3  H24     0.00   -4.013967261    9.251343215    2.814558090
   4  C1      6.00   -6.193010455    2.801518980    2.403542658
   5  H41     1.00   -4.656285171    1.699997622    3.119937832
   6  H42     1.00   -5.973046335    4.726205038    2.982932688
   7  H43     1.00   -7.940251230    2.077186956    3.118237078
   8  H44     1.00   -6.176569838    2.685300823    0.384937212

 Bond lengths in Bohr (Angstrom)

 1-2  1.842231989  1-3  1.865671621  4-5  2.021904040  4-6  2.022002335  4-7  2.021953343
     ( 0.974867186)     ( 0.987270905)     ( 1.069945541)     ( 1.069997556)     ( 1.069971630)

 4-8  2.022015060
     ( 1.070004290)

 Bond angles

  2-1-3  105.53314040   5-4-6  109.53398059   5-4-7  109.65604535   5-4-8  108.43490854

  6-4-7  109.49436728   6-4-8  109.86987750   7-4-8  109.83468330

 NUCLEAR CHARGE:                   10
 NUMBER OF PRIMITIVE AOS:         296
 NUMBER OF SYMMETRY AOS:          266
 NUMBER OF CONTRACTIONS:          230   (  230A   )
 NUMBER OF CORE ORBITALS:           1   (    1A   )
 NUMBER OF VALENCE ORBITALS:        8   (    8A   )

 MOLECULE CHANGED: INITIALIZING OCCUPATION AND DUMP RECORDS


 NUCLEAR REPULSION ENERGY   13.68681606

 Basis set:  JKFIT                   
 Basis size:   740
 Attributes:
 Sphericals:   T
 Basis set:  MP2FIT                  
 Basis size:   816
 Attributes:
 Sphericals:   T
 Basis set:  RI                      
 Basis size:   556
 Attributes:
 Sphericals:   T
 Basis set:  TDDFT                   
 Basis size:   816
 Attributes:
 Sphericals:   T

 Eigenvalues of metric

         1 0.460E-04 0.760E-04 0.100E-03 0.103E-03 0.331E-03 0.387E-03 0.511E-03 0.667E-03


 Contracted 2-electron integrals neglected if value below      1.0D-14

 OPERATOR DM      FOR CENTER  0  COORDINATES:    0.000000    0.000000    0.000000


 **********************************************************************************************************************************
 DATASETS  * FILE   NREC   LENGTH (MB)   RECORD NAMES
              1      18       32.04       500      610      700      900      950      970     1000      129      960     1100   
                                          VAR    BASINP    GEOM    SYMINP    ZMAT    AOBASIS   BASIS     P2S    ABASIS      S 
                                         1400     1410     1200     1210     1080     1600     1650     1700   
                                           T        V       H0       H01     AOSYM     SMH    MOLCAS    OPER   

              2       8        9.09       700     1000      520     2100     7360     7350      200     2101   
                                         GEOM     BASIS   MCVARS     RHF    F12ABS    EF12    OPTIONS    RHF  

 PROGRAMS   *        TOTAL       INT   CCSD(T)    HF-SCF       INT   CCSD(T)    HF-SCF       INT
 CPU TIMES  *       731.16      0.21    137.15     13.25      0.25    550.74     15.24     14.07
 REAL TIME  *       756.87 SEC
 DISK USED  *       570.60 MB (local),        7.84 GB (total)
 SF USED    *         1.35 GB
 GA USED    *         4.87 MB       (max)       0.00 MB       (current)
 **********************************************************************************************************************************


 PROGRAM * RHF-SCF (CLOSED SHELL)       Authors: W. Meyer, H.-J. Werner


 NUMBER OF ELECTRONS:       5+    5-    SPACE SYMMETRY=1    SPIN SYMMETRY: Singlet 
 CONVERGENCE THRESHOLDS:    1.00E-08 (Density)    1.00E-11 (Energy)
 MAX. NUMBER OF ITERATIONS:       60
 INTERPOLATION TYPE:            DIIS
 INTERPOLATION STEPS:              2 (START)      1 (STEP)
 LEVEL SHIFTS:                  0.00 (CLOSED)  0.00 (OPEN) 



 Orbital guess generated from atomic densities. Full valence occupancy:    9

 Molecular orbital dump at record        2102.2

 Initial occupancy:   5

 ITERATION    DDIFF          GRAD             ENERGY        2-EL.EN.            DIPOLE MOMENTS         DIIS   ORB.
    1      0.000D+00      0.000D+00       -40.19359074     53.494061    0.00411   -0.00274   -0.00131    0    start
    2      0.000D+00      0.353D-02       -40.21070873     52.213689    0.00129   -0.00084   -0.00038    1    diag
    3      0.325D-02      0.137D-02       -40.21295728     52.664867    0.00183   -0.00120   -0.00056    2    diag
    4      0.912D-03      0.342D-03       -40.21327275     52.609846    0.00163   -0.00107   -0.00049    3    diag
    5      0.304D-03      0.444D-04       -40.21327815     52.612182    0.00160   -0.00105   -0.00048    4    diag
    6      0.825D-04      0.345D-05       -40.21327819     52.612280    0.00160   -0.00105   -0.00048    5    diag
    7      0.690D-05      0.264D-06       -40.21327819     52.612246    0.00160   -0.00105   -0.00048    6    diag
    8      0.101D-05      0.222D-07       -40.21327819     52.612246    0.00160   -0.00105   -0.00048    7    diag
    9      0.187D-06      0.289D-08       -40.21327819     52.612246    0.00159   -0.00105   -0.00048    8    diag
   10      0.104D-07      0.807D-09       -40.21327819     52.612246    0.00159   -0.00105   -0.00048    9    orth
   11      0.125D-08      0.107D-09       -40.21327819     52.612246    0.00159   -0.00105   -0.00048    0    orth

 Final occupancy:   5

 !RHF STATE  1.1 Energy               -40.213278188037
 Nuclear energy                        13.68681606
 One-electron energy                  -80.20621740
 Two-electron energy                   26.30612315
 Virial quotient                       -0.99869734
 !RHF STATE  1.1 Dipole moment          0.00159497    -0.00105273    -0.00048122
 Dipole moment /Debye                   0.00405375    -0.00267559    -0.00122307

 Orbital energies:

         1.1          2.1          3.1          4.1          5.1          6.1          7.1
    -11.197209    -0.950742    -0.551695    -0.549760    -0.547579     0.027109     0.042864


 HOMO      5.1    -0.547579 =     -14.9004eV
 LUMO      6.1     0.027109 =       0.7377eV
 LUMO-HOMO         0.574689 =      15.6381eV


 **********************************************************************************************************************************
 DATASETS  * FILE   NREC   LENGTH (MB)   RECORD NAMES
              1      18       32.04       500      610      700      900      950      970     1000      129      960     1100   
                                          VAR    BASINP    GEOM    SYMINP    ZMAT    AOBASIS   BASIS     P2S    ABASIS      S 
                                         1400     1410     1200     1210     1080     1600     1650     1700   
                                           T        V       H0       H01     AOSYM     SMH    MOLCAS    OPER   

              2       9       13.71       700     1000      520     2100     7360     7350      200     2101     2102   
                                         GEOM     BASIS   MCVARS     RHF    F12ABS    EF12    OPTIONS    RHF      RHF  

 PROGRAMS   *        TOTAL    HF-SCF       INT   CCSD(T)    HF-SCF       INT   CCSD(T)    HF-SCF       INT
 CPU TIMES  *       743.40     12.24      0.21    137.15     13.25      0.25    550.74     15.24     14.07
 REAL TIME  *       770.63 SEC
 DISK USED  *       570.60 MB (local),        7.84 GB (total)
 SF USED    *         1.35 GB
 GA USED    *         4.87 MB       (max)       0.00 MB       (current)
 **********************************************************************************************************************************

 Basis set:  JKFIT                   
 Basis size:   740
 Attributes:
 Sphericals:   T
 Basis set:  MP2FIT                  
 Basis size:   816
 Attributes:
 Sphericals:   T
 Basis set:  RI                      
 Basis size:   556
 Attributes:
 Sphericals:   T
 Basis set:  TDDFT                   
 Basis size:   816
 Attributes:
 Sphericals:   T

 PROGRAM * CCSD (Closed-shell coupled cluster)     Authors: C. Hampel, H.-J. Werner, 1991, M. Deegan, P.J. Knowles, 1992

                                  CCSD-F12 implementation by  H.-J. Werner, 2007

                   Density fitting integral evaluation by F.R. Manby, 2003,2007, G. Knizia, 2010



 Convergence thresholds:  THRVAR = 1.00D-08  THRDEN = 1.00D-10

 CCSD(T)     terms to be evaluated (factor= 1.000)


 Number of core orbitals:           1 (   1 )
 Number of closed-shell orbitals:   4 (   4 )
 Number of external orbitals:     225 ( 225 )

 Molecular orbitals read from record     2102.2  Type=RHF/CANONICAL (state 1.1)

 MP2-F12 correlation treatment (H.-J. Werner, 2006)
 ==================================================

 Using MP2-F12 with ansatz 3C(FIX)

 Using projected zeroth-order Hamiltonian (+Z)

 FOCKRIB=T FOCKRIC=T FOCKRIP=T CABSP=T CABSA=T CABSK=T CABSF=T GBC=F EBC=F DMAT=T NOFIK=T NOPAO=1 SOLVE=-1  USEPAO=0
 EXCH_A= T EXCH_B= F EXCH_C= F EXCH_P= F

 Geminal basis:    OPTFULL  GEM_TYPE=SLATER  BETA=1.0  NGEM=6

 Optimizing Gaussian exponents for each gem_beta

 Geminal optimization for beta= 1.0000
 Weight function:   m=0, omega= 1.4646

 Augmented Hessian optimization of geminal fit. Trust ratio= 0.40000
 Convergence reached after   2 iterations. Final gradient= 7.85D-16, Step= 4.26D-06, Delta= 1.28D-09

 Alpha:                 0.19532     0.81920     2.85917     9.50073    35.69989   197.79328
 Coeff:                 0.27070     0.30552     0.18297     0.10986     0.06810     0.04224


 All pairs explicitly correlated. Number of r12-pairs:           10

 Excluding core orbitals from MO domains

 AO(A)-basis ORBITAL           loaded. Number of functions:     230
 RI(R)-basis RI                loaded. Number of functions:     556
 DF-basis JKFIT                loaded. Number of functions:     740

 Screening thresholds:   THRAO=  1.00D-10  THRMO=  1.00D-09  THRPROD=  1.00D-09
                         THRSW=  1.00D-05  THROV=  1.00D-12  THRAOF12= 1.00D-10

 CPU time for Fock operators                      3.07 sec

 Construction of ABS:
 Smallest eigenvalue of S          1.12E-04  (threshold= 1.00E-08)
 Ratio eigmin/eigmax               1.59E-05  (threshold= 1.00E-09)
 Smallest eigenvalue of S kept     1.12E-04  (threshold= 1.12E-04, 0 functions deleted, 556 kept)

 Construction of CABS:
 Smallest eigenvalue of S          5.36E-07  (threshold= 1.00E-08)
 Ratio eigmin/eigmax               5.36E-07  (threshold= 1.00E-09)
 Smallest eigenvalue of S kept     5.36E-07  (threshold= 5.36E-07, 0 functions deleted, 556 kept)

 CPU time for CABS singles                        0.69 sec

 CABS-singles contribution of  -0.00090843 patched into reference energy.
 New reference energy         -40.21418661

 AO(A)-basis ORBITAL           loaded. Number of functions:     230
 RI(R)-basis RI                loaded. Number of functions:     556
 DF-basis MP2FIT               loaded. Number of functions:     816

 Screening thresholds:   THRAO=  1.00D-10  THRMO=  1.00D-09  THRPROD=  1.00D-09
                         THRSW=  1.00D-05  THROV=  1.00D-12  THRAOF12= 1.00D-10

 CPU time for 3-index integral evaluation         5.43 sec
 CPU time for first  half transformation          0.74 sec ( 1935.9 MFLOP/sec)
 CPU time for second half transformation          0.02 sec (  660.6 MFLOP/sec)
 CPU time for sorting                             0.03 sec
 CPU time for fitting                             0.34 sec ( 1840.9 MFLOP/sec)
 CPU time for tilde quantities                    0.51 sec ( 3530.3 MFLOP/sec)
 CPU time for assembly                            1.30 sec ( 3714.8 MFLOP/sec)
 CPU time for tranop_f12                          1.29 sec ( 3651.7 MFLOP/sec)
 CPU time for f12 integrals (total)              12.01 sec, Elapsed time:     12.46 sec
 F12-matrices built in  4 passes.
 F12-matrices built in  4 passes.
 F12-matrices built in  4 passes.
 F12-matrices built in  4 passes.
 FC-matrix built in  4 passes.
 CPU time for f12 matrices (total)                0.30 sec, Elapsed time:      0.31 sec

 Diagonal F12 approximation with fixed coefficients:  TSING= 0.500,  TTRIP= 0.250 (scaled by -1/beta)

 DF-MP2-F12 energy corrections:
 ==============================
 Approx.                                    Singlet             Triplet             Total
 DF-MP2-F12/3*C(DX,FIX)                -0.016681943954     -0.001924758177     -0.018606702131
 DF-MP2-F12/3*C(FIX)                   -0.015442852672     -0.001782524905     -0.017225377577
 DF-MP2-F12/3C(FIX)                    -0.015432138126     -0.001774349410     -0.017206487536

 DF-MP2-F12 correlation energies:
 ================================
 Approx.                                    Singlet             Triplet             Ecorr            Total Energy
 DF-MP2                                -0.145464238854     -0.055068797958     -0.200533036812    -40.414719651713
 DF-MP2-F12/3*C(DX,FIX)                -0.162146182808     -0.056993556135     -0.219139738943    -40.433326353845
 DF-MP2-F12/3*C(FIX)                   -0.160907091526     -0.056851322863     -0.217758414389    -40.431945029290
 DF-MP2-F12/3C(FIX)                    -0.160896376980     -0.056843147368     -0.217739524348    -40.431926139249

 SCS-DF-MP2 energies (F_SING= 1.20000  F_TRIP= 0.62222  F_PARALLEL= 0.33333):
 ============================================================================
 SCS-DF-MP2                            -0.208822116465    -40.423008731367
 SCS-DF-MP2-F12/3*C(DX,FIX)            -0.230038076521    -40.444224691422
 SCS-DF-MP2-F12/3*C(FIX)               -0.228462666279    -40.442649281180
 SCS-DF-MP2-F12/3C(FIX)                -0.228444721849    -40.442631336751
 Symmetry transformation completed.

 Number of N-1 electron functions:               4
 Number of N-2 electron functions:              10
 Number of singly external CSFs:               900
 Number of doubly external CSFs:            405450
 Total number of CSFs:                      406351

 Pair and operator lists are different

 Length of J-op  integral file:              81.60 MB
 Length of K-op  integral file:             128.10 MB
 Length of 3-ext integral record:             0.00 MB

 Memory could be reduced to 75.63 Mwords without degradation in triples

 Integral transformation finished. Total CPU:  12.52 sec, npass=  1  Memory used:  32.52 MW

 Reference energy:                    -40.21418661

 Adding F12 terms to K(Cij), methodcc=6,  factor= 1.0

 ITER.      SQ.NORM     CORR.ENERGY   TOTAL ENERGY   ENERGY CHANGE        DEN1      VAR(S)    VAR(P)  DIIS     TIME  TIME/IT
   1      1.06946589    -0.21560254   -40.42978915    -0.01505982    -0.00938343  0.67D-03  0.94D-03  1  1    34.13     4.01
   2      1.07449278    -0.21617190   -40.43035852    -0.00056936    -0.00524383  0.16D-04  0.83D-04  2  2    38.14     4.09
   3      1.07590120    -0.21632673   -40.43051335    -0.00015483    -0.00098015  0.20D-05  0.51D-05  3  3    42.18     4.11
   4      1.07623939    -0.21633903   -40.43052564    -0.00001229    -0.00017407  0.10D-06  0.25D-06  4  4    46.09     4.12
   5      1.07628415    -0.21633777   -40.43052439     0.00000125    -0.00000984  0.77D-08  0.17D-07  5  5    50.01     4.13
   6      1.07629003    -0.21633679   -40.43052341     0.00000098    -0.00000184  0.60D-09  0.12D-08  6  6    53.91     4.14
   7      1.07629119    -0.21633647   -40.43052308     0.00000032    -0.00000073  0.41D-10  0.10D-09  6  1    57.89     4.14
   8      1.07629132    -0.21633655   -40.43052316    -0.00000008     0.00000001  0.39D-11  0.69D-11  6  2    61.85     4.14
   9      1.07629135    -0.21633656   -40.43052317    -0.00000001     0.00000002  0.34D-12  0.58D-12  6  3    65.83     4.14
  10      1.07629135    -0.21633656   -40.43052317     0.00000000     0.00000002  0.33D-13  0.56D-13  6  4    69.76     4.14
  11      1.07629134    -0.21633655   -40.43052317     0.00000000     0.00000001  0.25D-14  0.56D-14  6  5    73.78     4.14
  12      1.07629133    -0.21633655   -40.43052317     0.00000000     0.00000000  0.50D-16  0.66D-15  6  6    77.82     4.14
  13      1.07629133    -0.21633655   -40.43052317     0.00000000     0.00000000  0.86D-17  0.73D-16  6  1    81.79     4.14
  14      1.07629133    -0.21633655   -40.43052317    -0.00000000     0.00000000  0.22D-17  0.85D-17  6  2    85.76     4.14

 Norm of t1 vector:      0.03361690      S-energy:     0.00000000      T1 diagnostic:  0.00840422
                                                                       D1 diagnostic:  0.01339703

 Adding energy correction from Wij-K(Fij), methodcc=6  factor= 1.0

  CCSD correlation energy              -0.216336554283
  MP2-F12 correction (uncoupled)       -0.017214137828
  C*T doubles correction               -0.000194619208
  f12b correction                       0.003651124658

 Total CPU time for triples:     36.04 sec

  Ecorr(MP2)                           -0.200542717207
  Ecorr(MP2-F12)                       -0.217749204743
  Scale factor for triples energy       1.085799613047


 RESULTS
 =======

  Reference energy                    -40.213278188038
  F12 singles correction               -0.000908426863

 F12 singles corrections added to reference energy

  New reference energy                -40.214186614901

  F12a singlet correction              -0.015608995480
  F12a triplet correction              -0.001799761556
  F12a total correction                -0.017408757037

 F12a corrections for ansatz F12/3C(FIX) added to CCSD energy

  CCSD-F12a singlet pair energy        -0.178528179380
  CCSD-F12a triplet pair energy        -0.055217131976
  CCSD-F12a correlation energy         -0.233745311319

  Triples (T) contribution (scaled)    -0.006802589198
  Total correlation energy             -0.240547900518

  CCSD-F12a total energy              -40.447931926221
  CCSD[T]-F12a energy                 -40.454973646671
  CCSD-T-F12a energy                  -40.454659783014
 !CCSD(T)-F12a total energy           -40.454734515419

 F12b corrections for ansatz F12/3C(FIX) added to CCSD(T)-F12a energy

  CCSD-F12b singlet pair energy        -0.175047706141
  CCSD-F12b triplet pair energy        -0.055046480558
  CCSD-F12b correlation energy         -0.230094186662

  Triples (T) contribution (scaled)    -0.006802589198
  Total correlation energy             -0.236896775860

  CCSD-F12b total energy              -40.444280801563
  CCSD[T]-F12b energy                 -40.451322522013
  CCSD-T-F12b energy                  -40.451008658356
 !CCSD(T)-F12b total energy           -40.451083390761

 Timing summary (sec):

 STEP                 CPU(USER)    SYS     CPU(TOT)    WALL
 Transformation         12.58      0.55     13.13     13.26
 CCSD iterations        55.50      2.27     57.77     58.03
 Triples                36.04      0.32     36.36     36.44
 MP2-F12                17.70      0.57     18.27     18.32
 F12b energy             3.36      0.14      3.50      3.51

 Program statistics:

 Available memory in ccsd:              1999999866
 Min. memory needed in ccsd:               1862772
 Max. memory used in ccsd:                 2158322
 Max. memory used in cckext:               1445635 (15 integral passes)



 **********************************************************************************************************************************
 DATASETS  * FILE   NREC   LENGTH (MB)   RECORD NAMES
              1      19      222.31       500      610      700      900      950      970     1000      129      960     1100   
                                          VAR    BASINP    GEOM    SYMINP    ZMAT    AOBASIS   BASIS     P2S    ABASIS      S 
                                         1400     1410     1200     1210     1080     1600     1650     1700     1380   
                                           T        V       H0       H01     AOSYM     SMH    MOLCAS    OPER     JKOP   

              2       9       13.71       700     1000      520     2100     7360     7350      200     2101     2102   
                                         GEOM     BASIS   MCVARS     RHF    F12ABS    EF12    OPTIONS    RHF      RHF  

 PROGRAMS   *        TOTAL   CCSD(T)    HF-SCF       INT   CCSD(T)    HF-SCF       INT   CCSD(T)    HF-SCF       INT
 CPU TIMES  *       868.80    125.39     12.24      0.21    137.15     13.25      0.25    550.74     15.24     14.07
 REAL TIME  *       900.96 SEC
 DISK USED  *       570.60 MB (local),        7.84 GB (total)
 SF USED    *         1.35 GB
 GA USED    *         4.87 MB       (max)       0.00 MB       (current)
 **********************************************************************************************************************************
 Molecular orbitals read from record     2102.2  Type=RHF/CANONICAL (state 1.1)
 Occupation numbers read from record     2102.2  Type=RHF/RHF (state 1.1)
 Orbital energies read from record       2102.2  Type=RHF/CANONICAL (state 1.1)
 Redundancy group numbers read from rec  2102.2  Type=RHF/RHF (state 1.1)

 CCSD(T)-F12/aug-cc-pVTZ energy=    -40.451083390761

     CCSD(T)-F12          HF-SCF     CCSD(T)-F12          HF-SCF     CCSD(T)-F12          HF-SCF
    -40.45108339    -40.21327819    -76.36242623    -76.05797148   -116.81415469   -116.27071995
 **********************************************************************************************************************************
 Molpro calculation terminated
