
 Primary working directories    : /scratch/klimes/383161/molpro.E09uIC8UNE
 Secondary working directories  : /scratch/klimes/383161/molpro.E09uIC8UNE
 Wavefunction directory         : /scratch/klimes/383161/
 Main file repository           : /scratch/klimes/383161/molpro.E09uIC8UNE/

 id        : karlovklimes

 Nodes                      nprocs
 nc-01.cc.karlov.mff.cuni.cz    4

 Using customized tuning parameters: mindgm=1; mindgv=20; mindgc=4; mindgr=1; noblas=0; minvec=7
 default implementation of scratch files=sf  


 Variables initialized (930), CPU time= 0.01 sec
                                                                                 !gdirect
 memory,2000,m
 gthresh,orbital=1d-10,energy=1d-10,grid=1d-8
 
 symmetry,nosym
 angstrom
 geometry={
 O13        -4.053700000000      0.094100000000      4.862800000000
 H25        -3.635600000000      1.001800000000      4.895500000000
 H26        -4.213700000000     -0.141300000000      5.785400000000
 C1        -3.277200000000      1.482500000000      1.271900000000
 H41        -2.464000000000      0.899600000000      1.651000000000
 H42        -3.160800000000      2.501000000000      1.578500000000
 H43        -4.201800000000      1.099200000000      1.650100000000
 H44        -3.268500000000      1.421000000000      0.203700000000
 }
 
 nkerna=1
 nkernb=1
 
 gf=0
 sing=1
 thrdum=1d-4
 gridthr=1d-8
 
 basis={
 set,orbital
 default,avtz
 set,jkfit
 default,avqz/jkfit
 set,mp2fit
 default,avqz/mp2fit
 set,ri
 default,avqz/optri
 set,tddft
 default,avqz/mp2fit
 }
 
 proc set_monomer1
 dummy,4,5,6,7,8
 endproc
 
 proc set_monomer2
 dummy,1,2,3
 endproc
 
                                                                                 !12 energy
 {hf,accu=1.d-16}
 {ccsd(t)-f12,df_basis=mp2fit,df_basis_exch=jkfit,ri_basis=ri,scale_trip=1,THRAOF12=1d-10}
 
 set_monomer1
 {hf,accu=1.d-16}
 {ccsd(t)-f12,df_basis=mp2fit,df_basis_exch=jkfit,ri_basis=ri,scale_trip=1,THRAOF12=1d-10}
 
 set_monomer2
 {hf,accu=1.d-16}
 {ccsd(t)-f12,df_basis=mp2fit,df_basis_exch=jkfit,ri_basis=ri,scale_trip=1,THRAOF12=1d-10}
 
 Commands  initialized (760), CPU time= 0.02 sec, 617 directives.
 Default parameters read. Elapsed time= 0.21 sec

 Checking input...
 Passed
1


                                         ***  PROGRAM SYSTEM MOLPRO  ***
                                       Copyright, TTI GmbH Stuttgart, 2015
                                    Version 2019.1 linked Jan 14 2019 13:09:19


 **********************************************************************************************************************************
 LABEL *                                                                                 
  64 bit mpp version                                                                     DATE: 11-Mar-20          TIME: 16:19:41  
 **********************************************************************************************************************************

 SHA1:             d688ac825633d238f2093ded1675ba87ccd55965
 **********************************************************************************************************************************

 THRESHOLDS:

 ZERO    =  1.00D-12  ONEINT  =  1.00D-12  TWOINT  =  1.00D-11  PREFAC  =  1.00D-14  XXXXXX  =  1.00D-09  EORDER  =  1.00D-04
 ENERGY  =  1.00D-10  ETEST   =  0.00D+00  EDENS   =  0.00D+00  THRDEDEF=  1.00D-06  GRADIENT=  1.00D-02  STEP    =  1.00D-03
 ORBITAL =  1.00D-10  CIVEC   =  1.00D-05  COEFF   =  1.00D-04  PRINTCI =  5.00D-02  PUNCHCI =  9.90D+01  OPTGRAD =  3.00D-04
 OPTENERG=  1.00D-06  OPTSTEP =  3.00D-04  THRGRAD =  1.00D-10  COMPRESS=  1.00D-11  VARMIN  =  1.00D-07  VARMAX  =  1.00D-03
 THRDOUB =  0.00D+00  THRDIV  =  1.00D-05  THRRED  =  1.00D-07  THRPSP  =  1.00D+00  THRDC   =  1.00D-10  THRCS   =  1.00D-10
 THRNRM  =  1.00D-08  THREQ   =  0.00D+00  THRDE   =  1.00D+00  THRREF  =  1.00D-05  SPARFAC =  1.00D+00  THRDLP  =  1.00D-07
 THRDIA  =  1.00D-10  THRDLS  =  1.00D-07  THRGPS  =  0.00D+00  THRKEX  =  0.00D+00  THRDIS  =  2.00D-01  THRVAR  =  1.00D-10
 THRLOC  =  1.00D-06  THRGAP  =  1.00D-06  THRLOCT = -1.00D+00  THRGAPT = -1.00D+00  THRORB  =  1.00D-06  THRMLTP =  0.00D+00
 THRCPQCI=  1.00D-10  KEXTA   =  0.00D+00  THRCOARS=  0.00D+00  SYMTOL  =  1.00D-06  GRADTOL =  1.00D-06  THROVL  =  1.00D-08
 THRORTH =  1.00D-08  GRID    =  1.00D-08  GRIDMAX =  1.00D-03  DTMAX   =  0.00D+00  THROCCDE=  1.00D-01  THROCCDE=  1.00D-01
 THRPRINT=  2.50D-01


 Variable memory set to 2000000000 words,  buffer space 

 ZSYMEL=NOSYM
 ZUNIT=ANG


Geometry recognized as XYZ

 SETTING NKERNA         =         1.00000000                                  
 SETTING NKERNB         =         1.00000000                                  
 SETTING GF             =     0.00000000D+00                                  
 SETTING SING           =         1.00000000                                  
 SETTING THRDUM         =     1.00000000D-04                                  
 SETTING GRIDTHR        =     1.00000000D-08                                  
 SETTING BASIS          =    AVTZ


 Recomputing integrals since basis changed


 Using spherical harmonics

 Library entry O      S aug-cc-pVTZ          selected for orbital group  1
 Library entry O      P aug-cc-pVTZ          selected for orbital group  1
 Library entry O      D aug-cc-pVTZ          selected for orbital group  1
 Library entry O      F aug-cc-pVTZ          selected for orbital group  1
 Library entry H      S aug-cc-pVTZ          selected for orbital group  2
 Library entry H      P aug-cc-pVTZ          selected for orbital group  2
 Library entry H      D aug-cc-pVTZ          selected for orbital group  2
 Library entry C      S aug-cc-pVTZ          selected for orbital group  3
 Library entry C      P aug-cc-pVTZ          selected for orbital group  3
 Library entry C      D aug-cc-pVTZ          selected for orbital group  3
 Library entry C      F aug-cc-pVTZ          selected for orbital group  3


 PROGRAM * SEWARD (Integral evaluation for generally contracted gaussian basis sets)     Author: Roland Lindh, 1990

 Geometry written to block  1 of record 700


 Point group  C1  



 ATOMIC COORDINATES

 NR  ATOM    CHARGE       X              Y              Z

   1  O13     8.00   -7.660382791    0.177823228    9.189360199
   2  H25     1.00   -6.870288298    1.893127632    9.251154243
   3  H26     1.00   -7.962738971   -0.267018301   10.932821521
   4  C1      6.00   -6.193010455    2.801518980    2.403542658
   5  H41     1.00   -4.656285171    1.699997622    3.119937832
   6  H42     1.00   -5.973046335    4.726205038    2.982932688
   7  H43     1.00   -7.940251230    2.077186956    3.118237078
   8  H44     1.00   -6.176569838    2.685300823    0.384937212

 Bond lengths in Bohr (Angstrom)

 1-2  1.889533542  1-3  1.824543951  4-5  2.021904040  4-6  2.022002335  4-7  2.021953343
     ( 0.999898090)     ( 0.965507079)     ( 1.069945541)     ( 1.069997556)     ( 1.069971630)

 4-8  2.022015060
     ( 1.070004290)

 Bond angles

  2-1-3  105.03277623   5-4-6  109.53398059   5-4-7  109.65604535   5-4-8  108.43490854

  6-4-7  109.49436728   6-4-8  109.86987750   7-4-8  109.83468330

 NUCLEAR CHARGE:                   20
 NUMBER OF PRIMITIVE AOS:         296
 NUMBER OF SYMMETRY AOS:          266
 NUMBER OF CONTRACTIONS:          230   (  230A   )
 NUMBER OF CORE ORBITALS:           2   (    2A   )
 NUMBER OF VALENCE ORBITALS:       14   (   14A   )


 NUCLEAR REPULSION ENERGY   35.91495842


 Basis set:  JKFIT                   
 Basis size:   740
 Attributes:
 Sphericals:   T
 Basis set:  MP2FIT                  
 Basis size:   816
 Attributes:
 Sphericals:   T
 Basis set:  RI                      
 Basis size:   556
 Attributes:
 Sphericals:   T
 Basis set:  TDDFT                   
 Basis size:   816
 Attributes:
 Sphericals:   T

 **********************************************************************************************************************************


 Eigenvalues of metric

         1 0.580E-04 0.702E-04 0.986E-04 0.106E-03 0.331E-03 0.362E-03 0.646E-03 0.769E-03


 Contracted 2-electron integrals neglected if value below      1.0D-14
 AO integral compression algorithm  1   Integral accuracy      1.0D-14

     2039.218 MB (compressed) written to integral file ( 63.6%)

     Node minimum: 471.073 MB, node maximum: 528.220 MB


 NUMBER OF SORTED TWO-ELECTRON INTEGRALS:   88219044.     BUFFER LENGTH:  32768
 NUMBER OF SEGMENTS:   6  SEGMENT LENGTH:   15998348      RECORD LENGTH: 524288

 Memory used in sort:      16.56 MW

 SORT1 READ   400769927. AND WROTE    79636381. INTEGRALS IN    231 RECORDS. CPU TIME:     8.08 SEC, REAL TIME:     9.17 SEC
 SORT2 READ   318386130. AND WROTE   352862895. INTEGRALS IN   7864 RECORDS. CPU TIME:     2.14 SEC, REAL TIME:     3.08 SEC

 Node minimum:    88205762.  Node maximum:    88225686. integrals

 OPERATOR DM      FOR CENTER  0  COORDINATES:    0.000000    0.000000    0.000000


 **********************************************************************************************************************************
 DATASETS  * FILE   NREC   LENGTH (MB)   RECORD NAMES
              1      18       32.04       500      610      700      900      950      970     1000      129      960     1100   
                                          VAR    BASINP    GEOM    SYMINP    ZMAT    AOBASIS   BASIS     P2S    ABASIS      S 
                                         1400     1410     1200     1210     1080     1600     1650     1700   
                                           T        V       H0       H01     AOSYM     SMH    MOLCAS    OPER   

 PROGRAMS   *        TOTAL       INT
 CPU TIMES  *        15.52     15.30
 REAL TIME  *        20.94 SEC
 DISK USED  *        32.49 MB (local),        5.95 GB (total)
 GA USED    *         0.00 MB       (max)       0.00 MB       (current)
 **********************************************************************************************************************************


 PROGRAM * RHF-SCF (CLOSED SHELL)       Authors: W. Meyer, H.-J. Werner


 NUMBER OF ELECTRONS:      10+   10-    SPACE SYMMETRY=1    SPIN SYMMETRY: Singlet 
 CONVERGENCE THRESHOLDS:    1.00E-08 (Density)    1.00E-11 (Energy)
 MAX. NUMBER OF ITERATIONS:       60
 INTERPOLATION TYPE:            DIIS
 INTERPOLATION STEPS:              2 (START)      1 (STEP)
 LEVEL SHIFTS:                  0.00 (CLOSED)  0.00 (OPEN) 



 Orbital guess generated from atomic densities. Full valence occupancy:   16

 Molecular orbital dump at record        2100.2

 Initial occupancy:  10

 ITERATION    DDIFF          GRAD             ENERGY        2-EL.EN.            DIPOLE MOMENTS         DIIS   ORB.
    1      0.000D+00      0.000D+00      -116.21248433    157.529830    0.25820    0.65644    0.91852    0    start
    2      0.000D+00      0.523D-02      -116.25625279    152.509054    0.12516    0.33252    0.54757    1    diag
    3      0.550D-02      0.309D-02      -116.26984655    154.583472    0.15720    0.41300    0.64374    2    diag
    4      0.183D-02      0.453D-03      -116.27049812    154.471607    0.15389    0.40535    0.63609    3    diag
    5      0.405D-03      0.133D-03      -116.27056571    154.465973    0.15319    0.40431    0.63643    4    diag
    6      0.141D-03      0.326D-04      -116.27056955    154.471828    0.15286    0.40358    0.63599    5    diag
    7      0.386D-04      0.642D-05      -116.27056979    154.470296    0.15281    0.40353    0.63604    6    diag
    8      0.105D-04      0.165D-05      -116.27056981    154.470444    0.15278    0.40346    0.63601    7    diag
    9      0.229D-05      0.365D-06      -116.27056981    154.470418    0.15277    0.40344    0.63600    8    diag
   10      0.730D-06      0.417D-07      -116.27056981    154.470420    0.15277    0.40344    0.63600    9    orth
   11      0.577D-07      0.104D-07      -116.27056981    154.470421    0.15277    0.40344    0.63600    9    diag
   12      0.224D-07      0.262D-08      -116.27056981    154.470421    0.15277    0.40344    0.63600    9    diag
   13      0.363D-08      0.695D-09      -116.27056981    154.470421    0.15277    0.40344    0.63600    0    orth

 Final occupancy:  10

 !RHF STATE  1.1 Energy              -116.270569807065
 Nuclear energy                        35.91495842
 One-electron energy                 -229.42073875
 Two-electron energy                   77.23521052
 Virial quotient                       -1.00121472
 !RHF STATE  1.1 Dipole moment          0.15277362     0.40344228     0.63599692
 Dipole moment /Debye                   0.38828637     1.02538082     1.61643704

 Orbital energies:

         1.1          2.1          3.1          4.1          5.1          6.1          7.1          8.1          9.1         10.1
    -20.571194   -11.191899    -1.340678    -0.945656    -0.705109    -0.579119    -0.547003    -0.544092    -0.542312    -0.508097

        11.1         12.1
      0.026918     0.039489


 HOMO     10.1    -0.508097 =     -13.8260eV
 LUMO     11.1     0.026918 =       0.7325eV
 LUMO-HOMO         0.535015 =      14.5585eV


 **********************************************************************************************************************************
 DATASETS  * FILE   NREC   LENGTH (MB)   RECORD NAMES
              1      18       32.04       500      610      700      900      950      970     1000      129      960     1100   
                                          VAR    BASINP    GEOM    SYMINP    ZMAT    AOBASIS   BASIS     P2S    ABASIS      S 
                                         1400     1410     1200     1210     1080     1600     1650     1700   
                                           T        V       H0       H01     AOSYM     SMH    MOLCAS    OPER   

              2       4        3.96       700     1000      520     2100   
                                         GEOM     BASIS   MCVARS     RHF  

 PROGRAMS   *        TOTAL    HF-SCF       INT
 CPU TIMES  *        30.18     14.65     15.30
 REAL TIME  *        37.68 SEC
 DISK USED  *        39.90 MB (local),        5.98 GB (total)
 SF USED    *         0.21 MB
 GA USED    *         0.00 MB       (max)       0.00 MB       (current)
 **********************************************************************************************************************************

 Basis set:  JKFIT                   
 Basis size:   740
 Attributes:
 Sphericals:   T
 Basis set:  MP2FIT                  
 Basis size:   816
 Attributes:
 Sphericals:   T
 Basis set:  RI                      
 Basis size:   556
 Attributes:
 Sphericals:   T
 Basis set:  TDDFT                   
 Basis size:   816
 Attributes:
 Sphericals:   T

 PROGRAM * CCSD (Closed-shell coupled cluster)     Authors: C. Hampel, H.-J. Werner, 1991, M. Deegan, P.J. Knowles, 1992

                                  CCSD-F12 implementation by  H.-J. Werner, 2007

                   Density fitting integral evaluation by F.R. Manby, 2003,2007, G. Knizia, 2010



 Convergence thresholds:  THRVAR = 1.00D-08  THRDEN = 1.00D-10

 CCSD(T)     terms to be evaluated (factor= 1.000)


 Number of core orbitals:           2 (   2 )
 Number of closed-shell orbitals:   8 (   8 )
 Number of external orbitals:     220 ( 220 )

 Molecular orbitals read from record     2100.2  Type=RHF/CANONICAL (state 1.1)

 MP2-F12 correlation treatment (H.-J. Werner, 2006)
 ==================================================

 Using MP2-F12 with ansatz 3C(FIX)

 Using projected zeroth-order Hamiltonian (+Z)

 FOCKRIB=T FOCKRIC=T FOCKRIP=T CABSP=T CABSA=T CABSK=T CABSF=T GBC=F EBC=F DMAT=T NOFIK=T NOPAO=1 SOLVE=-1  USEPAO=0
 EXCH_A= T EXCH_B= F EXCH_C= F EXCH_P= F

 Geminal basis:    OPTFULL  GEM_TYPE=SLATER  BETA=1.0  NGEM=6

 Optimizing Gaussian exponents for each gem_beta

 Geminal optimization for beta= 1.0000
 Weight function:   m=0, omega= 1.4646

 Augmented Hessian optimization of geminal fit. Trust ratio= 0.40000
 Convergence reached after   2 iterations. Final gradient= 7.85D-16, Step= 4.26D-06, Delta= 1.28D-09

 Alpha:                 0.19532     0.81920     2.85917     9.50073    35.69989   197.79328
 Coeff:                 0.27070     0.30552     0.18297     0.10986     0.06810     0.04224


 All pairs explicitly correlated. Number of r12-pairs:           36

 Excluding core orbitals from MO domains

 AO(A)-basis ORBITAL           loaded. Number of functions:     230
 RI(R)-basis RI                loaded. Number of functions:     556
 DF-basis JKFIT                loaded. Number of functions:     740

 Screening thresholds:   THRAO=  1.00D-10  THRMO=  1.00D-09  THRPROD=  1.00D-09
                         THRSW=  1.00D-05  THROV=  1.00D-12  THRAOF12= 1.00D-10

 CPU time for Fock operators                      3.61 sec

 Construction of ABS:
 Smallest eigenvalue of S          1.13E-04  (threshold= 1.00E-08)
 Ratio eigmin/eigmax               1.61E-05  (threshold= 1.00E-09)
 Smallest eigenvalue of S kept     1.13E-04  (threshold= 1.13E-04, 0 functions deleted, 556 kept)

 Construction of CABS:
 Smallest eigenvalue of S          6.99E-07  (threshold= 1.00E-08)
 Ratio eigmin/eigmax               6.99E-07  (threshold= 1.00E-09)
 Smallest eigenvalue of S kept     6.99E-07  (threshold= 6.99E-07, 0 functions deleted, 556 kept)

 CPU time for CABS singles                        0.66 sec

 CABS-singles contribution of  -0.00237129 patched into reference energy.
 New reference energy        -116.27294110

 AO(A)-basis ORBITAL           loaded. Number of functions:     230
 RI(R)-basis RI                loaded. Number of functions:     556
 DF-basis MP2FIT               loaded. Number of functions:     816

 Screening thresholds:   THRAO=  1.00D-10  THRMO=  1.00D-09  THRPROD=  1.00D-09
                         THRSW=  1.00D-05  THROV=  1.00D-12  THRAOF12= 1.00D-10

 CPU time for 3-index integral evaluation         5.28 sec
 CPU time for first  half transformation          0.98 sec ( 2911.3 MFLOP/sec)
 CPU time for sorting                             0.08 sec
 CPU time for fitting                             0.53 sec ( 4100.7 MFLOP/sec)
 CPU time for tilde quantities                    0.63 sec ( 4379.9 MFLOP/sec)
 CPU time for assembly                            4.54 sec ( 4362.6 MFLOP/sec)
 CPU time for tranop_f12                          4.34 sec ( 4398.6 MFLOP/sec)
 CPU time for f12 integrals (total)              23.16 sec, Elapsed time:     23.93 sec
 F12-matrices built in  4 passes.
 F12-matrices built in  4 passes.
 F12-matrices built in  4 passes.
 F12-matrices built in  4 passes.
 FC-matrix built in  4 passes.
 CPU time for f12 matrices (total)                1.13 sec, Elapsed time:      1.18 sec

 Diagonal F12 approximation with fixed coefficients:  TSING= 0.500,  TTRIP= 0.250 (scaled by -1/beta)

 DF-MP2-F12 energy corrections:
 ==============================
 Approx.                                    Singlet             Triplet             Total
 DF-MP2-F12/3*C(DX,FIX)                -0.046233567617     -0.006801371028     -0.053034938645
 DF-MP2-F12/3*C(FIX)                   -0.039929930146     -0.005611491106     -0.045541421251
 DF-MP2-F12/3C(FIX)                    -0.040046274748     -0.005575878972     -0.045622153721

 DF-MP2-F12 correlation energies:
 ================================
 Approx.                                    Singlet             Triplet             Ecorr            Total Energy
 DF-MP2                                -0.317578257753     -0.153872832022     -0.471451089774   -116.744392187751
 DF-MP2-F12/3*C(DX,FIX)                -0.363811825370     -0.160674203049     -0.524486028419   -116.797427126396
 DF-MP2-F12/3*C(FIX)                   -0.357508187898     -0.159484323128     -0.516992511026   -116.789933609002
 DF-MP2-F12/3C(FIX)                    -0.357624532501     -0.159448710994     -0.517073243495   -116.790014341471

 SCS-DF-MP2 energies (F_SING= 1.20000  F_TRIP= 0.62222  F_PARALLEL= 0.33333):
 ============================================================================
 SCS-DF-MP2                            -0.476837004783   -116.749778102760
 SCS-DF-MP2-F12/3*C(DX,FIX)            -0.536549250119   -116.809490348095
 SCS-DF-MP2-F12/3*C(FIX)               -0.528244515424   -116.801185613400
 SCS-DF-MP2-F12/3C(FIX)                -0.528361970287   -116.801303068263
 Symmetry transformation completed.

 Number of N-1 electron functions:               8
 Number of N-2 electron functions:              36
 Number of singly external CSFs:              1760
 Number of doubly external CSFs:           1549680
 Total number of CSFs:                     1551441

 Pair and operator lists are different

 Length of J-op  integral file:             315.61 MB
 Length of K-op  integral file:             368.50 MB
 Length of 3-ext integral record:             0.00 MB

 Memory could be reduced to 116.32 Mwords without degradation in triples

 Integral transformation finished. Total CPU:  23.47 sec, npass=  1  Memory used:  59.34 MW

 Reference energy:                   -116.27294110

 Adding F12 terms to K(Cij), methodcc=6,  factor= 1.0

 ITER.      SQ.NORM     CORR.ENERGY   TOTAL ENERGY   ENERGY CHANGE        DEN1      VAR(S)    VAR(P)  DIIS     TIME  TIME/IT
   1      1.13228002    -0.48603062  -116.75897171    -0.01456168    -0.00288651  0.15D-02  0.20D-02  1  1    68.50    14.47
   2      1.14055863    -0.48629314  -116.75923424    -0.00026252    -0.00973692  0.28D-04  0.23D-03  2  2    83.12    14.66
   3      1.14345489    -0.48655474  -116.75949584    -0.00026161    -0.00197664  0.12D-04  0.12D-04  3  3    97.66    14.71
   4      1.14433902    -0.48661100  -116.75955210    -0.00005626    -0.00048503  0.54D-06  0.11D-05  4  4   112.20    14.74
   5      1.14448484    -0.48660535  -116.75954645     0.00000565    -0.00003889  0.19D-06  0.75D-07  5  5   126.71    14.76
   6      1.14452544    -0.48660250  -116.75954359     0.00000285    -0.00000626  0.17D-07  0.54D-08  6  6   141.36    14.78
   7      1.14453490    -0.48660175  -116.75954284     0.00000075    -0.00000256  0.14D-08  0.72D-09  6  2   155.99    14.80
   8      1.14453686    -0.48660172  -116.75954282     0.00000003    -0.00000011  0.23D-09  0.73D-10  6  1   170.63    14.81
   9      1.14453755    -0.48660174  -116.75954284    -0.00000002    -0.00000006  0.21D-10  0.13D-10  6  3   185.30    14.82
  10      1.14453765    -0.48660174  -116.75954283     0.00000000     0.00000006  0.31D-11  0.16D-11  6  4   199.94    14.82
  11      1.14453759    -0.48660174  -116.75954284    -0.00000001     0.00000007  0.55D-12  0.24D-12  6  5   214.57    14.83
  12      1.14453756    -0.48660174  -116.75954284    -0.00000000     0.00000002  0.11D-12  0.33D-13  6  6   229.16    14.83
  13      1.14453754    -0.48660174  -116.75954284    -0.00000000     0.00000001  0.16D-13  0.49D-14  6  2   243.80    14.84
  14      1.14453753    -0.48660174  -116.75954284    -0.00000000     0.00000000  0.19D-14  0.11D-14  6  1   258.40    14.84
  15      1.14453753    -0.48660174  -116.75954284    -0.00000000    -0.00000000  0.21D-15  0.11D-15  6  3   273.04    14.84
  16      1.14453753    -0.48660174  -116.75954284     0.00000000    -0.00000000  0.23D-16  0.15D-16  6  4   287.54    14.84

 Norm of t1 vector:      0.05062235      S-energy:     0.00000000      T1 diagnostic:  0.00894885
                                                                       D1 diagnostic:  0.01889053

 Adding energy correction from Wij-K(Fij), methodcc=6  factor= 1.0

  CCSD correlation energy              -0.486601744673
  MP2-F12 correction (uncoupled)       -0.045356954708
  C*T doubles correction               -0.000612199691
  f12b correction                       0.008426832229


 Total CPU time for triples:    218.41 sec

  Ecorr(MP2)                           -0.471468933926
  Ecorr(MP2-F12)                       -0.517091087647
  Scale factor for triples energy       1.096765980615


 RESULTS
 =======

  Reference energy                   -116.270569807061
  F12 singles correction               -0.002371290915

 F12 singles corrections added to reference energy

  New reference energy               -116.272941097976

  F12a singlet correction              -0.040297668917
  F12a triplet correction              -0.005671485483
  F12a total correction                -0.045969154400

 F12a corrections for ansatz F12/3C(FIX) added to CCSD energy

  CCSD-F12a singlet pair energy        -0.386298001559
  CCSD-F12a triplet pair energy        -0.146272897691
  CCSD-F12a correlation energy         -0.532570899073

  Triples (T) contribution (scaled)    -0.016483231551
  Total correlation energy             -0.549054130624

  CCSD-F12a total energy             -116.805511997049
  CCSD[T]-F12a energy                -116.822589658940
  CCSD-T-F12a energy                 -116.821774425296
 !CCSD(T)-F12a total energy          -116.821995228600

 F12b corrections for ansatz F12/3C(FIX) added to CCSD(T)-F12a energy

  CCSD-F12b singlet pair energy        -0.378402136329
  CCSD-F12b triplet pair energy        -0.145741930692
  CCSD-F12b correlation energy         -0.524144066844

  Triples (T) contribution (scaled)    -0.016483231551
  Total correlation energy             -0.540627298395

  CCSD-F12b total energy             -116.797085164820
  CCSD[T]-F12b energy                -116.814162826711
  CCSD-T-F12b energy                 -116.813347593066
 !CCSD(T)-F12b total energy          -116.813568396371

 Timing summary (sec):

 STEP                 CPU(USER)    SYS     CPU(TOT)    WALL
 Transformation         23.66      0.76     24.42     24.45
 CCSD iterations       233.38      3.75    237.13    237.43
 Triples               218.41      0.75    219.16    219.48
 MP2-F12                30.52      0.95     31.47     31.53
 F12b energy            11.18      0.15     11.33     11.34

 Program statistics:

 Available memory in ccsd:              1999999554
 Min. memory needed in ccsd:               4597329
 Max. memory used in ccsd:                 5918289
 Max. memory used in cckext:               4231061 (17 integral passes)



 **********************************************************************************************************************************
 DATASETS  * FILE   NREC   LENGTH (MB)   RECORD NAMES
              1      19      398.06       500      610      700      900      950      970     1000      129      960     1100   
                                          VAR    BASINP    GEOM    SYMINP    ZMAT    AOBASIS   BASIS     P2S    ABASIS      S 
                                         1400     1410     1200     1210     1080     1600     1650     1700     1380   
                                           T        V       H0       H01     AOSYM     SMH    MOLCAS    OPER     JKOP   

              2       6        5.03       700     1000      520     2100     7360     7350   
                                         GEOM     BASIS   MCVARS     RHF    F12ABS    EF12   

 PROGRAMS   *        TOTAL   CCSD(T)    HF-SCF       INT
 CPU TIMES  *       547.54    517.36     14.65     15.30
 REAL TIME  *       562.78 SEC
 DISK USED  *       570.60 MB (local),        7.60 GB (total)
 SF USED    *         1.36 GB
 GA USED    *         4.87 MB       (max)       0.00 MB       (current)
 **********************************************************************************************************************************

 Running procedure: SET_MONOMER1

 Dummy atoms: C1  H41  H42  H43  H44


 Recomputing one-electron integrals since nuclear charges changed


 PROGRAM * SEWARD (Integral evaluation for generally contracted gaussian basis sets)     Author: Roland Lindh, 1990

 Geometry written to block  1 of record 700


 Point group  C1  



 ATOMIC COORDINATES

 NR  ATOM    CHARGE       X              Y              Z

   1  O13     8.00   -7.660382791    0.177823228    9.189360199
   2  H25     1.00   -6.870288298    1.893127632    9.251154243
   3  H26     1.00   -7.962738971   -0.267018301   10.932821521
   4  C1      0.00   -6.193010455    2.801518980    2.403542658
   5  H41     0.00   -4.656285171    1.699997622    3.119937832
   6  H42     0.00   -5.973046335    4.726205038    2.982932688
   7  H43     0.00   -7.940251230    2.077186956    3.118237078
   8  H44     0.00   -6.176569838    2.685300823    0.384937212

 Bond lengths in Bohr (Angstrom)

 1-2  1.889533542  1-3  1.824543951  4-5  2.021904040  4-6  2.022002335  4-7  2.021953343
     ( 0.999898090)     ( 0.965507079)     ( 1.069945541)     ( 1.069997556)     ( 1.069971630)

 4-8  2.022015060
     ( 1.070004290)

 Bond angles

  2-1-3  105.03277623   5-4-6  109.53398059   5-4-7  109.65604535   5-4-8  108.43490854

  6-4-7  109.49436728   6-4-8  109.86987750   7-4-8  109.83468330

 NUCLEAR CHARGE:                   10
 NUMBER OF PRIMITIVE AOS:         296
 NUMBER OF SYMMETRY AOS:          266
 NUMBER OF CONTRACTIONS:          230   (  230A   )
 NUMBER OF CORE ORBITALS:           1   (    1A   )
 NUMBER OF VALENCE ORBITALS:        6   (    6A   )

 MOLECULE CHANGED: INITIALIZING OCCUPATION AND DUMP RECORDS


 NUCLEAR REPULSION ENERGY    8.95777847

 Basis set:  JKFIT                   
 Basis size:   740
 Attributes:
 Sphericals:   T
 Basis set:  MP2FIT                  
 Basis size:   816
 Attributes:
 Sphericals:   T
 Basis set:  RI                      
 Basis size:   556
 Attributes:
 Sphericals:   T
 Basis set:  TDDFT                   
 Basis size:   816
 Attributes:
 Sphericals:   T

 Eigenvalues of metric

         1 0.580E-04 0.702E-04 0.986E-04 0.106E-03 0.331E-03 0.362E-03 0.646E-03 0.769E-03


 Contracted 2-electron integrals neglected if value below      1.0D-14

 OPERATOR DM      FOR CENTER  0  COORDINATES:    0.000000    0.000000    0.000000


 **********************************************************************************************************************************
 DATASETS  * FILE   NREC   LENGTH (MB)   RECORD NAMES
              1      18       32.04       500      610      700      900      950      970     1000      129      960     1100   
                                          VAR    BASINP    GEOM    SYMINP    ZMAT    AOBASIS   BASIS     P2S    ABASIS      S 
                                         1400     1410     1200     1210     1080     1600     1650     1700   
                                           T        V       H0       H01     AOSYM     SMH    MOLCAS    OPER   

              2       7        5.05       700     1000      520     2100     7360     7350      200   
                                         GEOM     BASIS   MCVARS     RHF    F12ABS    EF12    OPTIONS    

 PROGRAMS   *        TOTAL       INT   CCSD(T)    HF-SCF       INT
 CPU TIMES  *       547.77      0.21    517.36     14.65     15.30
 REAL TIME  *       563.56 SEC
 DISK USED  *       570.60 MB (local),        7.60 GB (total)
 SF USED    *         1.36 GB
 GA USED    *         4.87 MB       (max)       0.00 MB       (current)
 **********************************************************************************************************************************


 PROGRAM * RHF-SCF (CLOSED SHELL)       Authors: W. Meyer, H.-J. Werner


 NUMBER OF ELECTRONS:       5+    5-    SPACE SYMMETRY=1    SPIN SYMMETRY: Singlet 
 CONVERGENCE THRESHOLDS:    1.00E-08 (Density)    1.00E-11 (Energy)
 MAX. NUMBER OF ITERATIONS:       60
 INTERPOLATION TYPE:            DIIS
 INTERPOLATION STEPS:              2 (START)      1 (STEP)
 LEVEL SHIFTS:                  0.00 (CLOSED)  0.00 (OPEN) 



 Orbital guess generated from atomic densities. Full valence occupancy:    7

 Molecular orbital dump at record        2101.2

 Initial occupancy:   5

 ITERATION    DDIFF          GRAD             ENERGY        2-EL.EN.            DIPOLE MOMENTS         DIIS   ORB.
    1      0.000D+00      0.000D+00       -76.01879603     77.321444    0.25443    0.66008    0.91936    0    start
    2      0.000D+00      0.640D-02       -76.04549068     73.671019    0.14326    0.37415    0.53804    1    diag
    3      0.443D-02      0.411D-02       -76.05704145     75.288658    0.17005    0.44355    0.63413    2    diag
    4      0.161D-02      0.378D-03       -76.05723658     75.199075    0.16819    0.43922    0.63146    3    diag
    5      0.207D-03      0.107D-03       -76.05725768     75.213447    0.16746    0.43752    0.63050    4    diag
    6      0.662D-04      0.211D-04       -76.05725904     75.212512    0.16727    0.43709    0.63036    5    diag
    7      0.169D-04      0.422D-05       -76.05725911     75.212641    0.16721    0.43696    0.63030    6    diag
    8      0.442D-05      0.764D-06       -76.05725911     75.212625    0.16720    0.43693    0.63027    7    diag
    9      0.718D-06      0.997D-07       -76.05725911     75.212615    0.16720    0.43693    0.63027    8    diag
   10      0.847D-07      0.260D-07       -76.05725911     75.212618    0.16720    0.43693    0.63027    9    orth
   11      0.216D-07      0.600D-08       -76.05725911     75.212618    0.16720    0.43693    0.63027    9    diag
   12      0.593D-08      0.117D-08       -76.05725911     75.212618    0.16720    0.43693    0.63027    0    orth

 Final occupancy:   5

 !RHF STATE  1.1 Energy               -76.057259107176
 Nuclear energy                         8.95777847
 One-electron energy                 -122.62134664
 Two-electron energy                   37.60630907
 Virial quotient                       -1.00256457
 !RHF STATE  1.1 Dipole moment          0.16719995     0.43692758     0.63026673
 Dipole moment /Debye                   0.42495205     1.11048641     1.60187333

 Orbital energies:

         1.1          2.1          3.1          4.1          5.1          6.1          7.1
    -20.571318    -1.340746    -0.705168    -0.578949    -0.508184     0.022975     0.035764


 HOMO      5.1    -0.508184 =     -13.8284eV
 LUMO      6.1     0.022975 =       0.6252eV
 LUMO-HOMO         0.531159 =      14.4536eV


 **********************************************************************************************************************************
 DATASETS  * FILE   NREC   LENGTH (MB)   RECORD NAMES
              1      18       32.04       500      610      700      900      950      970     1000      129      960     1100   
                                          VAR    BASINP    GEOM    SYMINP    ZMAT    AOBASIS   BASIS     P2S    ABASIS      S 
                                         1400     1410     1200     1210     1080     1600     1650     1700   
                                           T        V       H0       H01     AOSYM     SMH    MOLCAS    OPER   

              2       8        9.09       700     1000      520     2100     7360     7350      200     2101   
                                         GEOM     BASIS   MCVARS     RHF    F12ABS    EF12    OPTIONS    RHF  

 PROGRAMS   *        TOTAL    HF-SCF       INT   CCSD(T)    HF-SCF       INT
 CPU TIMES  *       561.01     13.24      0.21    517.36     14.65     15.30
 REAL TIME  *       578.33 SEC
 DISK USED  *       570.60 MB (local),        7.60 GB (total)
 SF USED    *         1.36 GB
 GA USED    *         4.87 MB       (max)       0.00 MB       (current)
 **********************************************************************************************************************************

 Basis set:  JKFIT                   
 Basis size:   740
 Attributes:
 Sphericals:   T
 Basis set:  MP2FIT                  
 Basis size:   816
 Attributes:
 Sphericals:   T
 Basis set:  RI                      
 Basis size:   556
 Attributes:
 Sphericals:   T
 Basis set:  TDDFT                   
 Basis size:   816
 Attributes:
 Sphericals:   T

 PROGRAM * CCSD (Closed-shell coupled cluster)     Authors: C. Hampel, H.-J. Werner, 1991, M. Deegan, P.J. Knowles, 1992

                                  CCSD-F12 implementation by  H.-J. Werner, 2007

                   Density fitting integral evaluation by F.R. Manby, 2003,2007, G. Knizia, 2010



 Convergence thresholds:  THRVAR = 1.00D-08  THRDEN = 1.00D-10

 CCSD(T)     terms to be evaluated (factor= 1.000)


 Number of core orbitals:           1 (   1 )
 Number of closed-shell orbitals:   4 (   4 )
 Number of external orbitals:     225 ( 225 )

 Molecular orbitals read from record     2101.2  Type=RHF/CANONICAL (state 1.1)

 MP2-F12 correlation treatment (H.-J. Werner, 2006)
 ==================================================

 Using MP2-F12 with ansatz 3C(FIX)

 Using projected zeroth-order Hamiltonian (+Z)

 FOCKRIB=T FOCKRIC=T FOCKRIP=T CABSP=T CABSA=T CABSK=T CABSF=T GBC=F EBC=F DMAT=T NOFIK=T NOPAO=1 SOLVE=-1  USEPAO=0
 EXCH_A= T EXCH_B= F EXCH_C= F EXCH_P= F

 Geminal basis:    OPTFULL  GEM_TYPE=SLATER  BETA=1.0  NGEM=6

 Optimizing Gaussian exponents for each gem_beta

 Geminal optimization for beta= 1.0000
 Weight function:   m=0, omega= 1.4646

 Augmented Hessian optimization of geminal fit. Trust ratio= 0.40000
 Convergence reached after   2 iterations. Final gradient= 8.31D-16, Step= 4.24D-06, Delta= 1.28D-09

 Alpha:                 0.19532     0.81920     2.85917     9.50073    35.69989   197.79328
 Coeff:                 0.27070     0.30552     0.18297     0.10986     0.06810     0.04224


 All pairs explicitly correlated. Number of r12-pairs:           10

 Excluding core orbitals from MO domains

 AO(A)-basis ORBITAL           loaded. Number of functions:     230
 RI(R)-basis RI                loaded. Number of functions:     556
 DF-basis JKFIT                loaded. Number of functions:     740

 Screening thresholds:   THRAO=  1.00D-10  THRMO=  1.00D-09  THRPROD=  1.00D-09
                         THRSW=  1.00D-05  THROV=  1.00D-12  THRAOF12= 1.00D-10

 CPU time for Fock operators                      3.00 sec

 Construction of ABS:
 Smallest eigenvalue of S          1.13E-04  (threshold= 1.00E-08)
 Ratio eigmin/eigmax               1.61E-05  (threshold= 1.00E-09)
 Smallest eigenvalue of S kept     1.13E-04  (threshold= 1.13E-04, 0 functions deleted, 556 kept)

 Construction of CABS:
 Smallest eigenvalue of S          6.99E-07  (threshold= 1.00E-08)
 Ratio eigmin/eigmax               6.99E-07  (threshold= 1.00E-09)
 Smallest eigenvalue of S kept     6.99E-07  (threshold= 6.99E-07, 0 functions deleted, 556 kept)

 CPU time for CABS singles                        0.68 sec

 CABS-singles contribution of  -0.00146249 patched into reference energy.
 New reference energy         -76.05872160

 AO(A)-basis ORBITAL           loaded. Number of functions:     230
 RI(R)-basis RI                loaded. Number of functions:     556
 DF-basis MP2FIT               loaded. Number of functions:     816

 Screening thresholds:   THRAO=  1.00D-10  THRMO=  1.00D-09  THRPROD=  1.00D-09
                         THRSW=  1.00D-05  THROV=  1.00D-12  THRAOF12= 1.00D-10

 CPU time for 3-index integral evaluation         5.04 sec
 CPU time for first  half transformation          0.78 sec ( 1943.2 MFLOP/sec)
 CPU time for second half transformation          0.01 sec ( 1236.5 MFLOP/sec)
 CPU time for sorting                             0.03 sec
 CPU time for fitting                             0.32 sec ( 5605.7 MFLOP/sec)
 CPU time for tilde quantities                    0.38 sec ( 5526.6 MFLOP/sec)
 CPU time for assembly                            1.37 sec ( 4261.5 MFLOP/sec)
 CPU time for tranop_f12                          1.27 sec ( 3900.6 MFLOP/sec)
 CPU time for f12 integrals (total)              11.44 sec, Elapsed time:     11.78 sec
 F12-matrices built in  4 passes.
 F12-matrices built in  4 passes.
 F12-matrices built in  4 passes.
 F12-matrices built in  4 passes.
 FC-matrix built in  4 passes.
 CPU time for f12 matrices (total)                0.31 sec, Elapsed time:      0.32 sec

 Diagonal F12 approximation with fixed coefficients:  TSING= 0.500,  TTRIP= 0.250 (scaled by -1/beta)

 DF-MP2-F12 energy corrections:
 ==============================
 Approx.                                    Singlet             Triplet             Total
 DF-MP2-F12/3*C(DX,FIX)                -0.029508077403     -0.004865397514     -0.034373474916
 DF-MP2-F12/3*C(FIX)                   -0.024442361143     -0.003814612334     -0.028256973478
 DF-MP2-F12/3C(FIX)                    -0.024573623775     -0.003787107030     -0.028360730805

 DF-MP2-F12 correlation energies:
 ================================
 Approx.                                    Singlet             Triplet             Ecorr            Total Energy
 DF-MP2                                -0.172016827598     -0.098397033112     -0.270413860709    -76.329135460251
 DF-MP2-F12/3*C(DX,FIX)                -0.201524905000     -0.103262430625     -0.304787335626    -76.363508935167
 DF-MP2-F12/3*C(FIX)                   -0.196459188741     -0.102211645446     -0.298670834187    -76.357392433728
 DF-MP2-F12/3C(FIX)                    -0.196590451373     -0.102184140142     -0.298774591515    -76.357496191056

 SCS-DF-MP2 energies (F_SING= 1.20000  F_TRIP= 0.62222  F_PARALLEL= 0.33333):
 ============================================================================
 SCS-DF-MP2                            -0.267645013720    -76.326366613261
 SCS-DF-MP2-F12/3*C(DX,FIX)            -0.306082065056    -76.364803664597
 SCS-DF-MP2-F12/3*C(FIX)               -0.299349383656    -76.358070983197
 SCS-DF-MP2-F12/3C(FIX)                -0.299489784402    -76.358211383943
 Symmetry transformation completed.

 Number of N-1 electron functions:               4
 Number of N-2 electron functions:              10
 Number of singly external CSFs:               900
 Number of doubly external CSFs:            405450
 Total number of CSFs:                      406351

 Pair and operator lists are different

 Length of J-op  integral file:              81.60 MB
 Length of K-op  integral file:             128.10 MB
 Length of 3-ext integral record:             0.00 MB

 Memory could be reduced to 75.63 Mwords without degradation in triples

 Integral transformation finished. Total CPU:  12.21 sec, npass=  1  Memory used:  32.52 MW

 Reference energy:                    -76.05872160

 Adding F12 terms to K(Cij), methodcc=6,  factor= 1.0

 ITER.      SQ.NORM     CORR.ENERGY   TOTAL ENERGY   ENERGY CHANGE        DEN1      VAR(S)    VAR(P)  DIIS     TIME  TIME/IT
   1      1.06263216    -0.26997978   -76.32870138     0.00044199     0.00644195  0.80D-03  0.10D-02  1  1    33.06     3.89
   2      1.06611077    -0.26965965   -76.32838124     0.00032013    -0.00467600  0.14D-04  0.11D-03  2  2    36.87     3.94
   3      1.06738576    -0.26978482   -76.32850642    -0.00012518    -0.00084334  0.96D-05  0.61D-05  3  3    40.75     3.97
   4      1.06789481    -0.26982270   -76.32854430    -0.00003788    -0.00028377  0.41D-06  0.65D-06  4  4    44.55     3.98
   5      1.06798911    -0.26981943   -76.32854103     0.00000327    -0.00002805  0.15D-06  0.43D-07  5  5    48.40     3.99
   6      1.06802132    -0.26981732   -76.32853892     0.00000212    -0.00000470  0.13D-07  0.30D-08  6  6    52.28     3.99
   7      1.06802839    -0.26981690   -76.32853850     0.00000042    -0.00000146  0.11D-08  0.46D-09  6  1    56.06     3.99
   8      1.06802969    -0.26981699   -76.32853859    -0.00000009     0.00000012  0.15D-09  0.55D-10  6  2    59.90     3.99
   9      1.06803021    -0.26981700   -76.32853860    -0.00000001    -0.00000004  0.15D-10  0.77D-11  6  3    63.77     3.99
  10      1.06803028    -0.26981700   -76.32853860     0.00000001     0.00000002  0.30D-11  0.89D-12  6  4    67.58     3.99
  11      1.06803024    -0.26981700   -76.32853860    -0.00000000     0.00000004  0.51D-12  0.19D-12  6  6    71.50     3.99
  12      1.06803023    -0.26981700   -76.32853860     0.00000000     0.00000001  0.75D-13  0.25D-13  6  5    75.36     3.99
  13      1.06803022    -0.26981700   -76.32853860    -0.00000000     0.00000000  0.94D-14  0.34D-14  6  1    79.19     4.00
  14      1.06803022    -0.26981700   -76.32853860    -0.00000000     0.00000000  0.11D-14  0.68D-15  6  2    83.00     3.99
  15      1.06803022    -0.26981700   -76.32853860    -0.00000000    -0.00000000  0.11D-15  0.74D-16  6  3    86.84     3.99
  16      1.06803022    -0.26981700   -76.32853860     0.00000000    -0.00000000  0.14D-16  0.91D-17  6  4    90.66     3.99

 Norm of t1 vector:      0.03747093      S-energy:    -0.00000000      T1 diagnostic:  0.00936773
                                                                       D1 diagnostic:  0.01867607

 Adding energy correction from Wij-K(Fij), methodcc=6  factor= 1.0

  CCSD correlation energy              -0.269816999965
  MP2-F12 correction (uncoupled)       -0.028085006568
  C*T doubles correction               -0.000417498784
  f12b correction                       0.004764359457


 Total CPU time for triples:     34.77 sec

  Ecorr(MP2)                           -0.270421768382
  Ecorr(MP2-F12)                       -0.298782499187
  Scale factor for triples energy       1.104875916517


 RESULTS
 =======

  Reference energy                    -76.057259107177
  F12 singles correction               -0.001462492365

 F12 singles corrections added to reference energy

  New reference energy                -76.058721599541

  F12a singlet correction              -0.024645104852
  F12a triplet correction              -0.003857400500
  F12a total correction                -0.028502505352

 F12a corrections for ansatz F12/3C(FIX) added to CCSD energy

  CCSD-F12a singlet pair energy        -0.207689926352
  CCSD-F12a triplet pair energy        -0.090629578885
  CCSD-F12a correlation energy         -0.298319505317

  Triples (T) contribution (scaled)    -0.009591272283
  Total correlation energy             -0.307910777600

  CCSD-F12a total energy              -76.357041104858
  CCSD[T]-F12a energy                 -76.366985215171
  CCSD-T-F12a energy                  -76.366487099275
 !CCSD(T)-F12a total energy           -76.366632377141

 F12b corrections for ansatz F12/3C(FIX) added to CCSD(T)-F12a energy

  CCSD-F12b singlet pair energy        -0.203284087057
  CCSD-F12b triplet pair energy        -0.090271058724
  CCSD-F12b correlation energy         -0.293555145860

  Triples (T) contribution (scaled)    -0.009591272283
  Total correlation energy             -0.303146418143

  CCSD-F12b total energy              -76.352276745401
  CCSD[T]-F12b energy                 -76.362220855713
  CCSD-T-F12b energy                  -76.361722739818
 !CCSD(T)-F12b total energy           -76.361868017684

 Timing summary (sec):

 STEP                 CPU(USER)    SYS     CPU(TOT)    WALL
 Transformation         12.27      0.50     12.77     12.78
 CCSD iterations        61.33      2.42     63.75     63.89
 Triples                34.77      0.17     34.94     34.99
 MP2-F12                17.08      0.39     17.47     17.50
 F12b energy             3.26      0.10      3.36      3.36

 Program statistics:

 Available memory in ccsd:              1999999871
 Min. memory needed in ccsd:               1862772
 Max. memory used in ccsd:                 2158322
 Max. memory used in cckext:               1445635 (17 integral passes)



 **********************************************************************************************************************************
 DATASETS  * FILE   NREC   LENGTH (MB)   RECORD NAMES
              1      19      222.31       500      610      700      900      950      970     1000      129      960     1100   
                                          VAR    BASINP    GEOM    SYMINP    ZMAT    AOBASIS   BASIS     P2S    ABASIS      S 
                                         1400     1410     1200     1210     1080     1600     1650     1700     1380   
                                           T        V       H0       H01     AOSYM     SMH    MOLCAS    OPER     JKOP   

              2       8        9.09       700     1000      520     2100     7360     7350      200     2101   
                                         GEOM     BASIS   MCVARS     RHF    F12ABS    EF12    OPTIONS    RHF  

 PROGRAMS   *        TOTAL   CCSD(T)    HF-SCF       INT   CCSD(T)    HF-SCF       INT
 CPU TIMES  *       689.95    128.94     13.24      0.21    517.36     14.65     15.30
 REAL TIME  *       711.65 SEC
 DISK USED  *       570.60 MB (local),        7.60 GB (total)
 SF USED    *         1.36 GB
 GA USED    *         4.87 MB       (max)       0.00 MB       (current)
 **********************************************************************************************************************************

 Running procedure: SET_MONOMER2

 Dummy atoms: O13  H25  H26


 Recomputing one-electron integrals since nuclear charges changed


 PROGRAM * SEWARD (Integral evaluation for generally contracted gaussian basis sets)     Author: Roland Lindh, 1990

 Geometry written to block  1 of record 700


 Point group  C1  



 ATOMIC COORDINATES

 NR  ATOM    CHARGE       X              Y              Z

   1  O13     0.00   -7.660382791    0.177823228    9.189360199
   2  H25     0.00   -6.870288298    1.893127632    9.251154243
   3  H26     0.00   -7.962738971   -0.267018301   10.932821521
   4  C1      6.00   -6.193010455    2.801518980    2.403542658
   5  H41     1.00   -4.656285171    1.699997622    3.119937832
   6  H42     1.00   -5.973046335    4.726205038    2.982932688
   7  H43     1.00   -7.940251230    2.077186956    3.118237078
   8  H44     1.00   -6.176569838    2.685300823    0.384937212

 Bond lengths in Bohr (Angstrom)

 1-2  1.889533542  1-3  1.824543951  4-5  2.021904040  4-6  2.022002335  4-7  2.021953343
     ( 0.999898090)     ( 0.965507079)     ( 1.069945541)     ( 1.069997556)     ( 1.069971630)

 4-8  2.022015060
     ( 1.070004290)

 Bond angles

  2-1-3  105.03277623   5-4-6  109.53398059   5-4-7  109.65604535   5-4-8  108.43490854

  6-4-7  109.49436728   6-4-8  109.86987750   7-4-8  109.83468330

 NUCLEAR CHARGE:                   10
 NUMBER OF PRIMITIVE AOS:         296
 NUMBER OF SYMMETRY AOS:          266
 NUMBER OF CONTRACTIONS:          230   (  230A   )
 NUMBER OF CORE ORBITALS:           1   (    1A   )
 NUMBER OF VALENCE ORBITALS:        8   (    8A   )

 MOLECULE CHANGED: INITIALIZING OCCUPATION AND DUMP RECORDS


 NUCLEAR REPULSION ENERGY   13.68681606

 Basis set:  JKFIT                   
 Basis size:   740
 Attributes:
 Sphericals:   T
 Basis set:  MP2FIT                  
 Basis size:   816
 Attributes:
 Sphericals:   T
 Basis set:  RI                      
 Basis size:   556
 Attributes:
 Sphericals:   T
 Basis set:  TDDFT                   
 Basis size:   816
 Attributes:
 Sphericals:   T

 Eigenvalues of metric

         1 0.580E-04 0.702E-04 0.986E-04 0.106E-03 0.331E-03 0.362E-03 0.646E-03 0.769E-03


 Contracted 2-electron integrals neglected if value below      1.0D-14

 OPERATOR DM      FOR CENTER  0  COORDINATES:    0.000000    0.000000    0.000000


 **********************************************************************************************************************************
 DATASETS  * FILE   NREC   LENGTH (MB)   RECORD NAMES
              1      18       32.04       500      610      700      900      950      970     1000      129      960     1100   
                                          VAR    BASINP    GEOM    SYMINP    ZMAT    AOBASIS   BASIS     P2S    ABASIS      S 
                                         1400     1410     1200     1210     1080     1600     1650     1700   
                                           T        V       H0       H01     AOSYM     SMH    MOLCAS    OPER   

              2       8        9.09       700     1000      520     2100     7360     7350      200     2101   
                                         GEOM     BASIS   MCVARS     RHF    F12ABS    EF12    OPTIONS    RHF  

 PROGRAMS   *        TOTAL       INT   CCSD(T)    HF-SCF       INT   CCSD(T)    HF-SCF       INT
 CPU TIMES  *       690.19      0.23    128.94     13.24      0.21    517.36     14.65     15.30
 REAL TIME  *       712.39 SEC
 DISK USED  *       570.60 MB (local),        7.60 GB (total)
 SF USED    *         1.36 GB
 GA USED    *         4.87 MB       (max)       0.00 MB       (current)
 **********************************************************************************************************************************


 PROGRAM * RHF-SCF (CLOSED SHELL)       Authors: W. Meyer, H.-J. Werner


 NUMBER OF ELECTRONS:       5+    5-    SPACE SYMMETRY=1    SPIN SYMMETRY: Singlet 
 CONVERGENCE THRESHOLDS:    1.00E-08 (Density)    1.00E-11 (Energy)
 MAX. NUMBER OF ITERATIONS:       60
 INTERPOLATION TYPE:            DIIS
 INTERPOLATION STEPS:              2 (START)      1 (STEP)
 LEVEL SHIFTS:                  0.00 (CLOSED)  0.00 (OPEN) 



 Orbital guess generated from atomic densities. Full valence occupancy:    9

 Molecular orbital dump at record        2102.2

 Initial occupancy:   5

 ITERATION    DDIFF          GRAD             ENERGY        2-EL.EN.            DIPOLE MOMENTS         DIIS   ORB.
    1      0.000D+00      0.000D+00       -40.19358811     53.494045    0.00411   -0.00275   -0.00132    0    start
    2      0.000D+00      0.353D-02       -40.21070545     52.213684    0.00130   -0.00086   -0.00040    1    diag
    3      0.324D-02      0.137D-02       -40.21295391     52.664857    0.00183   -0.00122   -0.00056    2    diag
    4      0.912D-03      0.342D-03       -40.21326937     52.609830    0.00163   -0.00108   -0.00049    3    diag
    5      0.300D-03      0.444D-04       -40.21327476     52.612168    0.00160   -0.00106   -0.00048    4    diag
    6      0.754D-04      0.344D-05       -40.21327480     52.612266    0.00160   -0.00106   -0.00048    5    diag
    7      0.645D-05      0.264D-06       -40.21327480     52.612232    0.00160   -0.00106   -0.00048    6    diag
    8      0.957D-06      0.221D-07       -40.21327480     52.612232    0.00160   -0.00106   -0.00048    7    diag
    9      0.190D-06      0.286D-08       -40.21327480     52.612232    0.00160   -0.00106   -0.00048    8    diag
   10      0.119D-07      0.799D-09       -40.21327480     52.612232    0.00160   -0.00106   -0.00048    9    orth
   11      0.115D-08      0.106D-09       -40.21327480     52.612232    0.00160   -0.00106   -0.00048    0    orth

 Final occupancy:   5

 !RHF STATE  1.1 Energy               -40.213274800358
 Nuclear energy                        13.68681606
 One-electron energy                  -80.20620695
 Two-electron energy                   26.30611610
 Virial quotient                       -0.99870126
 !RHF STATE  1.1 Dipole moment          0.00159582    -0.00106223    -0.00048276
 Dipole moment /Debye                   0.00405590    -0.00269974    -0.00122697

 Orbital energies:

         1.1          2.1          3.1          4.1          5.1          6.1          7.1
    -11.197209    -0.950742    -0.551695    -0.549760    -0.547581     0.026358     0.039148


 HOMO      5.1    -0.547581 =     -14.9004eV
 LUMO      6.1     0.026358 =       0.7172eV
 LUMO-HOMO         0.573939 =      15.6177eV


 **********************************************************************************************************************************
 DATASETS  * FILE   NREC   LENGTH (MB)   RECORD NAMES
              1      18       32.04       500      610      700      900      950      970     1000      129      960     1100   
                                          VAR    BASINP    GEOM    SYMINP    ZMAT    AOBASIS   BASIS     P2S    ABASIS      S 
                                         1400     1410     1200     1210     1080     1600     1650     1700   
                                           T        V       H0       H01     AOSYM     SMH    MOLCAS    OPER   

              2       9       13.71       700     1000      520     2100     7360     7350      200     2101     2102   
                                         GEOM     BASIS   MCVARS     RHF    F12ABS    EF12    OPTIONS    RHF      RHF  

 PROGRAMS   *        TOTAL    HF-SCF       INT   CCSD(T)    HF-SCF       INT   CCSD(T)    HF-SCF       INT
 CPU TIMES  *       702.53     12.34      0.23    128.94     13.24      0.21    517.36     14.65     15.30
 REAL TIME  *       726.03 SEC
 DISK USED  *       570.60 MB (local),        7.60 GB (total)
 SF USED    *         1.36 GB
 GA USED    *         4.87 MB       (max)       0.00 MB       (current)
 **********************************************************************************************************************************

 Basis set:  JKFIT                   
 Basis size:   740
 Attributes:
 Sphericals:   T
 Basis set:  MP2FIT                  
 Basis size:   816
 Attributes:
 Sphericals:   T
 Basis set:  RI                      
 Basis size:   556
 Attributes:
 Sphericals:   T
 Basis set:  TDDFT                   
 Basis size:   816
 Attributes:
 Sphericals:   T

 PROGRAM * CCSD (Closed-shell coupled cluster)     Authors: C. Hampel, H.-J. Werner, 1991, M. Deegan, P.J. Knowles, 1992

                                  CCSD-F12 implementation by  H.-J. Werner, 2007

                   Density fitting integral evaluation by F.R. Manby, 2003,2007, G. Knizia, 2010



 Convergence thresholds:  THRVAR = 1.00D-08  THRDEN = 1.00D-10

 CCSD(T)     terms to be evaluated (factor= 1.000)


 Number of core orbitals:           1 (   1 )
 Number of closed-shell orbitals:   4 (   4 )
 Number of external orbitals:     225 ( 225 )

 Molecular orbitals read from record     2102.2  Type=RHF/CANONICAL (state 1.1)

 MP2-F12 correlation treatment (H.-J. Werner, 2006)
 ==================================================

 Using MP2-F12 with ansatz 3C(FIX)

 Using projected zeroth-order Hamiltonian (+Z)

 FOCKRIB=T FOCKRIC=T FOCKRIP=T CABSP=T CABSA=T CABSK=T CABSF=T GBC=F EBC=F DMAT=T NOFIK=T NOPAO=1 SOLVE=-1  USEPAO=0
 EXCH_A= T EXCH_B= F EXCH_C= F EXCH_P= F

 Geminal basis:    OPTFULL  GEM_TYPE=SLATER  BETA=1.0  NGEM=6

 Optimizing Gaussian exponents for each gem_beta

 Geminal optimization for beta= 1.0000
 Weight function:   m=0, omega= 1.4646

 Augmented Hessian optimization of geminal fit. Trust ratio= 0.40000
 Convergence reached after   2 iterations. Final gradient= 7.85D-16, Step= 4.26D-06, Delta= 1.28D-09

 Alpha:                 0.19532     0.81920     2.85917     9.50073    35.69989   197.79328
 Coeff:                 0.27070     0.30552     0.18297     0.10986     0.06810     0.04224


 All pairs explicitly correlated. Number of r12-pairs:           10

 Excluding core orbitals from MO domains

 AO(A)-basis ORBITAL           loaded. Number of functions:     230
 RI(R)-basis RI                loaded. Number of functions:     556
 DF-basis JKFIT                loaded. Number of functions:     740

 Screening thresholds:   THRAO=  1.00D-10  THRMO=  1.00D-09  THRPROD=  1.00D-09
                         THRSW=  1.00D-05  THROV=  1.00D-12  THRAOF12= 1.00D-10

 CPU time for Fock operators                      3.10 sec

 Construction of ABS:
 Smallest eigenvalue of S          1.13E-04  (threshold= 1.00E-08)
 Ratio eigmin/eigmax               1.61E-05  (threshold= 1.00E-09)
 Smallest eigenvalue of S kept     1.13E-04  (threshold= 1.13E-04, 0 functions deleted, 556 kept)

 Construction of CABS:
 Smallest eigenvalue of S          6.99E-07  (threshold= 1.00E-08)
 Ratio eigmin/eigmax               6.99E-07  (threshold= 1.00E-09)
 Smallest eigenvalue of S kept     6.99E-07  (threshold= 6.99E-07, 0 functions deleted, 556 kept)

 CPU time for CABS singles                        0.68 sec

 CABS-singles contribution of  -0.00091013 patched into reference energy.
 New reference energy         -40.21418493

 AO(A)-basis ORBITAL           loaded. Number of functions:     230
 RI(R)-basis RI                loaded. Number of functions:     556
 DF-basis MP2FIT               loaded. Number of functions:     816

 Screening thresholds:   THRAO=  1.00D-10  THRMO=  1.00D-09  THRPROD=  1.00D-09
                         THRSW=  1.00D-05  THROV=  1.00D-12  THRAOF12= 1.00D-10

 CPU time for 3-index integral evaluation         5.14 sec
 CPU time for first  half transformation          0.66 sec ( 2253.8 MFLOP/sec)
 CPU time for sorting                             0.02 sec
 CPU time for fitting                             0.39 sec ( 4616.6 MFLOP/sec)
 CPU time for tilde quantities                    0.36 sec ( 5852.1 MFLOP/sec)
 CPU time for assembly                            1.37 sec ( 4198.5 MFLOP/sec)
 CPU time for tranop_f12                          1.26 sec ( 4095.4 MFLOP/sec)
 CPU time for f12 integrals (total)              11.53 sec, Elapsed time:     11.89 sec
 F12-matrices built in  4 passes.
 F12-matrices built in  4 passes.
 F12-matrices built in  4 passes.
 F12-matrices built in  4 passes.
 FC-matrix built in  4 passes.
 CPU time for f12 matrices (total)                0.30 sec, Elapsed time:      0.31 sec

 Diagonal F12 approximation with fixed coefficients:  TSING= 0.500,  TTRIP= 0.250 (scaled by -1/beta)

 DF-MP2-F12 energy corrections:
 ==============================
 Approx.                                    Singlet             Triplet             Total
 DF-MP2-F12/3*C(DX,FIX)                -0.016713108696     -0.001928458536     -0.018641567233
 DF-MP2-F12/3*C(FIX)                   -0.015475286452     -0.001786784590     -0.017262071041
 DF-MP2-F12/3C(FIX)                    -0.015459897537     -0.001777628567     -0.017237526105

 DF-MP2-F12 correlation energies:
 ================================
 Approx.                                    Singlet             Triplet             Ecorr            Total Energy
 DF-MP2                                -0.145432592620     -0.055064749020     -0.200497341640    -40.414682270062
 DF-MP2-F12/3*C(DX,FIX)                -0.162145701316     -0.056993207557     -0.219138908872    -40.433323837294
 DF-MP2-F12/3*C(FIX)                   -0.160907879071     -0.056851533610     -0.217759412681    -40.431944341103
 DF-MP2-F12/3C(FIX)                    -0.160892490157     -0.056842377587     -0.217734867744    -40.431919796166

 SCS-DF-MP2 energies (F_SING= 1.20000  F_TRIP= 0.62222  F_PARALLEL= 0.33333):
 ============================================================================
 SCS-DF-MP2                            -0.208781621645    -40.422966550067
 SCS-DF-MP2-F12/3*C(DX,FIX)            -0.230037281837    -40.444222210258
 SCS-DF-MP2-F12/3*C(FIX)               -0.228463742465    -40.442648670887
 SCS-DF-MP2-F12/3C(FIX)                -0.228439578687    -40.442624507109
 Symmetry transformation completed.

 Number of N-1 electron functions:               4
 Number of N-2 electron functions:              10
 Number of singly external CSFs:               900
 Number of doubly external CSFs:            405450
 Total number of CSFs:                      406351

 Pair and operator lists are different

 Length of J-op  integral file:              81.60 MB
 Length of K-op  integral file:             128.10 MB
 Length of 3-ext integral record:             0.00 MB

 Memory could be reduced to 75.63 Mwords without degradation in triples

 Integral transformation finished. Total CPU:  12.24 sec, npass=  1  Memory used:  32.52 MW

 Reference energy:                    -40.21418493

 Adding F12 terms to K(Cij), methodcc=6,  factor= 1.0

 ITER.      SQ.NORM     CORR.ENERGY   TOTAL ENERGY   ENERGY CHANGE        DEN1      VAR(S)    VAR(P)  DIIS     TIME  TIME/IT
   1      1.06945926    -0.21556634   -40.42975127    -0.01505904    -0.00938263  0.67D-03  0.94D-03  1  1    33.28     3.91
   2      1.07448677    -0.21613380   -40.43031873    -0.00056746    -0.00524373  0.17D-04  0.83D-04  2  2    37.12     3.96
   3      1.07589374    -0.21628879   -40.43047372    -0.00015499    -0.00097866  0.20D-05  0.51D-05  3  3    40.95     3.97
   4      1.07623188    -0.21630115   -40.43048608    -0.00001236    -0.00017403  0.10D-06  0.25D-06  4  4    44.82     3.97
   5      1.07627657    -0.21629988   -40.43048481     0.00000127    -0.00000981  0.77D-08  0.16D-07  5  5    48.69     3.98
   6      1.07628242    -0.21629889   -40.43048382     0.00000099    -0.00000186  0.56D-09  0.12D-08  6  6    52.55     3.98
   7      1.07628355    -0.21629858   -40.43048350     0.00000031    -0.00000072  0.38D-10  0.94D-10  6  1    56.37     3.98
   8      1.07628357    -0.21629868   -40.43048361    -0.00000011     0.00000013  0.37D-11  0.53D-11  6  3    60.21     3.98
   9      1.07628367    -0.21629867   -40.43048360     0.00000002    -0.00000007  0.30D-12  0.46D-12  6  2    64.06     3.98
  10      1.07628368    -0.21629867   -40.43048359     0.00000000     0.00000000  0.35D-13  0.47D-13  6  4    67.89     3.98
  11      1.07628368    -0.21629866   -40.43048359     0.00000000     0.00000000  0.26D-14  0.48D-14  6  5    71.71     3.98
  12      1.07628367    -0.21629866   -40.43048359     0.00000000     0.00000000  0.55D-16  0.57D-15  6  6    75.60     3.99
  13      1.07628367    -0.21629866   -40.43048359    -0.00000000     0.00000000  0.76D-17  0.64D-16  6  1    79.44     3.99
  14      1.07628367    -0.21629866   -40.43048359    -0.00000000     0.00000000  0.14D-17  0.79D-17  6  3    83.28     3.99

 Norm of t1 vector:      0.03361828      S-energy:     0.00000000      T1 diagnostic:  0.00840457
                                                                       D1 diagnostic:  0.01339614

 Adding energy correction from Wij-K(Fij), methodcc=6  factor= 1.0

  CCSD correlation energy              -0.216298663692
  MP2-F12 correction (uncoupled)       -0.017250463435
  C*T doubles correction               -0.000193255929
  f12b correction                       0.003656197956

 Total CPU time for triples:     34.24 sec

  Ecorr(MP2)                           -0.200507302683
  Ecorr(MP2-F12)                       -0.217744828787
  Scale factor for triples energy       1.085969567562


 RESULTS
 =======

  Reference energy                    -40.213274800358
  F12 singles correction               -0.000910128064

 F12 singles corrections added to reference energy

  New reference energy                -40.214184928422

  F12a singlet correction              -0.015640168153
  F12a triplet correction              -0.001803551212
  F12a total correction                -0.017443719365

 F12a corrections for ansatz F12/3C(FIX) added to CCSD energy

  CCSD-F12a singlet pair energy        -0.178525710835
  CCSD-F12a triplet pair energy        -0.055216672247
  CCSD-F12a correlation energy         -0.233742383057

  Triples (T) contribution (scaled)    -0.006800790177
  Total correlation energy             -0.240543173234

  CCSD-F12a total energy              -40.447927311479
  CCSD[T]-F12a energy                 -40.454967286834
  CCSD-T-F12a energy                  -40.454653322949
 !CCSD(T)-F12a total energy           -40.454728101655

 F12b corrections for ansatz F12/3C(FIX) added to CCSD(T)-F12a energy

  CCSD-F12b singlet pair energy        -0.175040564527
  CCSD-F12b triplet pair energy        -0.055045620599
  CCSD-F12b correlation energy         -0.230086185101

  Triples (T) contribution (scaled)    -0.006800790177
  Total correlation energy             -0.236886975277

  CCSD-F12b total energy              -40.444271113522
  CCSD[T]-F12b energy                 -40.451311088878
  CCSD-T-F12b energy                  -40.450997124993
 !CCSD(T)-F12b total energy           -40.451071903699

 Timing summary (sec):

 STEP                 CPU(USER)    SYS     CPU(TOT)    WALL
 Transformation         12.28      0.38     12.66     12.68
 CCSD iterations        53.80      2.00     55.80     55.86
 Triples                34.24      0.15     34.39     34.44
 MP2-F12                17.21      0.41     17.62     17.64
 F12b energy             3.28      0.09      3.37      3.37

 Program statistics:

 Available memory in ccsd:              1999999866
 Min. memory needed in ccsd:               1862772
 Max. memory used in ccsd:                 2158322
 Max. memory used in cckext:               1445635 (15 integral passes)



 **********************************************************************************************************************************
 DATASETS  * FILE   NREC   LENGTH (MB)   RECORD NAMES
              1      19      222.31       500      610      700      900      950      970     1000      129      960     1100   
                                          VAR    BASINP    GEOM    SYMINP    ZMAT    AOBASIS   BASIS     P2S    ABASIS      S 
                                         1400     1410     1200     1210     1080     1600     1650     1700     1380   
                                           T        V       H0       H01     AOSYM     SMH    MOLCAS    OPER     JKOP   

              2       9       13.71       700     1000      520     2100     7360     7350      200     2101     2102   
                                         GEOM     BASIS   MCVARS     RHF    F12ABS    EF12    OPTIONS    RHF      RHF  

 PROGRAMS   *        TOTAL   CCSD(T)    HF-SCF       INT   CCSD(T)    HF-SCF       INT   CCSD(T)    HF-SCF       INT
 CPU TIMES  *       823.59    121.05     12.34      0.23    128.94     13.24      0.21    517.36     14.65     15.30
 REAL TIME  *       850.78 SEC
 DISK USED  *       570.60 MB (local),        7.60 GB (total)
 SF USED    *         1.36 GB
 GA USED    *         4.87 MB       (max)       0.00 MB       (current)
 **********************************************************************************************************************************
 Molecular orbitals read from record     2102.2  Type=RHF/CANONICAL (state 1.1)
 Occupation numbers read from record     2102.2  Type=RHF/RHF (state 1.1)
 Orbital energies read from record       2102.2  Type=RHF/CANONICAL (state 1.1)
 Redundancy group numbers read from rec  2102.2  Type=RHF/RHF (state 1.1)

 CCSD(T)-F12/aug-cc-pVTZ energy=    -40.451071903699

     CCSD(T)-F12          HF-SCF     CCSD(T)-F12          HF-SCF     CCSD(T)-F12          HF-SCF
    -40.45107190    -40.21327480    -76.36186802    -76.05725911   -116.81356840   -116.27056981
 **********************************************************************************************************************************
 Molpro calculation terminated
