
 Primary working directories    : /scratch/klimes/383163/molpro.hGteD82ihu
 Secondary working directories  : /scratch/klimes/383163/molpro.hGteD82ihu
 Wavefunction directory         : /scratch/klimes/383163/
 Main file repository           : /scratch/klimes/383163/molpro.hGteD82ihu/

 id        : karlovklimes

 Nodes                      nprocs
 nc-02.cc.karlov.mff.cuni.cz    4

 Using customized tuning parameters: mindgm=1; mindgv=20; mindgc=4; mindgr=1; noblas=0; minvec=7
 default implementation of scratch files=sf  


 Variables initialized (930), CPU time= 0.01 sec
                                                                                 !gdirect
 memory,2000,m
 gthresh,orbital=1d-10,energy=1d-10,grid=1d-8
 
 symmetry,nosym
 angstrom
 geometry={
 O14        -4.369600000000      4.555200000000     -0.937800000000
 H27        -4.635300000000      5.332600000000     -1.445500000000
 H28        -5.213600000000      4.102600000000     -0.695700000000
 C1        -3.277200000000      1.482500000000      1.271900000000
 H41        -2.464000000000      0.899600000000      1.651000000000
 H42        -3.160800000000      2.501000000000      1.578500000000
 H43        -4.201800000000      1.099200000000      1.650100000000
 H44        -3.268500000000      1.421000000000      0.203700000000
 }
 
 nkerna=1
 nkernb=1
 
 gf=0
 sing=1
 thrdum=1d-4
 gridthr=1d-8
 
 basis={
 set,orbital
 default,avtz
 set,jkfit
 default,avqz/jkfit
 set,mp2fit
 default,avqz/mp2fit
 set,ri
 default,avqz/optri
 set,tddft
 default,avqz/mp2fit
 }
 
 proc set_monomer1
 dummy,4,5,6,7,8
 endproc
 
 proc set_monomer2
 dummy,1,2,3
 endproc
 
                                                                                 !12 energy
 {hf,accu=1.d-16}
 {ccsd(t)-f12,df_basis=mp2fit,df_basis_exch=jkfit,ri_basis=ri,scale_trip=1,THRAOF12=1d-10}
 
 set_monomer1
 {hf,accu=1.d-16}
 {ccsd(t)-f12,df_basis=mp2fit,df_basis_exch=jkfit,ri_basis=ri,scale_trip=1,THRAOF12=1d-10}
 
 set_monomer2
 {hf,accu=1.d-16}
 {ccsd(t)-f12,df_basis=mp2fit,df_basis_exch=jkfit,ri_basis=ri,scale_trip=1,THRAOF12=1d-10}
 
 Commands  initialized (760), CPU time= 0.02 sec, 617 directives.
 Default parameters read. Elapsed time= 0.23 sec

 Checking input...
 Passed
1


                                         ***  PROGRAM SYSTEM MOLPRO  ***
                                       Copyright, TTI GmbH Stuttgart, 2015
                                    Version 2019.1 linked Jan 14 2019 13:09:19


 **********************************************************************************************************************************
 LABEL *                                                                                 
  64 bit mpp version                                                                     DATE: 11-Mar-20          TIME: 16:19:53  
 **********************************************************************************************************************************

 SHA1:             d688ac825633d238f2093ded1675ba87ccd55965
 **********************************************************************************************************************************

 THRESHOLDS:

 ZERO    =  1.00D-12  ONEINT  =  1.00D-12  TWOINT  =  1.00D-11  PREFAC  =  1.00D-14  XXXXXX  =  1.00D-09  EORDER  =  1.00D-04
 ENERGY  =  1.00D-10  ETEST   =  0.00D+00  EDENS   =  0.00D+00  THRDEDEF=  1.00D-06  GRADIENT=  1.00D-02  STEP    =  1.00D-03
 ORBITAL =  1.00D-10  CIVEC   =  1.00D-05  COEFF   =  1.00D-04  PRINTCI =  5.00D-02  PUNCHCI =  9.90D+01  OPTGRAD =  3.00D-04
 OPTENERG=  1.00D-06  OPTSTEP =  3.00D-04  THRGRAD =  1.00D-10  COMPRESS=  1.00D-11  VARMIN  =  1.00D-07  VARMAX  =  1.00D-03
 THRDOUB =  0.00D+00  THRDIV  =  1.00D-05  THRRED  =  1.00D-07  THRPSP  =  1.00D+00  THRDC   =  1.00D-10  THRCS   =  1.00D-10
 THRNRM  =  1.00D-08  THREQ   =  0.00D+00  THRDE   =  1.00D+00  THRREF  =  1.00D-05  SPARFAC =  1.00D+00  THRDLP  =  1.00D-07
 THRDIA  =  1.00D-10  THRDLS  =  1.00D-07  THRGPS  =  0.00D+00  THRKEX  =  0.00D+00  THRDIS  =  2.00D-01  THRVAR  =  1.00D-10
 THRLOC  =  1.00D-06  THRGAP  =  1.00D-06  THRLOCT = -1.00D+00  THRGAPT = -1.00D+00  THRORB  =  1.00D-06  THRMLTP =  0.00D+00
 THRCPQCI=  1.00D-10  KEXTA   =  0.00D+00  THRCOARS=  0.00D+00  SYMTOL  =  1.00D-06  GRADTOL =  1.00D-06  THROVL  =  1.00D-08
 THRORTH =  1.00D-08  GRID    =  1.00D-08  GRIDMAX =  1.00D-03  DTMAX   =  0.00D+00  THROCCDE=  1.00D-01  THROCCDE=  1.00D-01
 THRPRINT=  2.50D-01


 Variable memory set to 2000000000 words,  buffer space 

 ZSYMEL=NOSYM
 ZUNIT=ANG


Geometry recognized as XYZ

 SETTING NKERNA         =         1.00000000                                  
 SETTING NKERNB         =         1.00000000                                  
 SETTING GF             =     0.00000000D+00                                  
 SETTING SING           =         1.00000000                                  
 SETTING THRDUM         =     1.00000000D-04                                  
 SETTING GRIDTHR        =     1.00000000D-08                                  
 SETTING BASIS          =    AVTZ


 Recomputing integrals since basis changed


 Using spherical harmonics

 Library entry O      S aug-cc-pVTZ          selected for orbital group  1
 Library entry O      P aug-cc-pVTZ          selected for orbital group  1
 Library entry O      D aug-cc-pVTZ          selected for orbital group  1
 Library entry O      F aug-cc-pVTZ          selected for orbital group  1
 Library entry H      S aug-cc-pVTZ          selected for orbital group  2
 Library entry H      P aug-cc-pVTZ          selected for orbital group  2
 Library entry H      D aug-cc-pVTZ          selected for orbital group  2
 Library entry C      S aug-cc-pVTZ          selected for orbital group  3
 Library entry C      P aug-cc-pVTZ          selected for orbital group  3
 Library entry C      D aug-cc-pVTZ          selected for orbital group  3
 Library entry C      F aug-cc-pVTZ          selected for orbital group  3


 PROGRAM * SEWARD (Integral evaluation for generally contracted gaussian basis sets)     Author: Roland Lindh, 1990

 Geometry written to block  1 of record 700


 Point group  C1  



 ATOMIC COORDINATES

 NR  ATOM    CHARGE       X              Y              Z

   1  O14     8.00   -8.257347274    8.608080443   -1.772185160
   2  H27     1.00   -8.759447505   10.077153532   -2.731599113
   3  H28     1.00   -9.852276123    7.752790399   -1.314682465
   4  C1      6.00   -6.193010455    2.801518980    2.403542658
   5  H41     1.00   -4.656285171    1.699997622    3.119937832
   6  H42     1.00   -5.973046335    4.726205038    2.982932688
   7  H43     1.00   -7.940251230    2.077186956    3.118237078
   8  H44     1.00   -6.176569838    2.685300823    0.384937212

 Bond lengths in Bohr (Angstrom)

 1-2  1.825035758  1-3  1.866715781  4-5  2.021904040  4-6  2.022002335  4-7  2.021953343
     ( 0.965767332)     ( 0.987823451)     ( 1.069945541)     ( 1.069997556)     ( 1.069971630)

 4-8  2.022015060
     ( 1.070004290)

 Bond angles

  2-1-3  105.22390814   5-4-6  109.53398059   5-4-7  109.65604535   5-4-8  108.43490854

  6-4-7  109.49436728   6-4-8  109.86987750   7-4-8  109.83468330

 NUCLEAR CHARGE:                   20
 NUMBER OF PRIMITIVE AOS:         296
 NUMBER OF SYMMETRY AOS:          266
 NUMBER OF CONTRACTIONS:          230   (  230A   )
 NUMBER OF CORE ORBITALS:           2   (    2A   )
 NUMBER OF VALENCE ORBITALS:       14   (   14A   )


 NUCLEAR REPULSION ENERGY   35.88393783


 Basis set:  JKFIT                   
 Basis size:   740
 Attributes:
 Sphericals:   T
 Basis set:  MP2FIT                  
 Basis size:   816
 Attributes:
 Sphericals:   T
 Basis set:  RI                      
 Basis size:   556
 Attributes:
 Sphericals:   T
 Basis set:  TDDFT                   
 Basis size:   816
 Attributes:
 Sphericals:   T

 **********************************************************************************************************************************


 Eigenvalues of metric

         1 0.697E-04 0.704E-04 0.990E-04 0.106E-03 0.329E-03 0.357E-03 0.697E-03 0.787E-03


 Contracted 2-electron integrals neglected if value below      1.0D-14
 AO integral compression algorithm  1   Integral accuracy      1.0D-14

     2109.997 MB (compressed) written to integral file ( 65.8%)

     Node minimum: 481.821 MB, node maximum: 567.017 MB


 NUMBER OF SORTED TWO-ELECTRON INTEGRALS:   88219044.     BUFFER LENGTH:  32768
 NUMBER OF SEGMENTS:   6  SEGMENT LENGTH:   15998348      RECORD LENGTH: 524288

 Memory used in sort:      16.56 MW

 SORT1 READ   400769927. AND WROTE    79972028. INTEGRALS IN    232 RECORDS. CPU TIME:     8.00 SEC, REAL TIME:     9.07 SEC
 SORT2 READ   320224926. AND WROTE   352862895. INTEGRALS IN   8016 RECORDS. CPU TIME:     2.58 SEC, REAL TIME:     3.66 SEC

 Node minimum:    88205762.  Node maximum:    88225686. integrals

 OPERATOR DM      FOR CENTER  0  COORDINATES:    0.000000    0.000000    0.000000


 **********************************************************************************************************************************
 DATASETS  * FILE   NREC   LENGTH (MB)   RECORD NAMES
              1      18       32.04       500      610      700      900      950      970     1000      129      960     1100   
                                          VAR    BASINP    GEOM    SYMINP    ZMAT    AOBASIS   BASIS     P2S    ABASIS      S 
                                         1400     1410     1200     1210     1080     1600     1650     1700   
                                           T        V       H0       H01     AOSYM     SMH    MOLCAS    OPER   

 PROGRAMS   *        TOTAL       INT
 CPU TIMES  *        15.78     15.52
 REAL TIME  *        21.99 SEC
 DISK USED  *        32.49 MB (local),        6.04 GB (total)
 GA USED    *         0.00 MB       (max)       0.00 MB       (current)
 **********************************************************************************************************************************


 PROGRAM * RHF-SCF (CLOSED SHELL)       Authors: W. Meyer, H.-J. Werner


 NUMBER OF ELECTRONS:      10+   10-    SPACE SYMMETRY=1    SPIN SYMMETRY: Singlet 
 CONVERGENCE THRESHOLDS:    1.00E-08 (Density)    1.00E-11 (Energy)
 MAX. NUMBER OF ITERATIONS:       60
 INTERPOLATION TYPE:            DIIS
 INTERPOLATION STEPS:              2 (START)      1 (STEP)
 LEVEL SHIFTS:                  0.00 (CLOSED)  0.00 (OPEN) 



 Orbital guess generated from atomic densities. Full valence occupancy:   16

 Molecular orbital dump at record        2100.2

 Initial occupancy:  10

 ITERATION    DDIFF          GRAD             ENERGY        2-EL.EN.            DIPOLE MOMENTS         DIIS   ORB.
    1      0.000D+00      0.000D+00      -116.21379232    157.486117   -1.07382    0.30749   -0.25606    0    start
    2      0.000D+00      0.523D-02      -116.25756211    152.465918   -0.60279    0.22086   -0.17496    1    diag
    3      0.549D-02      0.307D-02      -116.27096726    154.531508   -0.72199    0.24541   -0.19656    2    diag
    4      0.182D-02      0.451D-03      -116.27161163    154.419515   -0.71164    0.24337   -0.19456    3    diag
    5      0.398D-03      0.132D-03      -116.27167751    154.413903   -0.71113    0.24410   -0.19489    4    diag
    6      0.140D-03      0.322D-04      -116.27168121    154.419694   -0.71031    0.24409   -0.19483    5    diag
    7      0.384D-04      0.620D-05      -116.27168142    154.418189   -0.71031    0.24413   -0.19485    6    diag
    8      0.103D-04      0.156D-05      -116.27168144    154.418324   -0.71024    0.24413   -0.19485    7    diag
    9      0.210D-05      0.353D-06      -116.27168144    154.418299   -0.71022    0.24413   -0.19484    8    diag
   10      0.707D-06      0.406D-07      -116.27168144    154.418300   -0.71021    0.24413   -0.19484    9    orth
   11      0.569D-07      0.992D-08      -116.27168144    154.418301   -0.71021    0.24413   -0.19484    9    diag
   12      0.223D-07      0.254D-08      -116.27168144    154.418301   -0.71021    0.24413   -0.19484    9    diag
   13      0.387D-08      0.677D-09      -116.27168144    154.418301   -0.71021    0.24413   -0.19484    0    orth

 Final occupancy:  10

 !RHF STATE  1.1 Energy              -116.271681441406
 Nuclear energy                        35.88393783
 One-electron energy                 -229.36476992
 Two-electron energy                   77.20915065
 Virial quotient                       -1.00105054
 !RHF STATE  1.1 Dipole moment         -0.71021365     0.24412948    -0.19484444
 Dipole moment /Debye                  -1.80506482     0.62047460    -0.49521273

 Orbital energies:

         1.1          2.1          3.1          4.1          5.1          6.1          7.1          8.1          9.1         10.1
    -20.570249   -11.190203    -1.343384    -0.943902    -0.708650    -0.580060    -0.545192    -0.542636    -0.540368    -0.508590

        11.1         12.1
      0.027187     0.039816


 HOMO     10.1    -0.508590 =     -13.8394eV
 LUMO     11.1     0.027187 =       0.7398eV
 LUMO-HOMO         0.535777 =      14.5792eV


 **********************************************************************************************************************************
 DATASETS  * FILE   NREC   LENGTH (MB)   RECORD NAMES
              1      18       32.04       500      610      700      900      950      970     1000      129      960     1100   
                                          VAR    BASINP    GEOM    SYMINP    ZMAT    AOBASIS   BASIS     P2S    ABASIS      S 
                                         1400     1410     1200     1210     1080     1600     1650     1700   
                                           T        V       H0       H01     AOSYM     SMH    MOLCAS    OPER   

              2       4        3.96       700     1000      520     2100   
                                         GEOM     BASIS   MCVARS     RHF  

 PROGRAMS   *        TOTAL    HF-SCF       INT
 CPU TIMES  *        29.98     14.20     15.52
 REAL TIME  *        37.91 SEC
 DISK USED  *        39.90 MB (local),        6.07 GB (total)
 SF USED    *         0.21 MB
 GA USED    *         0.00 MB       (max)       0.00 MB       (current)
 **********************************************************************************************************************************

 Basis set:  JKFIT                   
 Basis size:   740
 Attributes:
 Sphericals:   T
 Basis set:  MP2FIT                  
 Basis size:   816
 Attributes:
 Sphericals:   T
 Basis set:  RI                      
 Basis size:   556
 Attributes:
 Sphericals:   T
 Basis set:  TDDFT                   
 Basis size:   816
 Attributes:
 Sphericals:   T

 PROGRAM * CCSD (Closed-shell coupled cluster)     Authors: C. Hampel, H.-J. Werner, 1991, M. Deegan, P.J. Knowles, 1992

                                  CCSD-F12 implementation by  H.-J. Werner, 2007

                   Density fitting integral evaluation by F.R. Manby, 2003,2007, G. Knizia, 2010



 Convergence thresholds:  THRVAR = 1.00D-08  THRDEN = 1.00D-10

 CCSD(T)     terms to be evaluated (factor= 1.000)


 Number of core orbitals:           2 (   2 )
 Number of closed-shell orbitals:   8 (   8 )
 Number of external orbitals:     220 ( 220 )

 Molecular orbitals read from record     2100.2  Type=RHF/CANONICAL (state 1.1)

 MP2-F12 correlation treatment (H.-J. Werner, 2006)
 ==================================================

 Using MP2-F12 with ansatz 3C(FIX)

 Using projected zeroth-order Hamiltonian (+Z)

 FOCKRIB=T FOCKRIC=T FOCKRIP=T CABSP=T CABSA=T CABSK=T CABSF=T GBC=F EBC=F DMAT=T NOFIK=T NOPAO=1 SOLVE=-1  USEPAO=0
 EXCH_A= T EXCH_B= F EXCH_C= F EXCH_P= F

 Geminal basis:    OPTFULL  GEM_TYPE=SLATER  BETA=1.0  NGEM=6

 Optimizing Gaussian exponents for each gem_beta

 Geminal optimization for beta= 1.0000
 Weight function:   m=0, omega= 1.4646

 Augmented Hessian optimization of geminal fit. Trust ratio= 0.40000
 Convergence reached after   2 iterations. Final gradient= 7.85D-16, Step= 4.26D-06, Delta= 1.28D-09

 Alpha:                 0.19532     0.81920     2.85917     9.50073    35.69989   197.79328
 Coeff:                 0.27070     0.30552     0.18297     0.10986     0.06810     0.04224


 All pairs explicitly correlated. Number of r12-pairs:           36

 Excluding core orbitals from MO domains

 AO(A)-basis ORBITAL           loaded. Number of functions:     230
 RI(R)-basis RI                loaded. Number of functions:     556
 DF-basis JKFIT                loaded. Number of functions:     740

 Screening thresholds:   THRAO=  1.00D-10  THRMO=  1.00D-09  THRPROD=  1.00D-09
                         THRSW=  1.00D-05  THROV=  1.00D-12  THRAOF12= 1.00D-10

 CPU time for Fock operators                      3.88 sec

 Construction of ABS:
 Smallest eigenvalue of S          1.17E-04  (threshold= 1.00E-08)
 Ratio eigmin/eigmax               1.66E-05  (threshold= 1.00E-09)
 Smallest eigenvalue of S kept     1.17E-04  (threshold= 1.17E-04, 0 functions deleted, 556 kept)

 Construction of CABS:
 Smallest eigenvalue of S          7.16E-07  (threshold= 1.00E-08)
 Ratio eigmin/eigmax               7.16E-07  (threshold= 1.00E-09)
 Smallest eigenvalue of S kept     7.16E-07  (threshold= 7.16E-07, 0 functions deleted, 556 kept)

 CPU time for CABS singles                        0.68 sec

 CABS-singles contribution of  -0.00239461 patched into reference energy.
 New reference energy        -116.27407606

 AO(A)-basis ORBITAL           loaded. Number of functions:     230
 RI(R)-basis RI                loaded. Number of functions:     556
 DF-basis MP2FIT               loaded. Number of functions:     816

 Screening thresholds:   THRAO=  1.00D-10  THRMO=  1.00D-09  THRPROD=  1.00D-09
                         THRSW=  1.00D-05  THROV=  1.00D-12  THRAOF12= 1.00D-10

 CPU time for 3-index integral evaluation         5.54 sec
 CPU time for first  half transformation          1.40 sec ( 2008.2 MFLOP/sec)
 CPU time for second half transformation          0.07 sec (  707.1 MFLOP/sec)
 CPU time for sorting                             0.06 sec
 CPU time for fitting                             0.58 sec ( 3747.2 MFLOP/sec)
 CPU time for tilde quantities                    0.69 sec ( 3999.0 MFLOP/sec)
 CPU time for assembly                            4.88 sec ( 4058.6 MFLOP/sec)
 CPU time for tranop_f12                          4.70 sec ( 4061.7 MFLOP/sec)
 CPU time for f12 integrals (total)              25.23 sec, Elapsed time:     26.58 sec
 F12-matrices built in  4 passes.
 F12-matrices built in  4 passes.
 F12-matrices built in  4 passes.
 F12-matrices built in  4 passes.
 FC-matrix built in  4 passes.
 CPU time for f12 matrices (total)                1.43 sec, Elapsed time:      1.49 sec

 Diagonal F12 approximation with fixed coefficients:  TSING= 0.500,  TTRIP= 0.250 (scaled by -1/beta)

 DF-MP2-F12 energy corrections:
 ==============================
 Approx.                                    Singlet             Triplet             Total
 DF-MP2-F12/3*C(DX,FIX)                -0.046269322962     -0.006810508362     -0.053079831324
 DF-MP2-F12/3*C(FIX)                   -0.039954276314     -0.005617146385     -0.045571422699
 DF-MP2-F12/3C(FIX)                    -0.040068554280     -0.005581296496     -0.045649850776

 DF-MP2-F12 correlation energies:
 ================================
 Approx.                                    Singlet             Triplet             Ecorr            Total Energy
 DF-MP2                                -0.317245877685     -0.153684689325     -0.470930567010   -116.745006622067
 DF-MP2-F12/3*C(DX,FIX)                -0.363515200647     -0.160495197687     -0.524010398334   -116.798086453391
 DF-MP2-F12/3*C(FIX)                   -0.357200153999     -0.159301835710     -0.516501989709   -116.790578044766
 DF-MP2-F12/3C(FIX)                    -0.357314431964     -0.159265985821     -0.516580417786   -116.790656472843

 SCS-DF-MP2 energies (F_SING= 1.20000  F_TRIP= 0.62222  F_PARALLEL= 0.33333):
 ============================================================================
 SCS-DF-MP2                            -0.476321082135   -116.750397137192
 SCS-DF-MP2-F12/3*C(DX,FIX)            -0.536081919337   -116.810157974394
 SCS-DF-MP2-F12/3*C(FIX)               -0.527761327018   -116.801837382076
 SCS-DF-MP2-F12/3C(FIX)                -0.527876153979   -116.801952209037
 Symmetry transformation completed.

 Number of N-1 electron functions:               8
 Number of N-2 electron functions:              36
 Number of singly external CSFs:              1760
 Number of doubly external CSFs:           1549680
 Total number of CSFs:                     1551441

 Pair and operator lists are different

 Length of J-op  integral file:             315.61 MB
 Length of K-op  integral file:             368.50 MB
 Length of 3-ext integral record:             0.00 MB

 Memory could be reduced to 116.32 Mwords without degradation in triples

 Integral transformation finished. Total CPU:  29.23 sec, npass=  1  Memory used:  59.34 MW

 Reference energy:                   -116.27407606

 Adding F12 terms to K(Cij), methodcc=6,  factor= 1.0

 ITER.      SQ.NORM     CORR.ENERGY   TOTAL ENERGY   ENERGY CHANGE        DEN1      VAR(S)    VAR(P)  DIIS     TIME  TIME/IT
   1      1.13188460    -0.48557450  -116.75965056    -0.01462610    -0.00302315  0.15D-02  0.20D-02  1  1    78.38    15.98
   2      1.14009447    -0.48583159  -116.75990765    -0.00025709    -0.00967800  0.28D-04  0.22D-03  2  2    94.41    16.26
   3      1.14295461    -0.48609030  -116.76016635    -0.00025870    -0.00196147  0.12D-04  0.12D-04  3  3   110.59    16.35
   4      1.14382383    -0.48614563  -116.76022168    -0.00005533    -0.00047902  0.52D-06  0.10D-05  4  4   126.61    16.40
   5      1.14396652    -0.48614008  -116.76021613     0.00000555    -0.00003805  0.18D-06  0.73D-07  5  5   142.62    16.41
   6      1.14400591    -0.48613730  -116.76021335     0.00000278    -0.00000600  0.16D-07  0.52D-08  6  6   158.79    16.44
   7      1.14401501    -0.48613656  -116.76021261     0.00000074    -0.00000246  0.13D-08  0.69D-09  6  2   174.90    16.46
   8      1.14401690    -0.48613653  -116.76021258     0.00000003    -0.00000011  0.21D-09  0.68D-10  6  1   190.99    16.47
   9      1.14401757    -0.48613655  -116.76021261    -0.00000002    -0.00000006  0.20D-10  0.12D-10  6  3   207.10    16.48
  10      1.14401766    -0.48613655  -116.76021260     0.00000000     0.00000006  0.28D-11  0.15D-11  6  4   223.10    16.48
  11      1.14401761    -0.48613655  -116.76021261    -0.00000001     0.00000007  0.49D-12  0.22D-12  6  5   239.25    16.50
  12      1.14401758    -0.48613655  -116.76021261    -0.00000000     0.00000002  0.95D-13  0.30D-13  6  6   255.35    16.50
  13      1.14401756    -0.48613655  -116.76021261    -0.00000000     0.00000001  0.15D-13  0.44D-14  6  2   271.51    16.51
  14      1.14401755    -0.48613655  -116.76021261    -0.00000000     0.00000000  0.18D-14  0.97D-15  6  1   287.62    16.51
  15      1.14401755    -0.48613655  -116.76021261    -0.00000000    -0.00000000  0.19D-15  0.10D-15  6  3   303.92    16.52
  16      1.14401755    -0.48613655  -116.76021261     0.00000000    -0.00000000  0.20D-16  0.14D-16  6  4   319.91    16.52

 Norm of t1 vector:      0.05028524      S-energy:     0.00000000      T1 diagnostic:  0.00888926
                                                                       D1 diagnostic:  0.01865045

 Adding energy correction from Wij-K(Fij), methodcc=6  factor= 1.0

  CCSD correlation energy              -0.486136554989
  MP2-F12 correction (uncoupled)       -0.045390979051
  C*T doubles correction               -0.000610959189
  f12b correction                       0.008423781458


 Total CPU time for triples:    261.10 sec

  Ecorr(MP2)                           -0.470948399635
  Ecorr(MP2-F12)                       -0.516598250411
  Scale factor for triples energy       1.096931746262


 RESULTS
 =======

  Reference energy                   -116.271681441406
  F12 singles correction               -0.002394613652

 F12 singles corrections added to reference energy

  New reference energy               -116.274076055058

  F12a singlet correction              -0.040324277928
  F12a triplet correction              -0.005677660311
  F12a total correction                -0.046001938240

 F12a corrections for ansatz F12/3C(FIX) added to CCSD energy

  CCSD-F12a singlet pair energy        -0.385923301809
  CCSD-F12a triplet pair energy        -0.146215191575
  CCSD-F12a correlation energy         -0.532138493229

  Triples (T) contribution (scaled)    -0.016414094885
  Total correlation energy             -0.548552588114

  CCSD-F12a total energy             -116.806214548287
  CCSD[T]-F12a energy                -116.823216899573
  CCSD-T-F12a energy                 -116.822410844595
 !CCSD(T)-F12a total energy          -116.822628643172

 F12b corrections for ansatz F12/3C(FIX) added to CCSD(T)-F12a energy

  CCSD-F12b singlet pair energy        -0.378030750700
  CCSD-F12b triplet pair energy        -0.145683961226
  CCSD-F12b correlation energy         -0.523714711771

  Triples (T) contribution (scaled)    -0.016414094885
  Total correlation energy             -0.540128806656

  CCSD-F12b total energy             -116.797790766828
  CCSD[T]-F12b energy                -116.814793118114
  CCSD-T-F12b energy                 -116.813987063137
 !CCSD(T)-F12b total energy          -116.814204861714

 Timing summary (sec):

 STEP                 CPU(USER)    SYS     CPU(TOT)    WALL
 Transformation         29.42      1.40     30.82     31.01
 CCSD iterations       257.23      6.72    263.95    264.33
 Triples               261.10      2.22    263.32    263.62
 MP2-F12                33.29      1.68     34.97     35.17
 F12b energy            12.35      0.13     12.48     12.50

 Program statistics:

 Available memory in ccsd:              1999999554
 Min. memory needed in ccsd:               4597329
 Max. memory used in ccsd:                 5918289
 Max. memory used in cckext:               4231061 (17 integral passes)



 **********************************************************************************************************************************
 DATASETS  * FILE   NREC   LENGTH (MB)   RECORD NAMES
              1      19      398.06       500      610      700      900      950      970     1000      129      960     1100   
                                          VAR    BASINP    GEOM    SYMINP    ZMAT    AOBASIS   BASIS     P2S    ABASIS      S 
                                         1400     1410     1200     1210     1080     1600     1650     1700     1380   
                                           T        V       H0       H01     AOSYM     SMH    MOLCAS    OPER     JKOP   

              2       6        5.03       700     1000      520     2100     7360     7350   
                                         GEOM     BASIS   MCVARS     RHF    F12ABS    EF12   

 PROGRAMS   *        TOTAL   CCSD(T)    HF-SCF       INT
 CPU TIMES  *       623.61    593.62     14.20     15.52
 REAL TIME  *       645.48 SEC
 DISK USED  *       570.60 MB (local),        7.69 GB (total)
 SF USED    *         1.35 GB
 GA USED    *         4.87 MB       (max)       0.00 MB       (current)
 **********************************************************************************************************************************

 Running procedure: SET_MONOMER1

 Dummy atoms: C1  H41  H42  H43  H44


 Recomputing one-electron integrals since nuclear charges changed


 PROGRAM * SEWARD (Integral evaluation for generally contracted gaussian basis sets)     Author: Roland Lindh, 1990

 Geometry written to block  1 of record 700


 Point group  C1  



 ATOMIC COORDINATES

 NR  ATOM    CHARGE       X              Y              Z

   1  O14     8.00   -8.257347274    8.608080443   -1.772185160
   2  H27     1.00   -8.759447505   10.077153532   -2.731599113
   3  H28     1.00   -9.852276123    7.752790399   -1.314682465
   4  C1      0.00   -6.193010455    2.801518980    2.403542658
   5  H41     0.00   -4.656285171    1.699997622    3.119937832
   6  H42     0.00   -5.973046335    4.726205038    2.982932688
   7  H43     0.00   -7.940251230    2.077186956    3.118237078
   8  H44     0.00   -6.176569838    2.685300823    0.384937212

 Bond lengths in Bohr (Angstrom)

 1-2  1.825035758  1-3  1.866715781  4-5  2.021904040  4-6  2.022002335  4-7  2.021953343
     ( 0.965767332)     ( 0.987823451)     ( 1.069945541)     ( 1.069997556)     ( 1.069971630)

 4-8  2.022015060
     ( 1.070004290)

 Bond angles

  2-1-3  105.22390814   5-4-6  109.53398059   5-4-7  109.65604535   5-4-8  108.43490854

  6-4-7  109.49436728   6-4-8  109.86987750   7-4-8  109.83468330

 NUCLEAR CHARGE:                   10
 NUMBER OF PRIMITIVE AOS:         296
 NUMBER OF SYMMETRY AOS:          266
 NUMBER OF CONTRACTIONS:          230   (  230A   )
 NUMBER OF CORE ORBITALS:           1   (    1A   )
 NUMBER OF VALENCE ORBITALS:        6   (    6A   )

 MOLECULE CHANGED: INITIALIZING OCCUPATION AND DUMP RECORDS


 NUCLEAR REPULSION ENERGY    9.00998347

 Basis set:  JKFIT                   
 Basis size:   740
 Attributes:
 Sphericals:   T
 Basis set:  MP2FIT                  
 Basis size:   816
 Attributes:
 Sphericals:   T
 Basis set:  RI                      
 Basis size:   556
 Attributes:
 Sphericals:   T
 Basis set:  TDDFT                   
 Basis size:   816
 Attributes:
 Sphericals:   T

 Eigenvalues of metric

         1 0.697E-04 0.704E-04 0.990E-04 0.106E-03 0.329E-03 0.357E-03 0.697E-03 0.787E-03


 Contracted 2-electron integrals neglected if value below      1.0D-14

 OPERATOR DM      FOR CENTER  0  COORDINATES:    0.000000    0.000000    0.000000


 **********************************************************************************************************************************
 DATASETS  * FILE   NREC   LENGTH (MB)   RECORD NAMES
              1      18       32.04       500      610      700      900      950      970     1000      129      960     1100   
                                          VAR    BASINP    GEOM    SYMINP    ZMAT    AOBASIS   BASIS     P2S    ABASIS      S 
                                         1400     1410     1200     1210     1080     1600     1650     1700   
                                           T        V       H0       H01     AOSYM     SMH    MOLCAS    OPER   

              2       7        5.05       700     1000      520     2100     7360     7350      200   
                                         GEOM     BASIS   MCVARS     RHF    F12ABS    EF12    OPTIONS    

 PROGRAMS   *        TOTAL       INT   CCSD(T)    HF-SCF       INT
 CPU TIMES  *       623.85      0.22    593.62     14.20     15.52
 REAL TIME  *       646.28 SEC
 DISK USED  *       570.60 MB (local),        7.69 GB (total)
 SF USED    *         1.35 GB
 GA USED    *         4.87 MB       (max)       0.00 MB       (current)
 **********************************************************************************************************************************


 PROGRAM * RHF-SCF (CLOSED SHELL)       Authors: W. Meyer, H.-J. Werner


 NUMBER OF ELECTRONS:       5+    5-    SPACE SYMMETRY=1    SPIN SYMMETRY: Singlet 
 CONVERGENCE THRESHOLDS:    1.00E-08 (Density)    1.00E-11 (Energy)
 MAX. NUMBER OF ITERATIONS:       60
 INTERPOLATION TYPE:            DIIS
 INTERPOLATION STEPS:              2 (START)      1 (STEP)
 LEVEL SHIFTS:                  0.00 (CLOSED)  0.00 (OPEN) 



 Orbital guess generated from atomic densities. Full valence occupancy:    7

 Molecular orbital dump at record        2101.2

 Initial occupancy:   5

 ITERATION    DDIFF          GRAD             ENERGY        2-EL.EN.            DIPOLE MOMENTS         DIIS   ORB.
    1      0.000D+00      0.000D+00       -76.02021489     77.394228   -1.07797    0.30890   -0.25381    0    start
    2      0.000D+00      0.640D-02       -76.04687127     73.768137   -0.62531    0.18533   -0.15113    1    diag
    3      0.443D-02      0.407D-02       -76.05820883     75.370564   -0.73698    0.21712   -0.17729    2    diag
    4      0.160D-02      0.376D-03       -76.05839962     75.281219   -0.73226    0.21698   -0.17695    3    diag
    5      0.205D-03      0.104D-03       -76.05841960     75.295321   -0.73046    0.21695   -0.17684    4    diag
    6      0.634D-04      0.204D-04       -76.05842084     75.294450   -0.73010    0.21701   -0.17685    5    diag
    7      0.157D-04      0.403D-05       -76.05842089     75.294577   -0.72996    0.21701   -0.17685    6    diag
    8      0.409D-05      0.744D-06       -76.05842090     75.294561   -0.72993    0.21701   -0.17684    7    diag
    9      0.693D-06      0.949D-07       -76.05842090     75.294552   -0.72992    0.21701   -0.17684    8    diag
   10      0.842D-07      0.238D-07       -76.05842090     75.294556   -0.72992    0.21701   -0.17684    9    orth
   11      0.219D-07      0.495D-08       -76.05842090     75.294555   -0.72992    0.21701   -0.17684    9    diag
   12      0.532D-08      0.932D-09       -76.05842090     75.294555   -0.72992    0.21701   -0.17684    0    orth

 Final occupancy:   5

 !RHF STATE  1.1 Energy               -76.058420895923
 Nuclear energy                         9.00998347
 One-electron energy                 -122.71568198
 Two-electron energy                   37.64727762
 Virial quotient                       -1.00231307
 !RHF STATE  1.1 Dipole moment         -0.72992068     0.21700805    -0.17684063
 Dipole moment /Debye                  -1.85515180     0.55154331    -0.44945462

 Orbital energies:

         1.1          2.1          3.1          4.1          5.1          6.1          7.1
    -20.570260    -1.343343    -0.708611    -0.579777    -0.508573     0.023642     0.036024


 HOMO      5.1    -0.508573 =     -13.8390eV
 LUMO      6.1     0.023642 =       0.6433eV
 LUMO-HOMO         0.532214 =      14.4823eV


 **********************************************************************************************************************************
 DATASETS  * FILE   NREC   LENGTH (MB)   RECORD NAMES
              1      18       32.04       500      610      700      900      950      970     1000      129      960     1100   
                                          VAR    BASINP    GEOM    SYMINP    ZMAT    AOBASIS   BASIS     P2S    ABASIS      S 
                                         1400     1410     1200     1210     1080     1600     1650     1700   
                                           T        V       H0       H01     AOSYM     SMH    MOLCAS    OPER   

              2       8        9.09       700     1000      520     2100     7360     7350      200     2101   
                                         GEOM     BASIS   MCVARS     RHF    F12ABS    EF12    OPTIONS    RHF  

 PROGRAMS   *        TOTAL    HF-SCF       INT   CCSD(T)    HF-SCF       INT
 CPU TIMES  *       636.85     13.00      0.22    593.62     14.20     15.52
 REAL TIME  *       660.96 SEC
 DISK USED  *       570.60 MB (local),        7.69 GB (total)
 SF USED    *         1.35 GB
 GA USED    *         4.87 MB       (max)       0.00 MB       (current)
 **********************************************************************************************************************************

 Basis set:  JKFIT                   
 Basis size:   740
 Attributes:
 Sphericals:   T
 Basis set:  MP2FIT                  
 Basis size:   816
 Attributes:
 Sphericals:   T
 Basis set:  RI                      
 Basis size:   556
 Attributes:
 Sphericals:   T
 Basis set:  TDDFT                   
 Basis size:   816
 Attributes:
 Sphericals:   T

 PROGRAM * CCSD (Closed-shell coupled cluster)     Authors: C. Hampel, H.-J. Werner, 1991, M. Deegan, P.J. Knowles, 1992

                                  CCSD-F12 implementation by  H.-J. Werner, 2007

                   Density fitting integral evaluation by F.R. Manby, 2003,2007, G. Knizia, 2010



 Convergence thresholds:  THRVAR = 1.00D-08  THRDEN = 1.00D-10

 CCSD(T)     terms to be evaluated (factor= 1.000)


 Number of core orbitals:           1 (   1 )
 Number of closed-shell orbitals:   4 (   4 )
 Number of external orbitals:     225 ( 225 )

 Molecular orbitals read from record     2101.2  Type=RHF/CANONICAL (state 1.1)

 MP2-F12 correlation treatment (H.-J. Werner, 2006)
 ==================================================

 Using MP2-F12 with ansatz 3C(FIX)

 Using projected zeroth-order Hamiltonian (+Z)

 FOCKRIB=T FOCKRIC=T FOCKRIP=T CABSP=T CABSA=T CABSK=T CABSF=T GBC=F EBC=F DMAT=T NOFIK=T NOPAO=1 SOLVE=-1  USEPAO=0
 EXCH_A= T EXCH_B= F EXCH_C= F EXCH_P= F

 Geminal basis:    OPTFULL  GEM_TYPE=SLATER  BETA=1.0  NGEM=6

 Optimizing Gaussian exponents for each gem_beta

 Geminal optimization for beta= 1.0000
 Weight function:   m=0, omega= 1.4646

 Augmented Hessian optimization of geminal fit. Trust ratio= 0.40000
 Convergence reached after   2 iterations. Final gradient= 8.31D-16, Step= 4.24D-06, Delta= 1.28D-09

 Alpha:                 0.19532     0.81920     2.85917     9.50073    35.69989   197.79328
 Coeff:                 0.27070     0.30552     0.18297     0.10986     0.06810     0.04224


 All pairs explicitly correlated. Number of r12-pairs:           10

 Excluding core orbitals from MO domains

 AO(A)-basis ORBITAL           loaded. Number of functions:     230
 RI(R)-basis RI                loaded. Number of functions:     556
 DF-basis JKFIT                loaded. Number of functions:     740

 Screening thresholds:   THRAO=  1.00D-10  THRMO=  1.00D-09  THRPROD=  1.00D-09
                         THRSW=  1.00D-05  THROV=  1.00D-12  THRAOF12= 1.00D-10

 CPU time for Fock operators                      3.28 sec

 Construction of ABS:
 Smallest eigenvalue of S          1.17E-04  (threshold= 1.00E-08)
 Ratio eigmin/eigmax               1.66E-05  (threshold= 1.00E-09)
 Smallest eigenvalue of S kept     1.17E-04  (threshold= 1.17E-04, 0 functions deleted, 556 kept)

 Construction of CABS:
 Smallest eigenvalue of S          7.16E-07  (threshold= 1.00E-08)
 Ratio eigmin/eigmax               7.16E-07  (threshold= 1.00E-09)
 Smallest eigenvalue of S kept     7.16E-07  (threshold= 7.16E-07, 0 functions deleted, 556 kept)

 CPU time for CABS singles                        0.72 sec

 CABS-singles contribution of  -0.00148457 patched into reference energy.
 New reference energy         -76.05990547

 AO(A)-basis ORBITAL           loaded. Number of functions:     230
 RI(R)-basis RI                loaded. Number of functions:     556
 DF-basis MP2FIT               loaded. Number of functions:     816

 Screening thresholds:   THRAO=  1.00D-10  THRMO=  1.00D-09  THRPROD=  1.00D-09
                         THRSW=  1.00D-05  THROV=  1.00D-12  THRAOF12= 1.00D-10

 CPU time for 3-index integral evaluation         5.56 sec
 CPU time for first  half transformation          1.10 sec ( 1303.8 MFLOP/sec)
 CPU time for second half transformation          0.04 sec (  317.6 MFLOP/sec)
 CPU time for sorting                             0.04 sec
 CPU time for fitting                             0.35 sec ( 5125.2 MFLOP/sec)
 CPU time for tilde quantities                    0.38 sec ( 5526.6 MFLOP/sec)
 CPU time for assembly                            1.52 sec ( 3670.6 MFLOP/sec)
 CPU time for tranop_f12                          1.26 sec ( 3936.2 MFLOP/sec)
 CPU time for f12 integrals (total)              12.82 sec, Elapsed time:     13.53 sec
 F12-matrices built in  4 passes.
 F12-matrices built in  4 passes.
 F12-matrices built in  4 passes.
 F12-matrices built in  4 passes.
 FC-matrix built in  4 passes.
 CPU time for f12 matrices (total)                0.29 sec, Elapsed time:      0.37 sec

 Diagonal F12 approximation with fixed coefficients:  TSING= 0.500,  TTRIP= 0.250 (scaled by -1/beta)

 DF-MP2-F12 energy corrections:
 ==============================
 Approx.                                    Singlet             Triplet             Total
 DF-MP2-F12/3*C(DX,FIX)                -0.029542805504     -0.004874270653     -0.034417076157
 DF-MP2-F12/3*C(FIX)                   -0.024466421497     -0.003820077044     -0.028286498541
 DF-MP2-F12/3C(FIX)                    -0.024595588007     -0.003792382857     -0.028387970865

 DF-MP2-F12 correlation energies:
 ================================
 Approx.                                    Singlet             Triplet             Ecorr            Total Energy
 DF-MP2                                -0.171688397806     -0.098232576449     -0.269920974255    -76.329826443711
 DF-MP2-F12/3*C(DX,FIX)                -0.201231203310     -0.103106847102     -0.304338050412    -76.364243519868
 DF-MP2-F12/3*C(FIX)                   -0.196154819303     -0.102052653493     -0.298207472796    -76.358112942252
 DF-MP2-F12/3C(FIX)                    -0.196283985813     -0.102024959307     -0.298308945120    -76.358214414576

 SCS-DF-MP2 energies (F_SING= 1.20000  F_TRIP= 0.62222  F_PARALLEL= 0.33333):
 ============================================================================
 SCS-DF-MP2                            -0.267148569380    -76.327054038836
 SCS-DF-MP2-F12/3*C(DX,FIX)            -0.305632815502    -76.365538284958
 SCS-DF-MP2-F12/3*C(FIX)               -0.298885212004    -76.358790681460
 SCS-DF-MP2-F12/3C(FIX)                -0.299022979878    -76.358928449334
 Symmetry transformation completed.

 Number of N-1 electron functions:               4
 Number of N-2 electron functions:              10
 Number of singly external CSFs:               900
 Number of doubly external CSFs:            405450
 Total number of CSFs:                      406351

 Pair and operator lists are different

 Length of J-op  integral file:              81.60 MB
 Length of K-op  integral file:             128.10 MB
 Length of 3-ext integral record:             0.00 MB

 Memory could be reduced to 75.63 Mwords without degradation in triples

 Integral transformation finished. Total CPU:  14.16 sec, npass=  1  Memory used:  32.52 MW

 Reference energy:                    -76.05990547

 Adding F12 terms to K(Cij), methodcc=6,  factor= 1.0

 ITER.      SQ.NORM     CORR.ENERGY   TOTAL ENERGY   ENERGY CHANGE        DEN1      VAR(S)    VAR(P)  DIIS     TIME  TIME/IT
   1      1.06224121    -0.26954554   -76.32945101     0.00038332     0.00630928  0.79D-03  0.10D-02  1  1    36.99     4.11
   2      1.06565445    -0.26922049   -76.32912596     0.00032504    -0.00462033  0.13D-04  0.11D-03  2  2    41.02     4.21
   3      1.06688994    -0.26934219   -76.32924766    -0.00012169    -0.00082388  0.93D-05  0.59D-05  3  3    45.03     4.28
   4      1.06738248    -0.26937926   -76.32928473    -0.00003708    -0.00027682  0.40D-06  0.62D-06  4  4    49.12     4.28
   5      1.06747382    -0.26937605   -76.32928152     0.00000322    -0.00002725  0.15D-06  0.41D-07  5  5    53.16     4.29
   6      1.06750501    -0.26937399   -76.32927946     0.00000206    -0.00000454  0.12D-07  0.28D-08  6  6    57.24     4.29
   7      1.06751189    -0.26937358   -76.32927905     0.00000041    -0.00000143  0.10D-08  0.44D-09  6  1    61.29     4.29
   8      1.06751316    -0.26937367   -76.32927914    -0.00000009     0.00000012  0.14D-09  0.52D-10  6  2    65.38     4.30
   9      1.06751366    -0.26937368   -76.32927915    -0.00000001    -0.00000004  0.14D-10  0.71D-11  6  3    69.44     4.30
  10      1.06751373    -0.26937368   -76.32927915     0.00000000     0.00000002  0.27D-11  0.81D-12  6  4    73.56     4.30
  11      1.06751369    -0.26937368   -76.32927915    -0.00000000     0.00000003  0.46D-12  0.17D-12  6  6    77.62     4.30
  12      1.06751368    -0.26937368   -76.32927915     0.00000000     0.00000001  0.68D-13  0.22D-13  6  5    81.73     4.30
  13      1.06751367    -0.26937368   -76.32927915    -0.00000000     0.00000000  0.88D-14  0.31D-14  6  1    85.81     4.30
  14      1.06751367    -0.26937368   -76.32927915    -0.00000000     0.00000000  0.10D-14  0.62D-15  6  2    89.91     4.30
  15      1.06751367    -0.26937368   -76.32927915    -0.00000000    -0.00000000  0.11D-15  0.68D-16  6  3    94.00     4.30
  16      1.06751367    -0.26937368   -76.32927915     0.00000000    -0.00000000  0.14D-16  0.83D-17  6  4    98.08     4.30

 Norm of t1 vector:      0.03703072      S-energy:    -0.00000000      T1 diagnostic:  0.00925768
                                                                       D1 diagnostic:  0.01843698

 Adding energy correction from Wij-K(Fij), methodcc=6  factor= 1.0

  CCSD correlation energy              -0.269373680996
  MP2-F12 correction (uncoupled)       -0.028118416816
  C*T doubles correction               -0.000416115555
  f12b correction                       0.004761301412


 Total CPU time for triples:     41.43 sec

  Ecorr(MP2)                           -0.269928858500
  Ecorr(MP2-F12)                       -0.298316829365
  Scale factor for triples energy       1.105168343327


 RESULTS
 =======

  Reference energy                    -76.058420895925
  F12 singles correction               -0.001484573531

 F12 singles corrections added to reference energy

  New reference energy                -76.059905469456

  F12a singlet correction              -0.024671173556
  F12a triplet correction              -0.003863358816
  F12a total correction                -0.028534532372

 F12a corrections for ansatz F12/3C(FIX) added to CCSD energy

  CCSD-F12a singlet pair energy        -0.207312735720
  CCSD-F12a triplet pair energy        -0.090595477610
  CCSD-F12a correlation energy         -0.297908213368

  Triples (T) contribution (scaled)    -0.009525901561
  Total correlation energy             -0.307434114929

  CCSD-F12a total energy              -76.357813682824
  CCSD[T]-F12a energy                 -76.367686259634
  CCSD-T-F12a energy                  -76.367197289053
 !CCSD(T)-F12a total energy           -76.367339584385

 F12b corrections for ansatz F12/3C(FIX) added to CCSD(T)-F12a energy

  CCSD-F12b singlet pair energy        -0.202910287177
  CCSD-F12b triplet pair energy        -0.090236624741
  CCSD-F12b correlation energy         -0.293146911956

  Triples (T) contribution (scaled)    -0.009525901561
  Total correlation energy             -0.302672813517

  CCSD-F12b total energy              -76.353052381412
  CCSD[T]-F12b energy                 -76.362924958222
  CCSD-T-F12b energy                  -76.362435987641
 !CCSD(T)-F12b total energy           -76.362578282973

 Timing summary (sec):

 STEP                 CPU(USER)    SYS     CPU(TOT)    WALL
 Transformation         14.22      0.98     15.20     15.23
 CCSD iterations        65.06      3.52     68.58     68.88
 Triples                41.43      0.42     41.85     41.90
 MP2-F12                18.83      0.87     19.70     19.80
 F12b energy             3.43      0.14      3.57      3.58

 Program statistics:

 Available memory in ccsd:              1999999871
 Min. memory needed in ccsd:               1862772
 Max. memory used in ccsd:                 2158322
 Max. memory used in cckext:               1445635 (17 integral passes)



 **********************************************************************************************************************************
 DATASETS  * FILE   NREC   LENGTH (MB)   RECORD NAMES
              1      19      222.31       500      610      700      900      950      970     1000      129      960     1100   
                                          VAR    BASINP    GEOM    SYMINP    ZMAT    AOBASIS   BASIS     P2S    ABASIS      S 
                                         1400     1410     1200     1210     1080     1600     1650     1700     1380   
                                           T        V       H0       H01     AOSYM     SMH    MOLCAS    OPER     JKOP   

              2       8        9.09       700     1000      520     2100     7360     7350      200     2101   
                                         GEOM     BASIS   MCVARS     RHF    F12ABS    EF12    OPTIONS    RHF  

 PROGRAMS   *        TOTAL   CCSD(T)    HF-SCF       INT   CCSD(T)    HF-SCF       INT
 CPU TIMES  *       780.06    143.19     13.00      0.22    593.62     14.20     15.52
 REAL TIME  *       811.14 SEC
 DISK USED  *       570.60 MB (local),        7.69 GB (total)
 SF USED    *         1.35 GB
 GA USED    *         4.87 MB       (max)       0.00 MB       (current)
 **********************************************************************************************************************************

 Running procedure: SET_MONOMER2

 Dummy atoms: O14  H27  H28


 Recomputing one-electron integrals since nuclear charges changed


 PROGRAM * SEWARD (Integral evaluation for generally contracted gaussian basis sets)     Author: Roland Lindh, 1990

 Geometry written to block  1 of record 700


 Point group  C1  



 ATOMIC COORDINATES

 NR  ATOM    CHARGE       X              Y              Z

   1  O14     0.00   -8.257347274    8.608080443   -1.772185160
   2  H27     0.00   -8.759447505   10.077153532   -2.731599113
   3  H28     0.00   -9.852276123    7.752790399   -1.314682465
   4  C1      6.00   -6.193010455    2.801518980    2.403542658
   5  H41     1.00   -4.656285171    1.699997622    3.119937832
   6  H42     1.00   -5.973046335    4.726205038    2.982932688
   7  H43     1.00   -7.940251230    2.077186956    3.118237078
   8  H44     1.00   -6.176569838    2.685300823    0.384937212

 Bond lengths in Bohr (Angstrom)

 1-2  1.825035758  1-3  1.866715781  4-5  2.021904040  4-6  2.022002335  4-7  2.021953343
     ( 0.965767332)     ( 0.987823451)     ( 1.069945541)     ( 1.069997556)     ( 1.069971630)

 4-8  2.022015060
     ( 1.070004290)

 Bond angles

  2-1-3  105.22390814   5-4-6  109.53398059   5-4-7  109.65604535   5-4-8  108.43490854

  6-4-7  109.49436728   6-4-8  109.86987750   7-4-8  109.83468330

 NUCLEAR CHARGE:                   10
 NUMBER OF PRIMITIVE AOS:         296
 NUMBER OF SYMMETRY AOS:          266
 NUMBER OF CONTRACTIONS:          230   (  230A   )
 NUMBER OF CORE ORBITALS:           1   (    1A   )
 NUMBER OF VALENCE ORBITALS:        8   (    8A   )

 MOLECULE CHANGED: INITIALIZING OCCUPATION AND DUMP RECORDS


 NUCLEAR REPULSION ENERGY   13.68681606

 Basis set:  JKFIT                   
 Basis size:   740
 Attributes:
 Sphericals:   T
 Basis set:  MP2FIT                  
 Basis size:   816
 Attributes:
 Sphericals:   T
 Basis set:  RI                      
 Basis size:   556
 Attributes:
 Sphericals:   T
 Basis set:  TDDFT                   
 Basis size:   816
 Attributes:
 Sphericals:   T

 Eigenvalues of metric

         1 0.697E-04 0.704E-04 0.990E-04 0.106E-03 0.329E-03 0.357E-03 0.697E-03 0.787E-03


 Contracted 2-electron integrals neglected if value below      1.0D-14

 OPERATOR DM      FOR CENTER  0  COORDINATES:    0.000000    0.000000    0.000000


 **********************************************************************************************************************************
 DATASETS  * FILE   NREC   LENGTH (MB)   RECORD NAMES
              1      18       32.04       500      610      700      900      950      970     1000      129      960     1100   
                                          VAR    BASINP    GEOM    SYMINP    ZMAT    AOBASIS   BASIS     P2S    ABASIS      S 
                                         1400     1410     1200     1210     1080     1600     1650     1700   
                                           T        V       H0       H01     AOSYM     SMH    MOLCAS    OPER   

              2       8        9.09       700     1000      520     2100     7360     7350      200     2101   
                                         GEOM     BASIS   MCVARS     RHF    F12ABS    EF12    OPTIONS    RHF  

 PROGRAMS   *        TOTAL       INT   CCSD(T)    HF-SCF       INT   CCSD(T)    HF-SCF       INT
 CPU TIMES  *       780.29      0.22    143.19     13.00      0.22    593.62     14.20     15.52
 REAL TIME  *       811.91 SEC
 DISK USED  *       570.60 MB (local),        7.69 GB (total)
 SF USED    *         1.35 GB
 GA USED    *         4.87 MB       (max)       0.00 MB       (current)
 **********************************************************************************************************************************


 PROGRAM * RHF-SCF (CLOSED SHELL)       Authors: W. Meyer, H.-J. Werner


 NUMBER OF ELECTRONS:       5+    5-    SPACE SYMMETRY=1    SPIN SYMMETRY: Singlet 
 CONVERGENCE THRESHOLDS:    1.00E-08 (Density)    1.00E-11 (Energy)
 MAX. NUMBER OF ITERATIONS:       60
 INTERPOLATION TYPE:            DIIS
 INTERPOLATION STEPS:              2 (START)      1 (STEP)
 LEVEL SHIFTS:                  0.00 (CLOSED)  0.00 (OPEN) 



 Orbital guess generated from atomic densities. Full valence occupancy:    9

 Molecular orbital dump at record        2102.2

 Initial occupancy:   5

 ITERATION    DDIFF          GRAD             ENERGY        2-EL.EN.            DIPOLE MOMENTS         DIIS   ORB.
    1      0.000D+00      0.000D+00       -40.19358678     53.494040    0.00411   -0.00277   -0.00129    0    start
    2      0.000D+00      0.353D-02       -40.21070388     52.213685    0.00128   -0.00089   -0.00037    1    diag
    3      0.323D-02      0.137D-02       -40.21295228     52.664855    0.00181   -0.00125   -0.00054    2    diag
    4      0.906D-03      0.342D-03       -40.21326772     52.609828    0.00161   -0.00111   -0.00048    3    diag
    5      0.296D-03      0.444D-04       -40.21327312     52.612167    0.00158   -0.00110   -0.00047    4    diag
    6      0.779D-04      0.344D-05       -40.21327315     52.612264    0.00158   -0.00110   -0.00047    5    diag
    7      0.658D-05      0.264D-06       -40.21327316     52.612230    0.00158   -0.00109   -0.00047    6    diag
    8      0.978D-06      0.221D-07       -40.21327316     52.612230    0.00158   -0.00109   -0.00047    7    diag
    9      0.190D-06      0.287D-08       -40.21327316     52.612230    0.00158   -0.00109   -0.00047    8    diag
   10      0.113D-07      0.804D-09       -40.21327316     52.612230    0.00158   -0.00109   -0.00047    9    orth
   11      0.117D-08      0.107D-09       -40.21327316     52.612230    0.00158   -0.00109   -0.00047    0    orth

 Final occupancy:   5

 !RHF STATE  1.1 Energy               -40.213273155125
 Nuclear energy                        13.68681606
 One-electron energy                  -80.20620437
 Two-electron energy                   26.30611516
 Virial quotient                       -0.99870149
 !RHF STATE  1.1 Dipole moment          0.00157849    -0.00109404    -0.00046555
 Dipole moment /Debye                   0.00401186    -0.00278059    -0.00118324

 Orbital energies:

         1.1          2.1          3.1          4.1          5.1          6.1          7.1
    -11.197208    -0.950742    -0.551696    -0.549760    -0.547581     0.026374     0.039385


 HOMO      5.1    -0.547581 =     -14.9004eV
 LUMO      6.1     0.026374 =       0.7177eV
 LUMO-HOMO         0.573956 =      15.6181eV


 **********************************************************************************************************************************
 DATASETS  * FILE   NREC   LENGTH (MB)   RECORD NAMES
              1      18       32.04       500      610      700      900      950      970     1000      129      960     1100   
                                          VAR    BASINP    GEOM    SYMINP    ZMAT    AOBASIS   BASIS     P2S    ABASIS      S 
                                         1400     1410     1200     1210     1080     1600     1650     1700   
                                           T        V       H0       H01     AOSYM     SMH    MOLCAS    OPER   

              2       9       13.71       700     1000      520     2100     7360     7350      200     2101     2102   
                                         GEOM     BASIS   MCVARS     RHF    F12ABS    EF12    OPTIONS    RHF      RHF  

 PROGRAMS   *        TOTAL    HF-SCF       INT   CCSD(T)    HF-SCF       INT   CCSD(T)    HF-SCF       INT
 CPU TIMES  *       792.41     12.12      0.22    143.19     13.00      0.22    593.62     14.20     15.52
 REAL TIME  *       825.56 SEC
 DISK USED  *       570.60 MB (local),        7.69 GB (total)
 SF USED    *         1.35 GB
 GA USED    *         4.87 MB       (max)       0.00 MB       (current)
 **********************************************************************************************************************************

 Basis set:  JKFIT                   
 Basis size:   740
 Attributes:
 Sphericals:   T
 Basis set:  MP2FIT                  
 Basis size:   816
 Attributes:
 Sphericals:   T
 Basis set:  RI                      
 Basis size:   556
 Attributes:
 Sphericals:   T
 Basis set:  TDDFT                   
 Basis size:   816
 Attributes:
 Sphericals:   T

 PROGRAM * CCSD (Closed-shell coupled cluster)     Authors: C. Hampel, H.-J. Werner, 1991, M. Deegan, P.J. Knowles, 1992

                                  CCSD-F12 implementation by  H.-J. Werner, 2007

                   Density fitting integral evaluation by F.R. Manby, 2003,2007, G. Knizia, 2010



 Convergence thresholds:  THRVAR = 1.00D-08  THRDEN = 1.00D-10

 CCSD(T)     terms to be evaluated (factor= 1.000)


 Number of core orbitals:           1 (   1 )
 Number of closed-shell orbitals:   4 (   4 )
 Number of external orbitals:     225 ( 225 )

 Molecular orbitals read from record     2102.2  Type=RHF/CANONICAL (state 1.1)

 MP2-F12 correlation treatment (H.-J. Werner, 2006)
 ==================================================

 Using MP2-F12 with ansatz 3C(FIX)

 Using projected zeroth-order Hamiltonian (+Z)

 FOCKRIB=T FOCKRIC=T FOCKRIP=T CABSP=T CABSA=T CABSK=T CABSF=T GBC=F EBC=F DMAT=T NOFIK=T NOPAO=1 SOLVE=-1  USEPAO=0
 EXCH_A= T EXCH_B= F EXCH_C= F EXCH_P= F

 Geminal basis:    OPTFULL  GEM_TYPE=SLATER  BETA=1.0  NGEM=6

 Optimizing Gaussian exponents for each gem_beta

 Geminal optimization for beta= 1.0000
 Weight function:   m=0, omega= 1.4646

 Augmented Hessian optimization of geminal fit. Trust ratio= 0.40000
 Convergence reached after   2 iterations. Final gradient= 7.85D-16, Step= 4.26D-06, Delta= 1.28D-09

 Alpha:                 0.19532     0.81920     2.85917     9.50073    35.69989   197.79328
 Coeff:                 0.27070     0.30552     0.18297     0.10986     0.06810     0.04224


 All pairs explicitly correlated. Number of r12-pairs:           10

 Excluding core orbitals from MO domains

 AO(A)-basis ORBITAL           loaded. Number of functions:     230
 RI(R)-basis RI                loaded. Number of functions:     556
 DF-basis JKFIT                loaded. Number of functions:     740

 Screening thresholds:   THRAO=  1.00D-10  THRMO=  1.00D-09  THRPROD=  1.00D-09
                         THRSW=  1.00D-05  THROV=  1.00D-12  THRAOF12= 1.00D-10

 CPU time for Fock operators                      3.27 sec

 Construction of ABS:
 Smallest eigenvalue of S          1.17E-04  (threshold= 1.00E-08)
 Ratio eigmin/eigmax               1.66E-05  (threshold= 1.00E-09)
 Smallest eigenvalue of S kept     1.17E-04  (threshold= 1.17E-04, 0 functions deleted, 556 kept)

 Construction of CABS:
 Smallest eigenvalue of S          7.16E-07  (threshold= 1.00E-08)
 Ratio eigmin/eigmax               7.16E-07  (threshold= 1.00E-09)
 Smallest eigenvalue of S kept     7.16E-07  (threshold= 7.16E-07, 0 functions deleted, 556 kept)

 CPU time for CABS singles                        0.74 sec

 CABS-singles contribution of  -0.00091143 patched into reference energy.
 New reference energy         -40.21418458

 AO(A)-basis ORBITAL           loaded. Number of functions:     230
 RI(R)-basis RI                loaded. Number of functions:     556
 DF-basis MP2FIT               loaded. Number of functions:     816

 Screening thresholds:   THRAO=  1.00D-10  THRMO=  1.00D-09  THRPROD=  1.00D-09
                         THRSW=  1.00D-05  THROV=  1.00D-12  THRAOF12= 1.00D-10

 CPU time for 3-index integral evaluation         5.65 sec
 CPU time for first  half transformation          0.96 sec ( 1446.3 MFLOP/sec)
 CPU time for second half transformation          0.01 sec ( 1378.2 MFLOP/sec)
 CPU time for sorting                             0.05 sec
 CPU time for fitting                             0.35 sec (  932.2 MFLOP/sec)
 CPU time for tilde quantities                    0.46 sec ( 4579.9 MFLOP/sec)
 CPU time for assembly                            1.36 sec ( 3360.5 MFLOP/sec)
 CPU time for tranop_f12                          1.34 sec ( 3365.2 MFLOP/sec)
 CPU time for f12 integrals (total)              12.61 sec, Elapsed time:     13.29 sec
 F12-matrices built in  4 passes.
 F12-matrices built in  4 passes.
 F12-matrices built in  4 passes.
 F12-matrices built in  4 passes.
 FC-matrix built in  4 passes.
 CPU time for f12 matrices (total)                0.32 sec, Elapsed time:      0.35 sec

 Diagonal F12 approximation with fixed coefficients:  TSING= 0.500,  TTRIP= 0.250 (scaled by -1/beta)

 DF-MP2-F12 energy corrections:
 ==============================
 Approx.                                    Singlet             Triplet             Total
 DF-MP2-F12/3*C(DX,FIX)                -0.016715510133     -0.001929049246     -0.018644559379
 DF-MP2-F12/3*C(FIX)                   -0.015477014017     -0.001787271436     -0.017264285453
 DF-MP2-F12/3C(FIX)                    -0.015461638881     -0.001778061086     -0.017239699967

 DF-MP2-F12 correlation energies:
 ================================
 Approx.                                    Singlet             Triplet             Ecorr            Total Energy
 DF-MP2                                -0.145430335565     -0.055064552550     -0.200494888114    -40.414679471566
 DF-MP2-F12/3*C(DX,FIX)                -0.162145845697     -0.056993601796     -0.219139447493    -40.433324030945
 DF-MP2-F12/3*C(FIX)                   -0.160907349581     -0.056851823985     -0.217759173567    -40.431943757018
 DF-MP2-F12/3C(FIX)                    -0.160891974446     -0.056842613636     -0.217734588081    -40.431919171533

 SCS-DF-MP2 energies (F_SING= 1.20000  F_TRIP= 0.62222  F_PARALLEL= 0.33333):
 ============================================================================
 SCS-DF-MP2                            -0.208778790931    -40.422963374382
 SCS-DF-MP2-F12/3*C(DX,FIX)            -0.230037700398    -40.444222283850
 SCS-DF-MP2-F12/3*C(FIX)               -0.228463287755    -40.442647871207
 SCS-DF-MP2-F12/3C(FIX)                -0.228439106708    -40.442623690160
 Symmetry transformation completed.

 Number of N-1 electron functions:               4
 Number of N-2 electron functions:              10
 Number of singly external CSFs:               900
 Number of doubly external CSFs:            405450
 Total number of CSFs:                      406351

 Pair and operator lists are different

 Length of J-op  integral file:              81.60 MB
 Length of K-op  integral file:             128.10 MB
 Length of 3-ext integral record:             0.00 MB

 Memory could be reduced to 75.63 Mwords without degradation in triples

 Integral transformation finished. Total CPU:  14.41 sec, npass=  1  Memory used:  32.52 MW

 Reference energy:                    -40.21418458

 Adding F12 terms to K(Cij), methodcc=6,  factor= 1.0

 ITER.      SQ.NORM     CORR.ENERGY   TOTAL ENERGY   ENERGY CHANGE        DEN1      VAR(S)    VAR(P)  DIIS     TIME  TIME/IT
   1      1.06945897    -0.21556391   -40.42974849    -0.01505905    -0.00938243  0.67D-03  0.94D-03  1  1    37.04     4.25
   2      1.07448646    -0.21613088   -40.43031547    -0.00056698    -0.00524363  0.17D-04  0.83D-04  2  2    41.20     4.28
   3      1.07589330    -0.21628590   -40.43047048    -0.00015502    -0.00097852  0.20D-05  0.51D-05  3  3    45.24     4.29
   4      1.07623144    -0.21629828   -40.43048286    -0.00001238    -0.00017403  0.10D-06  0.25D-06  4  4    49.28     4.29
   5      1.07627612    -0.21629701   -40.43048159     0.00000127    -0.00000981  0.77D-08  0.16D-07  5  5    53.39     4.29
   6      1.07628197    -0.21629602   -40.43048060     0.00000099    -0.00000186  0.56D-09  0.12D-08  6  6    57.52     4.30
   7      1.07628310    -0.21629570   -40.43048029     0.00000031    -0.00000072  0.38D-10  0.93D-10  6  1    61.63     4.30
   8      1.07628311    -0.21629581   -40.43048040    -0.00000011     0.00000013  0.36D-11  0.51D-11  6  3    65.71     4.30
   9      1.07628322    -0.21629580   -40.43048038     0.00000002    -0.00000007  0.29D-12  0.44D-12  6  2    69.79     4.30
  10      1.07628322    -0.21629579   -40.43048038     0.00000000     0.00000000  0.35D-13  0.46D-13  6  4    73.87     4.30
  11      1.07628322    -0.21629579   -40.43048038     0.00000000     0.00000000  0.26D-14  0.47D-14  6  5    77.92     4.30
  12      1.07628322    -0.21629579   -40.43048037     0.00000000     0.00000000  0.54D-16  0.55D-15  6  6    81.97     4.30
  13      1.07628322    -0.21629579   -40.43048037    -0.00000000     0.00000000  0.74D-17  0.62D-16  6  1    86.03     4.30
  14      1.07628322    -0.21629579   -40.43048037    -0.00000000     0.00000000  0.14D-17  0.78D-17  6  3    90.10     4.31

 Norm of t1 vector:      0.03361885      S-energy:     0.00000000      T1 diagnostic:  0.00840471
                                                                       D1 diagnostic:  0.01339603

 Adding energy correction from Wij-K(Fij), methodcc=6  factor= 1.0

  CCSD correlation energy              -0.216295791339
  MP2-F12 correction (uncoupled)       -0.017252765184
  C*T doubles correction               -0.000193395556
  f12b correction                       0.003656496311

 Total CPU time for triples:     41.98 sec

  Ecorr(MP2)                           -0.200504861284
  Ecorr(MP2-F12)                       -0.217744561251
  Scale factor for triples energy       1.085981456295


 RESULTS
 =======

  Reference energy                    -40.213273155125
  F12 singles correction               -0.000911428327

 F12 singles corrections added to reference energy

  New reference energy                -40.214184583452

  F12a singlet correction              -0.015642096668
  F12a triplet correction              -0.001804064072
  F12a total correction                -0.017446160740

 F12a corrections for ansatz F12/3C(FIX) added to CCSD energy

  CCSD-F12a singlet pair energy        -0.178524943643
  CCSD-F12a triplet pair energy        -0.055217008461
  CCSD-F12a correlation energy         -0.233741952079

  Triples (T) contribution (scaled)    -0.006800806401
  Total correlation energy             -0.240542758480

  CCSD-F12a total energy              -40.447926535531
  CCSD[T]-F12a energy                 -40.454966532861
  CCSD-T-F12a energy                  -40.454652560842
 !CCSD(T)-F12a total energy           -40.454727341932

 F12b corrections for ansatz F12/3C(FIX) added to CCSD(T)-F12a energy

  CCSD-F12b singlet pair energy        -0.175039492665
  CCSD-F12b triplet pair energy        -0.055045963128
  CCSD-F12b correlation energy         -0.230085455769

  Triples (T) contribution (scaled)    -0.006800806401
  Total correlation energy             -0.236886262169

  CCSD-F12b total energy              -40.444270039220
  CCSD[T]-F12b energy                 -40.451310036551
  CCSD-T-F12b energy                  -40.450996064531
 !CCSD(T)-F12b total energy           -40.451070845621

 Timing summary (sec):

 STEP                 CPU(USER)    SYS     CPU(TOT)    WALL
 Transformation         14.47      0.73     15.20     15.29
 CCSD iterations        57.02      3.06     60.08     60.33
 Triples                41.98      0.45     42.43     42.49
 MP2-F12                18.64      0.82     19.46     19.56
 F12b energy             3.45      0.14      3.59      3.60

 Program statistics:

 Available memory in ccsd:              1999999866
 Min. memory needed in ccsd:               1862772
 Max. memory used in ccsd:                 2158322
 Max. memory used in cckext:               1445635 (15 integral passes)



 **********************************************************************************************************************************
 DATASETS  * FILE   NREC   LENGTH (MB)   RECORD NAMES
              1      19      222.31       500      610      700      900      950      970     1000      129      960     1100   
                                          VAR    BASINP    GEOM    SYMINP    ZMAT    AOBASIS   BASIS     P2S    ABASIS      S 
                                         1400     1410     1200     1210     1080     1600     1650     1700     1380   
                                           T        V       H0       H01     AOSYM     SMH    MOLCAS    OPER     JKOP   

              2       9       13.71       700     1000      520     2100     7360     7350      200     2101     2102   
                                         GEOM     BASIS   MCVARS     RHF    F12ABS    EF12    OPTIONS    RHF      RHF  

 PROGRAMS   *        TOTAL   CCSD(T)    HF-SCF       INT   CCSD(T)    HF-SCF       INT   CCSD(T)    HF-SCF       INT
 CPU TIMES  *       928.19    135.77     12.12      0.22    143.19     13.00      0.22    593.62     14.20     15.52
 REAL TIME  *       967.60 SEC
 DISK USED  *       570.60 MB (local),        7.69 GB (total)
 SF USED    *         1.35 GB
 GA USED    *         4.87 MB       (max)       0.00 MB       (current)
 **********************************************************************************************************************************
 Molecular orbitals read from record     2102.2  Type=RHF/CANONICAL (state 1.1)
 Occupation numbers read from record     2102.2  Type=RHF/RHF (state 1.1)
 Orbital energies read from record       2102.2  Type=RHF/CANONICAL (state 1.1)
 Redundancy group numbers read from rec  2102.2  Type=RHF/RHF (state 1.1)

 CCSD(T)-F12/aug-cc-pVTZ energy=    -40.451070845621

     CCSD(T)-F12          HF-SCF     CCSD(T)-F12          HF-SCF     CCSD(T)-F12          HF-SCF
    -40.45107085    -40.21327316    -76.36257828    -76.05842090   -116.81420486   -116.27168144
 **********************************************************************************************************************************
 Molpro calculation terminated
