
 Primary working directories    : /scratch/klimes/383164/molpro.9t4nwhAhDA
 Secondary working directories  : /scratch/klimes/383164/molpro.9t4nwhAhDA
 Wavefunction directory         : /scratch/klimes/383164/
 Main file repository           : /scratch/klimes/383164/molpro.9t4nwhAhDA/

 id        : karlovklimes

 Nodes                      nprocs
 nc-20.cc.karlov.mff.cuni.cz    4

 Using customized tuning parameters: mindgm=1; mindgv=20; mindgc=4; mindgr=1; noblas=0; minvec=7
 default implementation of scratch files=sf  


 Variables initialized (930), CPU time= 0.01 sec
                                                                                 !gdirect
 memory,2000,m
 gthresh,orbital=1d-10,energy=1d-10,grid=1d-8
 
 symmetry,nosym
 angstrom
 geometry={
 O15        -6.012300000000     -1.326900000000      0.948000000000
 H29        -5.145500000000     -1.802000000000      0.952300000000
 H30        -6.682100000000     -2.019400000000      0.881700000000
 C1        -3.277200000000      1.482500000000      1.271900000000
 H41        -2.464000000000      0.899600000000      1.651000000000
 H42        -3.160800000000      2.501000000000      1.578500000000
 H43        -4.201800000000      1.099200000000      1.650100000000
 H44        -3.268500000000      1.421000000000      0.203700000000
 }
 
 nkerna=1
 nkernb=1
 
 gf=0
 sing=1
 thrdum=1d-4
 gridthr=1d-8
 
 basis={
 set,orbital
 default,avtz
 set,jkfit
 default,avqz/jkfit
 set,mp2fit
 default,avqz/mp2fit
 set,ri
 default,avqz/optri
 set,tddft
 default,avqz/mp2fit
 }
 
 proc set_monomer1
 dummy,4,5,6,7,8
 endproc
 
 proc set_monomer2
 dummy,1,2,3
 endproc
 
                                                                                 !12 energy
 {hf,accu=1.d-16}
 {ccsd(t)-f12,df_basis=mp2fit,df_basis_exch=jkfit,ri_basis=ri,scale_trip=1,THRAOF12=1d-10}
 
 set_monomer1
 {hf,accu=1.d-16}
 {ccsd(t)-f12,df_basis=mp2fit,df_basis_exch=jkfit,ri_basis=ri,scale_trip=1,THRAOF12=1d-10}
 
 set_monomer2
 {hf,accu=1.d-16}
 {ccsd(t)-f12,df_basis=mp2fit,df_basis_exch=jkfit,ri_basis=ri,scale_trip=1,THRAOF12=1d-10}
 
 Commands  initialized (760), CPU time= 0.02 sec, 617 directives.
 Default parameters read. Elapsed time= 0.21 sec

 Checking input...
 Passed
1


                                         ***  PROGRAM SYSTEM MOLPRO  ***
                                       Copyright, TTI GmbH Stuttgart, 2015
                                    Version 2019.1 linked Jan 14 2019 13:09:19


 **********************************************************************************************************************************
 LABEL *                                                                                 
  64 bit mpp version                                                                     DATE: 11-Mar-20          TIME: 16:21:56  
 **********************************************************************************************************************************

 SHA1:             d688ac825633d238f2093ded1675ba87ccd55965
 **********************************************************************************************************************************

 THRESHOLDS:

 ZERO    =  1.00D-12  ONEINT  =  1.00D-12  TWOINT  =  1.00D-11  PREFAC  =  1.00D-14  XXXXXX  =  1.00D-09  EORDER  =  1.00D-04
 ENERGY  =  1.00D-10  ETEST   =  0.00D+00  EDENS   =  0.00D+00  THRDEDEF=  1.00D-06  GRADIENT=  1.00D-02  STEP    =  1.00D-03
 ORBITAL =  1.00D-10  CIVEC   =  1.00D-05  COEFF   =  1.00D-04  PRINTCI =  5.00D-02  PUNCHCI =  9.90D+01  OPTGRAD =  3.00D-04
 OPTENERG=  1.00D-06  OPTSTEP =  3.00D-04  THRGRAD =  1.00D-10  COMPRESS=  1.00D-11  VARMIN  =  1.00D-07  VARMAX  =  1.00D-03
 THRDOUB =  0.00D+00  THRDIV  =  1.00D-05  THRRED  =  1.00D-07  THRPSP  =  1.00D+00  THRDC   =  1.00D-10  THRCS   =  1.00D-10
 THRNRM  =  1.00D-08  THREQ   =  0.00D+00  THRDE   =  1.00D+00  THRREF  =  1.00D-05  SPARFAC =  1.00D+00  THRDLP  =  1.00D-07
 THRDIA  =  1.00D-10  THRDLS  =  1.00D-07  THRGPS  =  0.00D+00  THRKEX  =  0.00D+00  THRDIS  =  2.00D-01  THRVAR  =  1.00D-10
 THRLOC  =  1.00D-06  THRGAP  =  1.00D-06  THRLOCT = -1.00D+00  THRGAPT = -1.00D+00  THRORB  =  1.00D-06  THRMLTP =  0.00D+00
 THRCPQCI=  1.00D-10  KEXTA   =  0.00D+00  THRCOARS=  0.00D+00  SYMTOL  =  1.00D-06  GRADTOL =  1.00D-06  THROVL  =  1.00D-08
 THRORTH =  1.00D-08  GRID    =  1.00D-08  GRIDMAX =  1.00D-03  DTMAX   =  0.00D+00  THROCCDE=  1.00D-01  THROCCDE=  1.00D-01
 THRPRINT=  2.50D-01


 Variable memory set to 2000000000 words,  buffer space 

 ZSYMEL=NOSYM
 ZUNIT=ANG


Geometry recognized as XYZ

 SETTING NKERNA         =         1.00000000                                  
 SETTING NKERNB         =         1.00000000                                  
 SETTING GF             =     0.00000000D+00                                  
 SETTING SING           =         1.00000000                                  
 SETTING THRDUM         =     1.00000000D-04                                  
 SETTING GRIDTHR        =     1.00000000D-08                                  
 SETTING BASIS          =    AVTZ


 Recomputing integrals since basis changed


 Using spherical harmonics

 Library entry O      S aug-cc-pVTZ          selected for orbital group  1
 Library entry O      P aug-cc-pVTZ          selected for orbital group  1
 Library entry O      D aug-cc-pVTZ          selected for orbital group  1
 Library entry O      F aug-cc-pVTZ          selected for orbital group  1
 Library entry H      S aug-cc-pVTZ          selected for orbital group  2
 Library entry H      P aug-cc-pVTZ          selected for orbital group  2
 Library entry H      D aug-cc-pVTZ          selected for orbital group  2
 Library entry C      S aug-cc-pVTZ          selected for orbital group  3
 Library entry C      P aug-cc-pVTZ          selected for orbital group  3
 Library entry C      D aug-cc-pVTZ          selected for orbital group  3
 Library entry C      F aug-cc-pVTZ          selected for orbital group  3


 PROGRAM * SEWARD (Integral evaluation for generally contracted gaussian basis sets)     Author: Roland Lindh, 1990

 Geometry written to block  1 of record 700


 Point group  C1  



 ATOMIC COORDINATES

 NR  ATOM    CHARGE       X              Y              Z

   1  O15     8.00  -11.361600379   -2.507477595    1.791460366
   2  H29     1.00   -9.723585774   -3.405286476    1.799586188
   3  H30     1.00  -12.627338937   -3.816112936    1.666171524
   4  C1      6.00   -6.193010455    2.801518980    2.403542658
   5  H41     1.00   -4.656285171    1.699997622    3.119937832
   6  H42     1.00   -5.973046335    4.726205038    2.982932688
   7  H43     1.00   -7.940251230    2.077186956    3.118237078
   8  H44     1.00   -6.176569838    2.685300823    0.384937212

 Bond lengths in Bohr (Angstrom)

 1-2  1.867945037  1-3  1.824915847  4-5  2.021904040  4-6  2.022002335  4-7  2.021953343
     ( 0.988473945)     ( 0.965703878)     ( 1.069945541)     ( 1.069997556)     ( 1.069971630)

 4-8  2.022015060
     ( 1.070004290)

 Bond angles

  2-1-3  105.29843553   5-4-6  109.53398059   5-4-7  109.65604535   5-4-8  108.43490854

  6-4-7  109.49436728   6-4-8  109.86987750   7-4-8  109.83468330

 NUCLEAR CHARGE:                   20
 NUMBER OF PRIMITIVE AOS:         296
 NUMBER OF SYMMETRY AOS:          266
 NUMBER OF CONTRACTIONS:          230   (  230A   )
 NUMBER OF CORE ORBITALS:           2   (    2A   )
 NUMBER OF VALENCE ORBITALS:       14   (   14A   )


 NUCLEAR REPULSION ENERGY   35.93228190


 Basis set:  JKFIT                   
 Basis size:   740
 Attributes:
 Sphericals:   T
 Basis set:  MP2FIT                  
 Basis size:   816
 Attributes:
 Sphericals:   T
 Basis set:  RI                      
 Basis size:   556
 Attributes:
 Sphericals:   T
 Basis set:  TDDFT                   
 Basis size:   816
 Attributes:
 Sphericals:   T

 **********************************************************************************************************************************


 Eigenvalues of metric

         1 0.641E-04 0.753E-04 0.898E-04 0.106E-03 0.332E-03 0.352E-03 0.677E-03 0.751E-03


 Contracted 2-electron integrals neglected if value below      1.0D-14
 AO integral compression algorithm  1   Integral accuracy      1.0D-14

     2068.316 MB (compressed) written to integral file ( 64.5%)

     Node minimum: 494.141 MB, node maximum: 556.794 MB


 NUMBER OF SORTED TWO-ELECTRON INTEGRALS:   88219044.     BUFFER LENGTH:  32768
 NUMBER OF SEGMENTS:   6  SEGMENT LENGTH:   15998348      RECORD LENGTH: 524288

 Memory used in sort:      16.56 MW

 SORT1 READ   400769927. AND WROTE    79836727. INTEGRALS IN    231 RECORDS. CPU TIME:     7.03 SEC, REAL TIME:     8.28 SEC
 SORT2 READ   319161774. AND WROTE   352862895. INTEGRALS IN   7540 RECORDS. CPU TIME:     1.51 SEC, REAL TIME:     2.57 SEC

 Node minimum:    88205762.  Node maximum:    88225686. integrals

 OPERATOR DM      FOR CENTER  0  COORDINATES:    0.000000    0.000000    0.000000


 **********************************************************************************************************************************
 DATASETS  * FILE   NREC   LENGTH (MB)   RECORD NAMES
              1      18       32.04       500      610      700      900      950      970     1000      129      960     1100   
                                          VAR    BASINP    GEOM    SYMINP    ZMAT    AOBASIS   BASIS     P2S    ABASIS      S 
                                         1400     1410     1200     1210     1080     1600     1650     1700   
                                           T        V       H0       H01     AOSYM     SMH    MOLCAS    OPER   

 PROGRAMS   *        TOTAL       INT
 CPU TIMES  *        13.44     13.20
 REAL TIME  *        18.50 SEC
 DISK USED  *        32.49 MB (local),        5.98 GB (total)
 GA USED    *         0.00 MB       (max)       0.00 MB       (current)
 **********************************************************************************************************************************


 PROGRAM * RHF-SCF (CLOSED SHELL)       Authors: W. Meyer, H.-J. Werner


 NUMBER OF ELECTRONS:      10+   10-    SPACE SYMMETRY=1    SPIN SYMMETRY: Singlet 
 CONVERGENCE THRESHOLDS:    1.00E-08 (Density)    1.00E-11 (Energy)
 MAX. NUMBER OF ITERATIONS:       60
 INTERPOLATION TYPE:            DIIS
 INTERPOLATION STEPS:              2 (START)      1 (STEP)
 LEVEL SHIFTS:                  0.00 (CLOSED)  0.00 (OPEN) 



 Orbital guess generated from atomic densities. Full valence occupancy:   16

 Molecular orbital dump at record        2100.2

 Initial occupancy:  10

 ITERATION    DDIFF          GRAD             ENERGY        2-EL.EN.            DIPOLE MOMENTS         DIIS   ORB.
    1      0.000D+00      0.000D+00      -116.21408751    157.565239    0.19979   -1.13528   -0.06156    0    start
    2      0.000D+00      0.522D-02      -116.25770903    152.564085    0.05586   -0.66845   -0.03883    1    diag
    3      0.549D-02      0.306D-02      -116.27102908    154.622125    0.08892   -0.78740   -0.04393    2    diag
    4      0.182D-02      0.451D-03      -116.27167336    154.510078    0.08591   -0.77693   -0.04307    3    diag
    5      0.400D-03      0.132D-03      -116.27173929    154.504592    0.08474   -0.77662   -0.04294    4    diag
    6      0.143D-03      0.322D-04      -116.27174300    154.510373    0.08435   -0.77586   -0.04284    5    diag
    7      0.393D-04      0.620D-05      -116.27174322    154.508887    0.08430   -0.77585   -0.04282    6    diag
    8      0.108D-04      0.155D-05      -116.27174323    154.509023    0.08426   -0.77578   -0.04281    7    diag
    9      0.231D-05      0.352D-06      -116.27174324    154.508998    0.08426   -0.77576   -0.04281    8    diag
   10      0.744D-06      0.410D-07      -116.27174324    154.508999    0.08426   -0.77576   -0.04281    9    orth
   11      0.614D-07      0.995D-08      -116.27174324    154.509000    0.08426   -0.77576   -0.04281    9    diag
   12      0.226D-07      0.252D-08      -116.27174324    154.509000    0.08426   -0.77576   -0.04281    9    diag
   13      0.394D-08      0.673D-09      -116.27174324    154.509000    0.08426   -0.77576   -0.04281    0    orth

 Final occupancy:  10

 !RHF STATE  1.1 Energy              -116.271743235316
 Nuclear energy                        35.93228190
 One-electron energy                 -229.45852517
 Two-electron energy                   77.25450004
 Virial quotient                       -1.00105500
 !RHF STATE  1.1 Dipole moment          0.08425664    -0.77575735    -0.04280976
 Dipole moment /Debye                   0.21414500    -1.97164938    -0.10880442

 Orbital energies:

         1.1          2.1          3.1          4.1          5.1          6.1          7.1          8.1          9.1         10.1
    -20.570772   -11.189897    -1.343761    -0.943779    -0.709236    -0.580759    -0.544931    -0.541487    -0.541029    -0.509109

        11.1         12.1
      0.026604     0.040133


 HOMO     10.1    -0.509109 =     -13.8536eV
 LUMO     11.1     0.026604 =       0.7239eV
 LUMO-HOMO         0.535714 =      14.5775eV


 **********************************************************************************************************************************
 DATASETS  * FILE   NREC   LENGTH (MB)   RECORD NAMES
              1      18       32.04       500      610      700      900      950      970     1000      129      960     1100   
                                          VAR    BASINP    GEOM    SYMINP    ZMAT    AOBASIS   BASIS     P2S    ABASIS      S 
                                         1400     1410     1200     1210     1080     1600     1650     1700   
                                           T        V       H0       H01     AOSYM     SMH    MOLCAS    OPER   

              2       4        3.96       700     1000      520     2100   
                                         GEOM     BASIS   MCVARS     RHF  

 PROGRAMS   *        TOTAL    HF-SCF       INT
 CPU TIMES  *        28.21     14.77     13.20
 REAL TIME  *        34.28 SEC
 DISK USED  *        39.90 MB (local),        6.01 GB (total)
 SF USED    *         0.21 MB
 GA USED    *         0.00 MB       (max)       0.00 MB       (current)
 **********************************************************************************************************************************

 Basis set:  JKFIT                   
 Basis size:   740
 Attributes:
 Sphericals:   T
 Basis set:  MP2FIT                  
 Basis size:   816
 Attributes:
 Sphericals:   T
 Basis set:  RI                      
 Basis size:   556
 Attributes:
 Sphericals:   T
 Basis set:  TDDFT                   
 Basis size:   816
 Attributes:
 Sphericals:   T

 PROGRAM * CCSD (Closed-shell coupled cluster)     Authors: C. Hampel, H.-J. Werner, 1991, M. Deegan, P.J. Knowles, 1992

                                  CCSD-F12 implementation by  H.-J. Werner, 2007

                   Density fitting integral evaluation by F.R. Manby, 2003,2007, G. Knizia, 2010



 Convergence thresholds:  THRVAR = 1.00D-08  THRDEN = 1.00D-10

 CCSD(T)     terms to be evaluated (factor= 1.000)


 Number of core orbitals:           2 (   2 )
 Number of closed-shell orbitals:   8 (   8 )
 Number of external orbitals:     220 ( 220 )

 Molecular orbitals read from record     2100.2  Type=RHF/CANONICAL (state 1.1)

 MP2-F12 correlation treatment (H.-J. Werner, 2006)
 ==================================================

 Using MP2-F12 with ansatz 3C(FIX)

 Using projected zeroth-order Hamiltonian (+Z)

 FOCKRIB=T FOCKRIC=T FOCKRIP=T CABSP=T CABSA=T CABSK=T CABSF=T GBC=F EBC=F DMAT=T NOFIK=T NOPAO=1 SOLVE=-1  USEPAO=0
 EXCH_A= T EXCH_B= F EXCH_C= F EXCH_P= F

 Geminal basis:    OPTFULL  GEM_TYPE=SLATER  BETA=1.0  NGEM=6

 Optimizing Gaussian exponents for each gem_beta

 Geminal optimization for beta= 1.0000
 Weight function:   m=0, omega= 1.4646

 Augmented Hessian optimization of geminal fit. Trust ratio= 0.40000
 Convergence reached after   2 iterations. Final gradient= 7.85D-16, Step= 4.26D-06, Delta= 1.28D-09

 Alpha:                 0.19532     0.81920     2.85917     9.50073    35.69989   197.79328
 Coeff:                 0.27070     0.30552     0.18297     0.10986     0.06810     0.04224


 All pairs explicitly correlated. Number of r12-pairs:           36

 Excluding core orbitals from MO domains

 AO(A)-basis ORBITAL           loaded. Number of functions:     230
 RI(R)-basis RI                loaded. Number of functions:     556
 DF-basis JKFIT                loaded. Number of functions:     740

 Screening thresholds:   THRAO=  1.00D-10  THRMO=  1.00D-09  THRPROD=  1.00D-09
                         THRSW=  1.00D-05  THROV=  1.00D-12  THRAOF12= 1.00D-10

 CPU time for Fock operators                      3.65 sec

 Construction of ABS:
 Smallest eigenvalue of S          1.17E-04  (threshold= 1.00E-08)
 Ratio eigmin/eigmax               1.66E-05  (threshold= 1.00E-09)
 Smallest eigenvalue of S kept     1.17E-04  (threshold= 1.17E-04, 0 functions deleted, 556 kept)

 Construction of CABS:
 Smallest eigenvalue of S          7.03E-07  (threshold= 1.00E-08)
 Ratio eigmin/eigmax               7.03E-07  (threshold= 1.00E-09)
 Smallest eigenvalue of S kept     7.03E-07  (threshold= 7.03E-07, 0 functions deleted, 556 kept)

 CPU time for CABS singles                        0.67 sec

 CABS-singles contribution of  -0.00238497 patched into reference energy.
 New reference energy        -116.27412821

 AO(A)-basis ORBITAL           loaded. Number of functions:     230
 RI(R)-basis RI                loaded. Number of functions:     556
 DF-basis MP2FIT               loaded. Number of functions:     816

 Screening thresholds:   THRAO=  1.00D-10  THRMO=  1.00D-09  THRPROD=  1.00D-09
                         THRSW=  1.00D-05  THROV=  1.00D-12  THRAOF12= 1.00D-10

 CPU time for 3-index integral evaluation         5.13 sec
 CPU time for first  half transformation          1.12 sec ( 2682.2 MFLOP/sec)
 CPU time for second half transformation          0.02 sec ( 2375.4 MFLOP/sec)
 CPU time for sorting                             0.06 sec
 CPU time for fitting                             0.55 sec ( 3951.6 MFLOP/sec)
 CPU time for tilde quantities                    0.62 sec ( 4450.5 MFLOP/sec)
 CPU time for assembly                            4.50 sec ( 4397.3 MFLOP/sec)
 CPU time for tranop_f12                          4.51 sec ( 4232.8 MFLOP/sec)
 CPU time for f12 integrals (total)              23.34 sec, Elapsed time:     24.21 sec
 F12-matrices built in  4 passes.
 F12-matrices built in  4 passes.
 F12-matrices built in  4 passes.
 F12-matrices built in  4 passes.
 FC-matrix built in  4 passes.
 CPU time for f12 matrices (total)                1.14 sec, Elapsed time:      1.17 sec

 Diagonal F12 approximation with fixed coefficients:  TSING= 0.500,  TTRIP= 0.250 (scaled by -1/beta)

 DF-MP2-F12 energy corrections:
 ==============================
 Approx.                                    Singlet             Triplet             Total
 DF-MP2-F12/3*C(DX,FIX)                -0.046255122554     -0.006808947042     -0.053064069596
 DF-MP2-F12/3*C(FIX)                   -0.039940251641     -0.005615327939     -0.045555579580
 DF-MP2-F12/3C(FIX)                    -0.040055946245     -0.005579951053     -0.045635897298

 DF-MP2-F12 correlation energies:
 ================================
 Approx.                                    Singlet             Triplet             Ecorr            Total Energy
 DF-MP2                                -0.317275144560     -0.153751735968     -0.471026880528   -116.745155087661
 DF-MP2-F12/3*C(DX,FIX)                -0.363530267113     -0.160560683010     -0.524090950124   -116.798219157257
 DF-MP2-F12/3*C(FIX)                   -0.357215396201     -0.159367063907     -0.516582460108   -116.790710667241
 DF-MP2-F12/3C(FIX)                    -0.357331090804     -0.159331687021     -0.516662777825   -116.790790984959

 SCS-DF-MP2 energies (F_SING= 1.20000  F_TRIP= 0.62222  F_PARALLEL= 0.33333):
 ============================================================================
 SCS-DF-MP2                            -0.476397920296   -116.750526127430
 SCS-DF-MP2-F12/3*C(DX,FIX)            -0.536140745520   -116.810268952654
 SCS-DF-MP2-F12/3*C(FIX)               -0.527820204094   -116.801948411228
 SCS-DF-MP2-F12/3C(FIX)                -0.527937025334   -116.802065232467
 Symmetry transformation completed.

 Number of N-1 electron functions:               8
 Number of N-2 electron functions:              36
 Number of singly external CSFs:              1760
 Number of doubly external CSFs:           1549680
 Total number of CSFs:                     1551441

 Pair and operator lists are different

 Length of J-op  integral file:             315.61 MB
 Length of K-op  integral file:             368.50 MB
 Length of 3-ext integral record:             0.00 MB

 Memory could be reduced to 116.32 Mwords without degradation in triples

 Integral transformation finished. Total CPU:  24.46 sec, npass=  1  Memory used:  59.34 MW

 Reference energy:                   -116.27412821

 Adding F12 terms to K(Cij), methodcc=6,  factor= 1.0

 ITER.      SQ.NORM     CORR.ENERGY   TOTAL ENERGY   ENERGY CHANGE        DEN1      VAR(S)    VAR(P)  DIIS     TIME  TIME/IT
   1      1.13190880    -0.48566180  -116.75979001    -0.01461717    -0.00301708  0.15D-02  0.20D-02  1  1    69.92    14.65
   2      1.14010590    -0.48592067  -116.76004888    -0.00025887    -0.00966529  0.28D-04  0.22D-03  2  2    84.57    14.76
   3      1.14297153    -0.48617768  -116.76030589    -0.00025701    -0.00197101  0.12D-04  0.12D-04  3  3    99.24    14.79
   4      1.14384102    -0.48623293  -116.76036114    -0.00005525    -0.00047979  0.52D-06  0.10D-05  4  4   113.94    14.82
   5      1.14398356    -0.48622750  -116.76035571     0.00000543    -0.00003809  0.18D-06  0.72D-07  5  5   128.61    14.83
   6      1.14402254    -0.48622475  -116.76035295     0.00000275    -0.00000579  0.16D-07  0.51D-08  6  6   143.16    14.82
   7      1.14403134    -0.48622402  -116.76035223     0.00000072    -0.00000234  0.13D-08  0.68D-09  6  2   157.82    14.83
   8      1.14403318    -0.48622400  -116.76035220     0.00000003    -0.00000009  0.21D-09  0.66D-10  6  1   172.46    14.84
   9      1.14403384    -0.48622402  -116.76035222    -0.00000002    -0.00000006  0.19D-10  0.12D-10  6  3   187.10    14.84
  10      1.14403394    -0.48622401  -116.76035222     0.00000000     0.00000006  0.28D-11  0.14D-11  6  4   201.71    14.84
  11      1.14403389    -0.48622402  -116.76035223    -0.00000001     0.00000007  0.50D-12  0.22D-12  6  5   216.43    14.85
  12      1.14403386    -0.48622402  -116.76035223    -0.00000000     0.00000002  0.98D-13  0.30D-13  6  6   231.19    14.85
  13      1.14403384    -0.48622402  -116.76035223    -0.00000000     0.00000001  0.15D-13  0.44D-14  6  2   245.83    14.86
  14      1.14403383    -0.48622402  -116.76035223    -0.00000000     0.00000000  0.18D-14  0.95D-15  6  1   260.58    14.86
  15      1.14403383    -0.48622402  -116.76035223    -0.00000000    -0.00000000  0.22D-15  0.10D-15  6  3   275.24    14.86
  16      1.14403383    -0.48622402  -116.76035223     0.00000000    -0.00000000  0.32D-16  0.15D-16  6  4   289.94    14.87

 Norm of t1 vector:      0.05023655      S-energy:     0.00000000      T1 diagnostic:  0.00888065
                                                                       D1 diagnostic:  0.01861469

 Adding energy correction from Wij-K(Fij), methodcc=6  factor= 1.0

  CCSD correlation energy              -0.486224021118
  MP2-F12 correction (uncoupled)       -0.045377609669
  C*T doubles correction               -0.000609251813
  f12b correction                       0.008422382160


 Total CPU time for triples:    223.22 sec

  Ecorr(MP2)                           -0.471044633241
  Ecorr(MP2-F12)                       -0.516680530539
  Scale factor for triples energy       1.096882320861


 RESULTS
 =======

  Reference energy                   -116.271743235315
  F12 singles correction               -0.002384971819

 F12 singles corrections added to reference energy

  New reference energy               -116.274128207134

  F12a singlet correction              -0.040310844341
  F12a triplet correction              -0.005676017141
  F12a total correction                -0.045986861482

 F12a corrections for ansatz F12/3C(FIX) added to CCSD energy

  CCSD-F12a singlet pair energy        -0.385926678116
  CCSD-F12a triplet pair energy        -0.146284204632
  CCSD-F12a correlation energy         -0.532210882600

  Triples (T) contribution (scaled)    -0.016429529035
  Total correlation energy             -0.548640411635

  CCSD-F12a total energy             -116.806339089734
  CCSD[T]-F12a energy                -116.823356657688
  CCSD-T-F12a energy                 -116.822550796997
 !CCSD(T)-F12a total energy          -116.822768618768

 F12b corrections for ansatz F12/3C(FIX) added to CCSD(T)-F12a energy

  CCSD-F12b singlet pair energy        -0.378035622077
  CCSD-F12b triplet pair energy        -0.145752878511
  CCSD-F12b correlation energy         -0.523788500440

  Triples (T) contribution (scaled)    -0.016429529035
  Total correlation energy             -0.540218029474

  CCSD-F12b total energy             -116.797916707573
  CCSD[T]-F12b energy                -116.814934275527
  CCSD-T-F12b energy                 -116.814128414836
 !CCSD(T)-F12b total energy          -116.814346236608

 Timing summary (sec):

 STEP                 CPU(USER)    SYS     CPU(TOT)    WALL
 Transformation         24.64      0.76     25.40     25.41
 CCSD iterations       234.58      3.06    237.64    237.91
 Triples               223.22      0.78    224.00    224.25
 MP2-F12                30.74      1.08     31.82     31.89
 F12b energy            11.24      0.07     11.31     11.33

 Program statistics:

 Available memory in ccsd:              1999999554
 Min. memory needed in ccsd:               4597329
 Max. memory used in ccsd:                 5918289
 Max. memory used in cckext:               4231061 (17 integral passes)



 **********************************************************************************************************************************
 DATASETS  * FILE   NREC   LENGTH (MB)   RECORD NAMES
              1      19      398.06       500      610      700      900      950      970     1000      129      960     1100   
                                          VAR    BASINP    GEOM    SYMINP    ZMAT    AOBASIS   BASIS     P2S    ABASIS      S 
                                         1400     1410     1200     1210     1080     1600     1650     1700     1380   
                                           T        V       H0       H01     AOSYM     SMH    MOLCAS    OPER     JKOP   

              2       6        5.03       700     1000      520     2100     7360     7350   
                                         GEOM     BASIS   MCVARS     RHF    F12ABS    EF12   

 PROGRAMS   *        TOTAL   CCSD(T)    HF-SCF       INT
 CPU TIMES  *       552.86    524.64     14.77     13.20
 REAL TIME  *       565.92 SEC
 DISK USED  *       570.60 MB (local),        7.63 GB (total)
 SF USED    *         1.36 GB
 GA USED    *         4.87 MB       (max)       0.00 MB       (current)
 **********************************************************************************************************************************

 Running procedure: SET_MONOMER1

 Dummy atoms: C1  H41  H42  H43  H44


 Recomputing one-electron integrals since nuclear charges changed


 PROGRAM * SEWARD (Integral evaluation for generally contracted gaussian basis sets)     Author: Roland Lindh, 1990

 Geometry written to block  1 of record 700


 Point group  C1  



 ATOMIC COORDINATES

 NR  ATOM    CHARGE       X              Y              Z

   1  O15     8.00  -11.361600379   -2.507477595    1.791460366
   2  H29     1.00   -9.723585774   -3.405286476    1.799586188
   3  H30     1.00  -12.627338937   -3.816112936    1.666171524
   4  C1      0.00   -6.193010455    2.801518980    2.403542658
   5  H41     0.00   -4.656285171    1.699997622    3.119937832
   6  H42     0.00   -5.973046335    4.726205038    2.982932688
   7  H43     0.00   -7.940251230    2.077186956    3.118237078
   8  H44     0.00   -6.176569838    2.685300823    0.384937212

 Bond lengths in Bohr (Angstrom)

 1-2  1.867945037  1-3  1.824915847  4-5  2.021904040  4-6  2.022002335  4-7  2.021953343
     ( 0.988473945)     ( 0.965703878)     ( 1.069945541)     ( 1.069997556)     ( 1.069971630)

 4-8  2.022015060
     ( 1.070004290)

 Bond angles

  2-1-3  105.29843553   5-4-6  109.53398059   5-4-7  109.65604535   5-4-8  108.43490854

  6-4-7  109.49436728   6-4-8  109.86987750   7-4-8  109.83468330

 NUCLEAR CHARGE:                   10
 NUMBER OF PRIMITIVE AOS:         296
 NUMBER OF SYMMETRY AOS:          266
 NUMBER OF CONTRACTIONS:          230   (  230A   )
 NUMBER OF CORE ORBITALS:           1   (    1A   )
 NUMBER OF VALENCE ORBITALS:        6   (    6A   )

 MOLECULE CHANGED: INITIALIZING OCCUPATION AND DUMP RECORDS


 NUCLEAR REPULSION ENERGY    9.00717880

 Basis set:  JKFIT                   
 Basis size:   740
 Attributes:
 Sphericals:   T
 Basis set:  MP2FIT                  
 Basis size:   816
 Attributes:
 Sphericals:   T
 Basis set:  RI                      
 Basis size:   556
 Attributes:
 Sphericals:   T
 Basis set:  TDDFT                   
 Basis size:   816
 Attributes:
 Sphericals:   T

 Eigenvalues of metric

         1 0.641E-04 0.753E-04 0.898E-04 0.106E-03 0.332E-03 0.352E-03 0.677E-03 0.751E-03


 Contracted 2-electron integrals neglected if value below      1.0D-14

 OPERATOR DM      FOR CENTER  0  COORDINATES:    0.000000    0.000000    0.000000


 **********************************************************************************************************************************
 DATASETS  * FILE   NREC   LENGTH (MB)   RECORD NAMES
              1      18       32.04       500      610      700      900      950      970     1000      129      960     1100   
                                          VAR    BASINP    GEOM    SYMINP    ZMAT    AOBASIS   BASIS     P2S    ABASIS      S 
                                         1400     1410     1200     1210     1080     1600     1650     1700   
                                           T        V       H0       H01     AOSYM     SMH    MOLCAS    OPER   

              2       7        5.05       700     1000      520     2100     7360     7350      200   
                                         GEOM     BASIS   MCVARS     RHF    F12ABS    EF12    OPTIONS    

 PROGRAMS   *        TOTAL       INT   CCSD(T)    HF-SCF       INT
 CPU TIMES  *       553.12      0.25    524.64     14.77     13.20
 REAL TIME  *       566.66 SEC
 DISK USED  *       570.60 MB (local),        7.63 GB (total)
 SF USED    *         1.36 GB
 GA USED    *         4.87 MB       (max)       0.00 MB       (current)
 **********************************************************************************************************************************


 PROGRAM * RHF-SCF (CLOSED SHELL)       Authors: W. Meyer, H.-J. Werner


 NUMBER OF ELECTRONS:       5+    5-    SPACE SYMMETRY=1    SPIN SYMMETRY: Singlet 
 CONVERGENCE THRESHOLDS:    1.00E-08 (Density)    1.00E-11 (Energy)
 MAX. NUMBER OF ITERATIONS:       60
 INTERPOLATION TYPE:            DIIS
 INTERPOLATION STEPS:              2 (START)      1 (STEP)
 LEVEL SHIFTS:                  0.00 (CLOSED)  0.00 (OPEN) 



 Orbital guess generated from atomic densities. Full valence occupancy:    7

 Molecular orbital dump at record        2101.2

 Initial occupancy:   5

 ITERATION    DDIFF          GRAD             ENERGY        2-EL.EN.            DIPOLE MOMENTS         DIIS   ORB.
    1      0.000D+00      0.000D+00       -76.02016567     77.391357    0.19843   -1.13034   -0.05975    0    start
    2      0.000D+00      0.640D-02       -76.04681722     73.763718    0.10858   -0.65920   -0.03510    1    diag
    3      0.444D-02      0.408D-02       -76.05816239     75.366864    0.12936   -0.77618   -0.04128    2    diag
    4      0.160D-02      0.376D-03       -76.05835337     75.277533    0.12721   -0.77193   -0.04110    3    diag
    5      0.209D-03      0.105D-03       -76.05837339     75.291632    0.12635   -0.77033   -0.04104    4    diag
    6      0.679D-04      0.204D-04       -76.05837463     75.290758    0.12611   -0.77004   -0.04103    5    diag
    7      0.173D-04      0.403D-05       -76.05837469     75.290885    0.12605   -0.76992   -0.04103    6    diag
    8      0.453D-05      0.745D-06       -76.05837469     75.290870    0.12603   -0.76988   -0.04103    7    diag
    9      0.774D-06      0.954D-07       -76.05837469     75.290861    0.12603   -0.76988   -0.04103    8    diag
   10      0.982D-07      0.240D-07       -76.05837469     75.290864    0.12603   -0.76988   -0.04103    9    orth
   11      0.244D-07      0.502D-08       -76.05837469     75.290864    0.12603   -0.76988   -0.04103    9    diag
   12      0.559D-08      0.950D-09       -76.05837469     75.290863    0.12603   -0.76988   -0.04103    0    orth

 Final occupancy:   5

 !RHF STATE  1.1 Energy               -76.058374691613
 Nuclear energy                         9.00717880
 One-electron energy                 -122.71098520
 Two-electron energy                   37.64543171
 Virial quotient                       -1.00232785
 !RHF STATE  1.1 Dipole moment          0.12603165    -0.76987742    -0.04102608
 Dipole moment /Debye                   0.32031952    -1.95670505    -0.10427107

 Orbital energies:

         1.1          2.1          3.1          4.1          5.1          6.1          7.1
    -20.570256    -1.343141    -0.708583    -0.579569    -0.508512     0.023181     0.036274


 HOMO      5.1    -0.508512 =     -13.8373eV
 LUMO      6.1     0.023181 =       0.6308eV
 LUMO-HOMO         0.531693 =      14.4681eV


 **********************************************************************************************************************************
 DATASETS  * FILE   NREC   LENGTH (MB)   RECORD NAMES
              1      18       32.04       500      610      700      900      950      970     1000      129      960     1100   
                                          VAR    BASINP    GEOM    SYMINP    ZMAT    AOBASIS   BASIS     P2S    ABASIS      S 
                                         1400     1410     1200     1210     1080     1600     1650     1700   
                                           T        V       H0       H01     AOSYM     SMH    MOLCAS    OPER   

              2       8        9.09       700     1000      520     2100     7360     7350      200     2101   
                                         GEOM     BASIS   MCVARS     RHF    F12ABS    EF12    OPTIONS    RHF  

 PROGRAMS   *        TOTAL    HF-SCF       INT   CCSD(T)    HF-SCF       INT
 CPU TIMES  *       566.41     13.28      0.25    524.64     14.77     13.20
 REAL TIME  *       581.02 SEC
 DISK USED  *       570.60 MB (local),        7.63 GB (total)
 SF USED    *         1.36 GB
 GA USED    *         4.87 MB       (max)       0.00 MB       (current)
 **********************************************************************************************************************************

 Basis set:  JKFIT                   
 Basis size:   740
 Attributes:
 Sphericals:   T
 Basis set:  MP2FIT                  
 Basis size:   816
 Attributes:
 Sphericals:   T
 Basis set:  RI                      
 Basis size:   556
 Attributes:
 Sphericals:   T
 Basis set:  TDDFT                   
 Basis size:   816
 Attributes:
 Sphericals:   T

 PROGRAM * CCSD (Closed-shell coupled cluster)     Authors: C. Hampel, H.-J. Werner, 1991, M. Deegan, P.J. Knowles, 1992

                                  CCSD-F12 implementation by  H.-J. Werner, 2007

                   Density fitting integral evaluation by F.R. Manby, 2003,2007, G. Knizia, 2010



 Convergence thresholds:  THRVAR = 1.00D-08  THRDEN = 1.00D-10

 CCSD(T)     terms to be evaluated (factor= 1.000)


 Number of core orbitals:           1 (   1 )
 Number of closed-shell orbitals:   4 (   4 )
 Number of external orbitals:     225 ( 225 )

 Molecular orbitals read from record     2101.2  Type=RHF/CANONICAL (state 1.1)

 MP2-F12 correlation treatment (H.-J. Werner, 2006)
 ==================================================

 Using MP2-F12 with ansatz 3C(FIX)

 Using projected zeroth-order Hamiltonian (+Z)

 FOCKRIB=T FOCKRIC=T FOCKRIP=T CABSP=T CABSA=T CABSK=T CABSF=T GBC=F EBC=F DMAT=T NOFIK=T NOPAO=1 SOLVE=-1  USEPAO=0
 EXCH_A= T EXCH_B= F EXCH_C= F EXCH_P= F

 Geminal basis:    OPTFULL  GEM_TYPE=SLATER  BETA=1.0  NGEM=6

 Optimizing Gaussian exponents for each gem_beta

 Geminal optimization for beta= 1.0000
 Weight function:   m=0, omega= 1.4646

 Augmented Hessian optimization of geminal fit. Trust ratio= 0.40000
 Convergence reached after   2 iterations. Final gradient= 8.31D-16, Step= 4.24D-06, Delta= 1.28D-09

 Alpha:                 0.19532     0.81920     2.85917     9.50073    35.69989   197.79328
 Coeff:                 0.27070     0.30552     0.18297     0.10986     0.06810     0.04224


 All pairs explicitly correlated. Number of r12-pairs:           10

 Excluding core orbitals from MO domains

 AO(A)-basis ORBITAL           loaded. Number of functions:     230
 RI(R)-basis RI                loaded. Number of functions:     556
 DF-basis JKFIT                loaded. Number of functions:     740

 Screening thresholds:   THRAO=  1.00D-10  THRMO=  1.00D-09  THRPROD=  1.00D-09
                         THRSW=  1.00D-05  THROV=  1.00D-12  THRAOF12= 1.00D-10

 CPU time for Fock operators                      3.02 sec

 Construction of ABS:
 Smallest eigenvalue of S          1.17E-04  (threshold= 1.00E-08)
 Ratio eigmin/eigmax               1.66E-05  (threshold= 1.00E-09)
 Smallest eigenvalue of S kept     1.17E-04  (threshold= 1.17E-04, 0 functions deleted, 556 kept)

 Construction of CABS:
 Smallest eigenvalue of S          7.03E-07  (threshold= 1.00E-08)
 Ratio eigmin/eigmax               7.03E-07  (threshold= 1.00E-09)
 Smallest eigenvalue of S kept     7.03E-07  (threshold= 7.03E-07, 0 functions deleted, 556 kept)

 CPU time for CABS singles                        0.69 sec

 CABS-singles contribution of  -0.00147587 patched into reference energy.
 New reference energy         -76.05985056

 AO(A)-basis ORBITAL           loaded. Number of functions:     230
 RI(R)-basis RI                loaded. Number of functions:     556
 DF-basis MP2FIT               loaded. Number of functions:     816

 Screening thresholds:   THRAO=  1.00D-10  THRMO=  1.00D-09  THRPROD=  1.00D-09
                         THRSW=  1.00D-05  THROV=  1.00D-12  THRAOF12= 1.00D-10

 CPU time for 3-index integral evaluation         5.30 sec
 CPU time for first  half transformation          0.74 sec ( 1896.6 MFLOP/sec)
 CPU time for second half transformation          0.01 sec ( 1255.8 MFLOP/sec)
 CPU time for sorting                             0.02 sec
 CPU time for fitting                             0.34 sec ( 1880.1 MFLOP/sec)
 CPU time for tilde quantities                    0.42 sec ( 5761.2 MFLOP/sec)
 CPU time for assembly                            1.36 sec ( 4165.9 MFLOP/sec)
 CPU time for tranop_f12                          1.26 sec ( 3920.6 MFLOP/sec)
 CPU time for f12 integrals (total)              11.81 sec, Elapsed time:     12.18 sec
 F12-matrices built in  4 passes.
 F12-matrices built in  4 passes.
 F12-matrices built in  4 passes.
 F12-matrices built in  4 passes.
 FC-matrix built in  4 passes.
 CPU time for f12 matrices (total)                0.28 sec, Elapsed time:      0.29 sec

 Diagonal F12 approximation with fixed coefficients:  TSING= 0.500,  TTRIP= 0.250 (scaled by -1/beta)

 DF-MP2-F12 energy corrections:
 ==============================
 Approx.                                    Singlet             Triplet             Total
 DF-MP2-F12/3*C(DX,FIX)                -0.029527827655     -0.004872294845     -0.034400122500
 DF-MP2-F12/3*C(FIX)                   -0.024451184592     -0.003818014146     -0.028269198737
 DF-MP2-F12/3C(FIX)                    -0.024581047297     -0.003790633062     -0.028371680360

 DF-MP2-F12 correlation energies:
 ================================
 Approx.                                    Singlet             Triplet             Ecorr            Total Energy
 DF-MP2                                -0.171715763400     -0.098239195692     -0.269954959093    -76.329805519255
 DF-MP2-F12/3*C(DX,FIX)                -0.201243591055     -0.103111490538     -0.304355081593    -76.364205641755
 DF-MP2-F12/3*C(FIX)                   -0.196166947992     -0.102057209838     -0.298224157830    -76.358074717992
 DF-MP2-F12/3C(FIX)                    -0.196296810698     -0.102029828755     -0.298326639453    -76.358177199615

 SCS-DF-MP2 energies (F_SING= 1.20000  F_TRIP= 0.62222  F_PARALLEL= 0.33333):
 ============================================================================
 SCS-DF-MP2                            -0.267185526734    -76.327036086896
 SCS-DF-MP2-F12/3*C(DX,FIX)            -0.305650570045    -76.365501130208
 SCS-DF-MP2-F12/3*C(FIX)               -0.298902601490    -76.358753161652
 SCS-DF-MP2-F12/3C(FIX)                -0.299041399618    -76.358891959780
 Symmetry transformation completed.

 Number of N-1 electron functions:               4
 Number of N-2 electron functions:              10
 Number of singly external CSFs:               900
 Number of doubly external CSFs:            405450
 Total number of CSFs:                      406351

 Pair and operator lists are different

 Length of J-op  integral file:              81.60 MB
 Length of K-op  integral file:             128.10 MB
 Length of 3-ext integral record:             0.00 MB

 Memory could be reduced to 75.63 Mwords without degradation in triples

 Integral transformation finished. Total CPU:  12.55 sec, npass=  1  Memory used:  32.52 MW

 Reference energy:                    -76.05985056

 Adding F12 terms to K(Cij), methodcc=6,  factor= 1.0

 ITER.      SQ.NORM     CORR.ENERGY   TOTAL ENERGY   ENERGY CHANGE        DEN1      VAR(S)    VAR(P)  DIIS     TIME  TIME/IT
   1      1.06226093    -0.26957691   -76.32942747     0.00038593     0.00631485  0.79D-03  0.10D-02  1  1    33.77     3.88
   2      1.06567754    -0.26925313   -76.32910369     0.00032378    -0.00462332  0.13D-04  0.11D-03  2  2    37.67     3.96
   3      1.06691469    -0.26937501   -76.32922557    -0.00012188    -0.00082517  0.93D-05  0.59D-05  3  3    41.60     3.98
   4      1.06740741    -0.26941208   -76.32926264    -0.00003708    -0.00027688  0.40D-06  0.63D-06  4  4    45.54     3.99
   5      1.06749886    -0.26940888   -76.32925944     0.00000321    -0.00002733  0.15D-06  0.42D-07  5  5    49.37     4.00
   6      1.06753009    -0.26940682   -76.32925738     0.00000205    -0.00000454  0.12D-07  0.28D-08  6  6    53.31     4.01
   7      1.06753699    -0.26940642   -76.32925698     0.00000041    -0.00000143  0.99D-09  0.44D-09  6  1    57.19     4.01
   8      1.06753826    -0.26940651   -76.32925707    -0.00000009     0.00000012  0.14D-09  0.50D-10  6  2    61.04     4.01
   9      1.06753869    -0.26940652   -76.32925708    -0.00000001    -0.00000000  0.14D-10  0.83D-11  6  4    64.88     4.02
  10      1.06753880    -0.26940652   -76.32925708    -0.00000000     0.00000000  0.26D-11  0.78D-12  6  3    68.76     4.02
  11      1.06753879    -0.26940652   -76.32925708     0.00000000     0.00000002  0.51D-12  0.14D-12  6  5    72.53     4.07
  12      1.06753879    -0.26940651   -76.32925708     0.00000000     0.00000000  0.90D-13  0.26D-13  6  6    76.33     4.09
  13      1.06753877    -0.26940652   -76.32925708    -0.00000000     0.00000000  0.96D-14  0.37D-14  6  1    80.16     4.08
  14      1.06753877    -0.26940652   -76.32925708    -0.00000000     0.00000000  0.11D-14  0.75D-15  6  2    84.08     4.08
  15      1.06753877    -0.26940652   -76.32925708    -0.00000000     0.00000000  0.13D-15  0.81D-16  6  4    87.93     4.08
  16      1.06753876    -0.26940652   -76.32925708     0.00000000     0.00000000  0.13D-16  0.99D-17  6  3    91.85     4.07

 Norm of t1 vector:      0.03703658      S-energy:    -0.00000000      T1 diagnostic:  0.00925914
                                                                       D1 diagnostic:  0.01843946

 Adding energy correction from Wij-K(Fij), methodcc=6  factor= 1.0

  CCSD correlation energy              -0.269406515795
  MP2-F12 correction (uncoupled)       -0.028103959918
  C*T doubles correction               -0.000414226198
  f12b correction                       0.004759467415


 Total CPU time for triples:     36.53 sec

  Ecorr(MP2)                           -0.269962835056
  Ecorr(MP2-F12)                       -0.298334515416
  Scale factor for triples energy       1.105094763707


 RESULTS
 =======

  Reference energy                    -76.058374691613
  F12 singles correction               -0.001475868549

 F12 singles corrections added to reference energy

  New reference energy                -76.059850560162

  F12a singlet correction              -0.024656706467
  F12a triplet correction              -0.003861479649
  F12a total correction                -0.028518186117

 F12a corrections for ansatz F12/3C(FIX) added to CCSD energy

  CCSD-F12a singlet pair energy        -0.207328809385
  CCSD-F12a triplet pair energy        -0.090595892510
  CCSD-F12a correlation energy         -0.297924701912

  Triples (T) contribution (scaled)    -0.009530796932
  Total correlation energy             -0.307455498844

  CCSD-F12a total energy              -76.357775262074
  CCSD[T]-F12a energy                 -76.367653032520
  CCSD-T-F12a energy                  -76.367163597244
 !CCSD(T)-F12a total energy           -76.367306059006

 F12b corrections for ansatz F12/3C(FIX) added to CCSD(T)-F12a energy

  CCSD-F12b singlet pair energy        -0.202928026770
  CCSD-F12b triplet pair energy        -0.090237207710
  CCSD-F12b correlation energy         -0.293165234496

  Triples (T) contribution (scaled)    -0.009530796932
  Total correlation energy             -0.302696031428

  CCSD-F12b total energy              -76.353015794658
  CCSD[T]-F12b energy                 -76.362893565105
  CCSD-T-F12b energy                  -76.362404129828
 !CCSD(T)-F12b total energy           -76.362546591591

 Timing summary (sec):

 STEP                 CPU(USER)    SYS     CPU(TOT)    WALL
 Transformation         12.59      0.38     12.97     12.98
 CCSD iterations        61.89      2.59     64.48     65.24
 Triples                36.53      0.16     36.69     36.73
 MP2-F12                17.39      0.50     17.89     17.93
 F12b energy             3.31      0.10      3.41      3.42

 Program statistics:

 Available memory in ccsd:              1999999871
 Min. memory needed in ccsd:               1862772
 Max. memory used in ccsd:                 2158322
 Max. memory used in cckext:               1445635 (17 integral passes)



 **********************************************************************************************************************************
 DATASETS  * FILE   NREC   LENGTH (MB)   RECORD NAMES
              1      19      222.31       500      610      700      900      950      970     1000      129      960     1100   
                                          VAR    BASINP    GEOM    SYMINP    ZMAT    AOBASIS   BASIS     P2S    ABASIS      S 
                                         1400     1410     1200     1210     1080     1600     1650     1700     1380   
                                           T        V       H0       H01     AOSYM     SMH    MOLCAS    OPER     JKOP   

              2       8        9.09       700     1000      520     2100     7360     7350      200     2101   
                                         GEOM     BASIS   MCVARS     RHF    F12ABS    EF12    OPTIONS    RHF  

 PROGRAMS   *        TOTAL   CCSD(T)    HF-SCF       INT   CCSD(T)    HF-SCF       INT
 CPU TIMES  *       698.37    131.96     13.28      0.25    524.64     14.77     13.20
 REAL TIME  *       718.09 SEC
 DISK USED  *       570.60 MB (local),        7.63 GB (total)
 SF USED    *         1.36 GB
 GA USED    *         4.87 MB       (max)       0.00 MB       (current)
 **********************************************************************************************************************************

 Running procedure: SET_MONOMER2

 Dummy atoms: O15  H29  H30


 Recomputing one-electron integrals since nuclear charges changed


 PROGRAM * SEWARD (Integral evaluation for generally contracted gaussian basis sets)     Author: Roland Lindh, 1990

 Geometry written to block  1 of record 700


 Point group  C1  



 ATOMIC COORDINATES

 NR  ATOM    CHARGE       X              Y              Z

   1  O15     0.00  -11.361600379   -2.507477595    1.791460366
   2  H29     0.00   -9.723585774   -3.405286476    1.799586188
   3  H30     0.00  -12.627338937   -3.816112936    1.666171524
   4  C1      6.00   -6.193010455    2.801518980    2.403542658
   5  H41     1.00   -4.656285171    1.699997622    3.119937832
   6  H42     1.00   -5.973046335    4.726205038    2.982932688
   7  H43     1.00   -7.940251230    2.077186956    3.118237078
   8  H44     1.00   -6.176569838    2.685300823    0.384937212

 Bond lengths in Bohr (Angstrom)

 1-2  1.867945037  1-3  1.824915847  4-5  2.021904040  4-6  2.022002335  4-7  2.021953343
     ( 0.988473945)     ( 0.965703878)     ( 1.069945541)     ( 1.069997556)     ( 1.069971630)

 4-8  2.022015060
     ( 1.070004290)

 Bond angles

  2-1-3  105.29843553   5-4-6  109.53398059   5-4-7  109.65604535   5-4-8  108.43490854

  6-4-7  109.49436728   6-4-8  109.86987750   7-4-8  109.83468330

 NUCLEAR CHARGE:                   10
 NUMBER OF PRIMITIVE AOS:         296
 NUMBER OF SYMMETRY AOS:          266
 NUMBER OF CONTRACTIONS:          230   (  230A   )
 NUMBER OF CORE ORBITALS:           1   (    1A   )
 NUMBER OF VALENCE ORBITALS:        8   (    8A   )

 MOLECULE CHANGED: INITIALIZING OCCUPATION AND DUMP RECORDS


 NUCLEAR REPULSION ENERGY   13.68681606

 Basis set:  JKFIT                   
 Basis size:   740
 Attributes:
 Sphericals:   T
 Basis set:  MP2FIT                  
 Basis size:   816
 Attributes:
 Sphericals:   T
 Basis set:  RI                      
 Basis size:   556
 Attributes:
 Sphericals:   T
 Basis set:  TDDFT                   
 Basis size:   816
 Attributes:
 Sphericals:   T

 Eigenvalues of metric

         1 0.641E-04 0.753E-04 0.898E-04 0.106E-03 0.332E-03 0.352E-03 0.677E-03 0.751E-03


 Contracted 2-electron integrals neglected if value below      1.0D-14

 OPERATOR DM      FOR CENTER  0  COORDINATES:    0.000000    0.000000    0.000000


 **********************************************************************************************************************************
 DATASETS  * FILE   NREC   LENGTH (MB)   RECORD NAMES
              1      18       32.04       500      610      700      900      950      970     1000      129      960     1100   
                                          VAR    BASINP    GEOM    SYMINP    ZMAT    AOBASIS   BASIS     P2S    ABASIS      S 
                                         1400     1410     1200     1210     1080     1600     1650     1700   
                                           T        V       H0       H01     AOSYM     SMH    MOLCAS    OPER   

              2       8        9.09       700     1000      520     2100     7360     7350      200     2101   
                                         GEOM     BASIS   MCVARS     RHF    F12ABS    EF12    OPTIONS    RHF  

 PROGRAMS   *        TOTAL       INT   CCSD(T)    HF-SCF       INT   CCSD(T)    HF-SCF       INT
 CPU TIMES  *       698.62      0.24    131.96     13.28      0.25    524.64     14.77     13.20
 REAL TIME  *       718.84 SEC
 DISK USED  *       570.60 MB (local),        7.63 GB (total)
 SF USED    *         1.36 GB
 GA USED    *         4.87 MB       (max)       0.00 MB       (current)
 **********************************************************************************************************************************


 PROGRAM * RHF-SCF (CLOSED SHELL)       Authors: W. Meyer, H.-J. Werner


 NUMBER OF ELECTRONS:       5+    5-    SPACE SYMMETRY=1    SPIN SYMMETRY: Singlet 
 CONVERGENCE THRESHOLDS:    1.00E-08 (Density)    1.00E-11 (Energy)
 MAX. NUMBER OF ITERATIONS:       60
 INTERPOLATION TYPE:            DIIS
 INTERPOLATION STEPS:              2 (START)      1 (STEP)
 LEVEL SHIFTS:                  0.00 (CLOSED)  0.00 (OPEN) 



 Orbital guess generated from atomic densities. Full valence occupancy:    9

 Molecular orbital dump at record        2102.2

 Initial occupancy:   5

 ITERATION    DDIFF          GRAD             ENERGY        2-EL.EN.            DIPOLE MOMENTS         DIIS   ORB.
    1      0.000D+00      0.000D+00       -40.19358726     53.494050    0.00410   -0.00276   -0.00131    0    start
    2      0.000D+00      0.353D-02       -40.21070465     52.213692    0.00128   -0.00090   -0.00039    1    diag
    3      0.324D-02      0.137D-02       -40.21295311     52.664861    0.00181   -0.00126   -0.00056    2    diag
    4      0.904D-03      0.342D-03       -40.21326856     52.609835    0.00161   -0.00113   -0.00049    3    diag
    5      0.297D-03      0.444D-04       -40.21327396     52.612174    0.00158   -0.00111   -0.00048    4    diag
    6      0.794D-04      0.345D-05       -40.21327400     52.612271    0.00158   -0.00111   -0.00048    5    diag
    7      0.671D-05      0.264D-06       -40.21327400     52.612237    0.00158   -0.00111   -0.00048    6    diag
    8      0.977D-06      0.222D-07       -40.21327400     52.612238    0.00158   -0.00111   -0.00048    7    diag
    9      0.189D-06      0.289D-08       -40.21327400     52.612238    0.00158   -0.00111   -0.00048    8    diag
   10      0.112D-07      0.806D-09       -40.21327400     52.612238    0.00158   -0.00111   -0.00048    9    orth
   11      0.125D-08      0.106D-09       -40.21327400     52.612238    0.00158   -0.00111   -0.00048    0    orth

 Final occupancy:   5

 !RHF STATE  1.1 Energy               -40.213273995677
 Nuclear energy                        13.68681606
 One-electron energy                  -80.20620889
 Two-electron energy                   26.30611884
 Virial quotient                       -0.99870041
 !RHF STATE  1.1 Dipole moment          0.00158176    -0.00110629    -0.00047939
 Dipole moment /Debye                   0.00402017    -0.00281173    -0.00121841

 Orbital energies:

         1.1          2.1          3.1          4.1          5.1          6.1          7.1
    -11.197208    -0.950741    -0.551697    -0.549759    -0.547580     0.026311     0.039755


 HOMO      5.1    -0.547580 =     -14.9004eV
 LUMO      6.1     0.026311 =       0.7160eV
 LUMO-HOMO         0.573891 =      15.6164eV


 **********************************************************************************************************************************
 DATASETS  * FILE   NREC   LENGTH (MB)   RECORD NAMES
              1      18       32.04       500      610      700      900      950      970     1000      129      960     1100   
                                          VAR    BASINP    GEOM    SYMINP    ZMAT    AOBASIS   BASIS     P2S    ABASIS      S 
                                         1400     1410     1200     1210     1080     1600     1650     1700   
                                           T        V       H0       H01     AOSYM     SMH    MOLCAS    OPER   

              2       9       13.71       700     1000      520     2100     7360     7350      200     2101     2102   
                                         GEOM     BASIS   MCVARS     RHF    F12ABS    EF12    OPTIONS    RHF      RHF  

 PROGRAMS   *        TOTAL    HF-SCF       INT   CCSD(T)    HF-SCF       INT   CCSD(T)    HF-SCF       INT
 CPU TIMES  *       711.38     12.76      0.24    131.96     13.28      0.25    524.64     14.77     13.20
 REAL TIME  *       732.44 SEC
 DISK USED  *       570.60 MB (local),        7.63 GB (total)
 SF USED    *         1.36 GB
 GA USED    *         4.87 MB       (max)       0.00 MB       (current)
 **********************************************************************************************************************************

 Basis set:  JKFIT                   
 Basis size:   740
 Attributes:
 Sphericals:   T
 Basis set:  MP2FIT                  
 Basis size:   816
 Attributes:
 Sphericals:   T
 Basis set:  RI                      
 Basis size:   556
 Attributes:
 Sphericals:   T
 Basis set:  TDDFT                   
 Basis size:   816
 Attributes:
 Sphericals:   T

 PROGRAM * CCSD (Closed-shell coupled cluster)     Authors: C. Hampel, H.-J. Werner, 1991, M. Deegan, P.J. Knowles, 1992

                                  CCSD-F12 implementation by  H.-J. Werner, 2007

                   Density fitting integral evaluation by F.R. Manby, 2003,2007, G. Knizia, 2010



 Convergence thresholds:  THRVAR = 1.00D-08  THRDEN = 1.00D-10

 CCSD(T)     terms to be evaluated (factor= 1.000)


 Number of core orbitals:           1 (   1 )
 Number of closed-shell orbitals:   4 (   4 )
 Number of external orbitals:     225 ( 225 )

 Molecular orbitals read from record     2102.2  Type=RHF/CANONICAL (state 1.1)

 MP2-F12 correlation treatment (H.-J. Werner, 2006)
 ==================================================

 Using MP2-F12 with ansatz 3C(FIX)

 Using projected zeroth-order Hamiltonian (+Z)

 FOCKRIB=T FOCKRIC=T FOCKRIP=T CABSP=T CABSA=T CABSK=T CABSF=T GBC=F EBC=F DMAT=T NOFIK=T NOPAO=1 SOLVE=-1  USEPAO=0
 EXCH_A= T EXCH_B= F EXCH_C= F EXCH_P= F

 Geminal basis:    OPTFULL  GEM_TYPE=SLATER  BETA=1.0  NGEM=6

 Optimizing Gaussian exponents for each gem_beta

 Geminal optimization for beta= 1.0000
 Weight function:   m=0, omega= 1.4646

 Augmented Hessian optimization of geminal fit. Trust ratio= 0.40000
 Convergence reached after   2 iterations. Final gradient= 7.85D-16, Step= 4.26D-06, Delta= 1.28D-09

 Alpha:                 0.19532     0.81920     2.85917     9.50073    35.69989   197.79328
 Coeff:                 0.27070     0.30552     0.18297     0.10986     0.06810     0.04224


 All pairs explicitly correlated. Number of r12-pairs:           10

 Excluding core orbitals from MO domains

 AO(A)-basis ORBITAL           loaded. Number of functions:     230
 RI(R)-basis RI                loaded. Number of functions:     556
 DF-basis JKFIT                loaded. Number of functions:     740

 Screening thresholds:   THRAO=  1.00D-10  THRMO=  1.00D-09  THRPROD=  1.00D-09
                         THRSW=  1.00D-05  THROV=  1.00D-12  THRAOF12= 1.00D-10

 CPU time for Fock operators                      3.10 sec

 Construction of ABS:
 Smallest eigenvalue of S          1.17E-04  (threshold= 1.00E-08)
 Ratio eigmin/eigmax               1.66E-05  (threshold= 1.00E-09)
 Smallest eigenvalue of S kept     1.17E-04  (threshold= 1.17E-04, 0 functions deleted, 556 kept)

 Construction of CABS:
 Smallest eigenvalue of S          7.03E-07  (threshold= 1.00E-08)
 Ratio eigmin/eigmax               7.03E-07  (threshold= 1.00E-09)
 Smallest eigenvalue of S kept     7.03E-07  (threshold= 7.03E-07, 0 functions deleted, 556 kept)

 CPU time for CABS singles                        0.68 sec

 CABS-singles contribution of  -0.00091099 patched into reference energy.
 New reference energy         -40.21418499

 AO(A)-basis ORBITAL           loaded. Number of functions:     230
 RI(R)-basis RI                loaded. Number of functions:     556
 DF-basis MP2FIT               loaded. Number of functions:     816

 Screening thresholds:   THRAO=  1.00D-10  THRMO=  1.00D-09  THRPROD=  1.00D-09
                         THRSW=  1.00D-05  THROV=  1.00D-12  THRAOF12= 1.00D-10

 CPU time for 3-index integral evaluation         5.30 sec
 CPU time for first  half transformation          0.69 sec ( 2091.2 MFLOP/sec)
 CPU time for sorting                             0.02 sec
 CPU time for fitting                             0.34 sec ( 5315.1 MFLOP/sec)
 CPU time for tilde quantities                    0.38 sec ( 4419.2 MFLOP/sec)
 CPU time for assembly                            1.39 sec ( 4076.0 MFLOP/sec)
 CPU time for tranop_f12                          1.27 sec ( 4128.5 MFLOP/sec)
 CPU time for f12 integrals (total)              11.64 sec, Elapsed time:     12.04 sec
 F12-matrices built in  4 passes.
 F12-matrices built in  4 passes.
 F12-matrices built in  4 passes.
 F12-matrices built in  4 passes.
 FC-matrix built in  4 passes.
 CPU time for f12 matrices (total)                0.35 sec, Elapsed time:      0.36 sec

 Diagonal F12 approximation with fixed coefficients:  TSING= 0.500,  TTRIP= 0.250 (scaled by -1/beta)

 DF-MP2-F12 energy corrections:
 ==============================
 Approx.                                    Singlet             Triplet             Total
 DF-MP2-F12/3*C(DX,FIX)                -0.016709942832     -0.001928256767     -0.018638199599
 DF-MP2-F12/3*C(FIX)                   -0.015471828257     -0.001786523704     -0.017258351961
 DF-MP2-F12/3C(FIX)                    -0.015457289124     -0.001777539237     -0.017234828360

 DF-MP2-F12 correlation energies:
 ================================
 Approx.                                    Singlet             Triplet             Ecorr            Total Energy
 DF-MP2                                -0.145435393336     -0.055064891114     -0.200500284450    -40.414685270769
 DF-MP2-F12/3*C(DX,FIX)                -0.162145336168     -0.056993147880     -0.219138484049    -40.433323470368
 DF-MP2-F12/3*C(FIX)                   -0.160907221593     -0.056851414818     -0.217758636411    -40.431943622730
 DF-MP2-F12/3C(FIX)                    -0.160892682460     -0.056842430350     -0.217735112810    -40.431920099129

 SCS-DF-MP2 energies (F_SING= 1.20000  F_TRIP= 0.62222  F_PARALLEL= 0.33333):
 ============================================================================
 SCS-DF-MP2                            -0.208785070918    -40.422970057238
 SCS-DF-MP2-F12/3*C(DX,FIX)            -0.230036806528    -40.444221792847
 SCS-DF-MP2-F12/3*C(FIX)               -0.228462879576    -40.442647865895
 SCS-DF-MP2-F12/3C(FIX)                -0.228439842280    -40.442624828600
 Symmetry transformation completed.

 Number of N-1 electron functions:               4
 Number of N-2 electron functions:              10
 Number of singly external CSFs:               900
 Number of doubly external CSFs:            405450
 Total number of CSFs:                      406351

 Pair and operator lists are different

 Length of J-op  integral file:              81.60 MB
 Length of K-op  integral file:             128.10 MB
 Length of 3-ext integral record:             0.00 MB

 Memory could be reduced to 75.63 Mwords without degradation in triples

 Integral transformation finished. Total CPU:  12.85 sec, npass=  1  Memory used:  32.52 MW

 Reference energy:                    -40.21418499

 Adding F12 terms to K(Cij), methodcc=6,  factor= 1.0

 ITER.      SQ.NORM     CORR.ENERGY   TOTAL ENERGY   ENERGY CHANGE        DEN1      VAR(S)    VAR(P)  DIIS     TIME  TIME/IT
   1      1.06945976    -0.21556930   -40.42975429    -0.01505911    -0.00938294  0.67D-03  0.94D-03  1  1    34.82     4.60
   2      1.07448727    -0.21613702   -40.43032201    -0.00056772    -0.00524378  0.17D-04  0.83D-04  2  2    38.73     4.55
   3      1.07589418    -0.21629198   -40.43047697    -0.00015496    -0.00097861  0.20D-05  0.51D-05  3  3    43.24     4.62
   4      1.07623232    -0.21630434   -40.43048933    -0.00001236    -0.00017402  0.10D-06  0.25D-06  4  4    47.21     4.48
   5      1.07627701    -0.21630307   -40.43048806     0.00000127    -0.00000981  0.77D-08  0.16D-07  5  5    51.68     4.51
   6      1.07628285    -0.21630208   -40.43048707     0.00000099    -0.00000186  0.56D-09  0.12D-08  6  6    55.76     4.47
   7      1.07628399    -0.21630177   -40.43048675     0.00000031    -0.00000072  0.38D-10  0.94D-10  6  1    59.82     4.43
   8      1.07628400    -0.21630188   -40.43048686    -0.00000011     0.00000013  0.37D-11  0.53D-11  6  3    64.14     4.43
   9      1.07628411    -0.21630186   -40.43048685     0.00000002    -0.00000007  0.30D-12  0.45D-12  6  2    68.21     4.40
  10      1.07628411    -0.21630186   -40.43048684     0.00000000     0.00000000  0.35D-13  0.46D-13  6  4    72.36     4.39
  11      1.07628412    -0.21630186   -40.43048684     0.00000000     0.00000000  0.26D-14  0.48D-14  6  5    76.46     4.38
  12      1.07628411    -0.21630186   -40.43048684     0.00000000     0.00000000  0.55D-16  0.57D-15  6  6    80.41     4.36
  13      1.07628411    -0.21630186   -40.43048684    -0.00000000     0.00000000  0.75D-17  0.64D-16  6  1    84.31     4.34
  14      1.07628411    -0.21630186   -40.43048684    -0.00000000     0.00000000  0.14D-17  0.79D-17  6  3    88.26     4.32

 Norm of t1 vector:      0.03361835      S-energy:     0.00000000      T1 diagnostic:  0.00840459
                                                                       D1 diagnostic:  0.01339672

 Adding energy correction from Wij-K(Fij), methodcc=6  factor= 1.0

  CCSD correlation energy              -0.216301855682
  MP2-F12 correction (uncoupled)       -0.017246599147
  C*T doubles correction               -0.000193645449
  f12b correction                       0.003655631270

 Total CPU time for triples:     33.84 sec

  Ecorr(MP2)                           -0.200510188926
  Ecorr(MP2-F12)                       -0.217745017287
  Scale factor for triples energy       1.085954875672


 RESULTS
 =======

  Reference energy                    -40.213273995677
  F12 singles correction               -0.000910990642

 F12 singles corrections added to reference energy

  New reference energy                -40.214184986319

  F12a singlet correction              -0.015636897514
  F12a triplet correction              -0.001803347082
  F12a total correction                -0.017440244596

 F12a corrections for ansatz F12/3C(FIX) added to CCSD energy

  CCSD-F12a singlet pair energy        -0.178525366986
  CCSD-F12a triplet pair energy        -0.055216733317
  CCSD-F12a correlation energy         -0.233742100278

  Triples (T) contribution (scaled)    -0.006800997162
  Total correlation energy             -0.240543097440

  CCSD-F12a total energy              -40.447927086598
  CCSD[T]-F12a energy                 -40.454967263324
  CCSD-T-F12a energy                  -40.454653306382
 !CCSD(T)-F12a total energy           -40.454728083760

 F12b corrections for ansatz F12/3C(FIX) added to CCSD(T)-F12a energy

  CCSD-F12b singlet pair energy        -0.175040737058
  CCSD-F12b triplet pair energy        -0.055045731975
  CCSD-F12b correlation energy         -0.230086469009

  Triples (T) contribution (scaled)    -0.006800997162
  Total correlation energy             -0.236887466171

  CCSD-F12b total energy              -40.444271455328
  CCSD[T]-F12b energy                 -40.451311632054
  CCSD-T-F12b energy                  -40.450997675113
 !CCSD(T)-F12b total energy           -40.451072452490

 Timing summary (sec):

 STEP                 CPU(USER)    SYS     CPU(TOT)    WALL
 Transformation         12.91      0.43     13.34     13.37
 CCSD iterations        57.99      2.04     60.03     60.52
 Triples                33.84      0.63     34.47     36.62
 MP2-F12                17.38      0.51     17.89     17.93
 F12b energy             3.35      0.06      3.41      3.42

 Program statistics:

 Available memory in ccsd:              1999999866
 Min. memory needed in ccsd:               1862772
 Max. memory used in ccsd:                 2158322
 Max. memory used in cckext:               1445635 (15 integral passes)



 **********************************************************************************************************************************
 DATASETS  * FILE   NREC   LENGTH (MB)   RECORD NAMES
              1      19      222.31       500      610      700      900      950      970     1000      129      960     1100   
                                          VAR    BASINP    GEOM    SYMINP    ZMAT    AOBASIS   BASIS     P2S    ABASIS      S 
                                         1400     1410     1200     1210     1080     1600     1650     1700     1380   
                                           T        V       H0       H01     AOSYM     SMH    MOLCAS    OPER     JKOP   

              2       9       13.71       700     1000      520     2100     7360     7350      200     2101     2102   
                                         GEOM     BASIS   MCVARS     RHF    F12ABS    EF12    OPTIONS    RHF      RHF  

 PROGRAMS   *        TOTAL   CCSD(T)    HF-SCF       INT   CCSD(T)    HF-SCF       INT   CCSD(T)    HF-SCF       INT
 CPU TIMES  *       837.08    125.69     12.76      0.24    131.96     13.28      0.25    524.64     14.77     13.20
 REAL TIME  *       865.10 SEC
 DISK USED  *       570.60 MB (local),        7.63 GB (total)
 SF USED    *         1.36 GB
 GA USED    *         4.87 MB       (max)       0.00 MB       (current)
 **********************************************************************************************************************************
 Molecular orbitals read from record     2102.2  Type=RHF/CANONICAL (state 1.1)
 Occupation numbers read from record     2102.2  Type=RHF/RHF (state 1.1)
 Orbital energies read from record       2102.2  Type=RHF/CANONICAL (state 1.1)
 Redundancy group numbers read from rec  2102.2  Type=RHF/RHF (state 1.1)

 CCSD(T)-F12/aug-cc-pVTZ energy=    -40.451072452490

     CCSD(T)-F12          HF-SCF     CCSD(T)-F12          HF-SCF     CCSD(T)-F12          HF-SCF
    -40.45107245    -40.21327400    -76.36254659    -76.05837469   -116.81434624   -116.27174324
 **********************************************************************************************************************************
 Molpro calculation terminated
