
 Primary working directories    : /scratch/klimes/383165/molpro.ijtdghpoCD
 Secondary working directories  : /scratch/klimes/383165/molpro.ijtdghpoCD
 Wavefunction directory         : /scratch/klimes/383165/
 Main file repository           : /scratch/klimes/383165/molpro.ijtdghpoCD/

 id        : karlovklimes

 Nodes                      nprocs
 nc-22.cc.karlov.mff.cuni.cz    4

 Using customized tuning parameters: mindgm=1; mindgv=20; mindgc=4; mindgr=1; noblas=0; minvec=7
 default implementation of scratch files=sf  


 Variables initialized (930), CPU time= 0.01 sec
                                                                                 !gdirect
 memory,2000,m
 gthresh,orbital=1d-10,energy=1d-10,grid=1d-8
 
 symmetry,nosym
 angstrom
 geometry={
 O16        -6.031300000000      0.567500000000     -1.162700000000
 H31        -6.239000000000      1.445500000000     -0.783400000000
 H32        -6.065700000000     -0.057500000000     -0.412200000000
 C1        -3.277200000000      1.482500000000      1.271900000000
 H41        -2.464000000000      0.899600000000      1.651000000000
 H42        -3.160800000000      2.501000000000      1.578500000000
 H43        -4.201800000000      1.099200000000      1.650100000000
 H44        -3.268500000000      1.421000000000      0.203700000000
 }
 
 nkerna=1
 nkernb=1
 
 gf=0
 sing=1
 thrdum=1d-4
 gridthr=1d-8
 
 basis={
 set,orbital
 default,avtz
 set,jkfit
 default,avqz/jkfit
 set,mp2fit
 default,avqz/mp2fit
 set,ri
 default,avqz/optri
 set,tddft
 default,avqz/mp2fit
 }
 
 proc set_monomer1
 dummy,4,5,6,7,8
 endproc
 
 proc set_monomer2
 dummy,1,2,3
 endproc
 
                                                                                 !12 energy
 {hf,accu=1.d-16}
 {ccsd(t)-f12,df_basis=mp2fit,df_basis_exch=jkfit,ri_basis=ri,scale_trip=1,THRAOF12=1d-10}
 
 set_monomer1
 {hf,accu=1.d-16}
 {ccsd(t)-f12,df_basis=mp2fit,df_basis_exch=jkfit,ri_basis=ri,scale_trip=1,THRAOF12=1d-10}
 
 set_monomer2
 {hf,accu=1.d-16}
 {ccsd(t)-f12,df_basis=mp2fit,df_basis_exch=jkfit,ri_basis=ri,scale_trip=1,THRAOF12=1d-10}
 
 Commands  initialized (760), CPU time= 0.01 sec, 617 directives.
 Default parameters read. Elapsed time= 0.20 sec

 Checking input...
 Passed
1


                                         ***  PROGRAM SYSTEM MOLPRO  ***
                                       Copyright, TTI GmbH Stuttgart, 2015
                                    Version 2019.1 linked Jan 14 2019 13:09:19


 **********************************************************************************************************************************
 LABEL *                                                                                 
  64 bit mpp version                                                                     DATE: 11-Mar-20          TIME: 16:23:19  
 **********************************************************************************************************************************

 SHA1:             d688ac825633d238f2093ded1675ba87ccd55965
 **********************************************************************************************************************************

 THRESHOLDS:

 ZERO    =  1.00D-12  ONEINT  =  1.00D-12  TWOINT  =  1.00D-11  PREFAC  =  1.00D-14  XXXXXX  =  1.00D-09  EORDER  =  1.00D-04
 ENERGY  =  1.00D-10  ETEST   =  0.00D+00  EDENS   =  0.00D+00  THRDEDEF=  1.00D-06  GRADIENT=  1.00D-02  STEP    =  1.00D-03
 ORBITAL =  1.00D-10  CIVEC   =  1.00D-05  COEFF   =  1.00D-04  PRINTCI =  5.00D-02  PUNCHCI =  9.90D+01  OPTGRAD =  3.00D-04
 OPTENERG=  1.00D-06  OPTSTEP =  3.00D-04  THRGRAD =  1.00D-10  COMPRESS=  1.00D-11  VARMIN  =  1.00D-07  VARMAX  =  1.00D-03
 THRDOUB =  0.00D+00  THRDIV  =  1.00D-05  THRRED  =  1.00D-07  THRPSP  =  1.00D+00  THRDC   =  1.00D-10  THRCS   =  1.00D-10
 THRNRM  =  1.00D-08  THREQ   =  0.00D+00  THRDE   =  1.00D+00  THRREF  =  1.00D-05  SPARFAC =  1.00D+00  THRDLP  =  1.00D-07
 THRDIA  =  1.00D-10  THRDLS  =  1.00D-07  THRGPS  =  0.00D+00  THRKEX  =  0.00D+00  THRDIS  =  2.00D-01  THRVAR  =  1.00D-10
 THRLOC  =  1.00D-06  THRGAP  =  1.00D-06  THRLOCT = -1.00D+00  THRGAPT = -1.00D+00  THRORB  =  1.00D-06  THRMLTP =  0.00D+00
 THRCPQCI=  1.00D-10  KEXTA   =  0.00D+00  THRCOARS=  0.00D+00  SYMTOL  =  1.00D-06  GRADTOL =  1.00D-06  THROVL  =  1.00D-08
 THRORTH =  1.00D-08  GRID    =  1.00D-08  GRIDMAX =  1.00D-03  DTMAX   =  0.00D+00  THROCCDE=  1.00D-01  THROCCDE=  1.00D-01
 THRPRINT=  2.50D-01


 Variable memory set to 2000000000 words,  buffer space 

 ZSYMEL=NOSYM
 ZUNIT=ANG


Geometry recognized as XYZ

 SETTING NKERNA         =         1.00000000                                  
 SETTING NKERNB         =         1.00000000                                  
 SETTING GF             =     0.00000000D+00                                  
 SETTING SING           =         1.00000000                                  
 SETTING THRDUM         =     1.00000000D-04                                  
 SETTING GRIDTHR        =     1.00000000D-08                                  
 SETTING BASIS          =    AVTZ


 Recomputing integrals since basis changed


 Using spherical harmonics

 Library entry O      S aug-cc-pVTZ          selected for orbital group  1
 Library entry O      P aug-cc-pVTZ          selected for orbital group  1
 Library entry O      D aug-cc-pVTZ          selected for orbital group  1
 Library entry O      F aug-cc-pVTZ          selected for orbital group  1
 Library entry H      S aug-cc-pVTZ          selected for orbital group  2
 Library entry H      P aug-cc-pVTZ          selected for orbital group  2
 Library entry H      D aug-cc-pVTZ          selected for orbital group  2
 Library entry C      S aug-cc-pVTZ          selected for orbital group  3
 Library entry C      P aug-cc-pVTZ          selected for orbital group  3
 Library entry C      D aug-cc-pVTZ          selected for orbital group  3
 Library entry C      F aug-cc-pVTZ          selected for orbital group  3


 PROGRAM * SEWARD (Integral evaluation for generally contracted gaussian basis sets)     Author: Roland Lindh, 1990

 Geometry written to block  1 of record 700


 Point group  C1  



 ATOMIC COORDINATES

 NR  ATOM    CHARGE       X              Y              Z

   1  O16     8.00  -11.397505175    1.072419576   -2.197184565
   2  H31     1.00  -11.790001291    2.731599113   -1.480411446
   3  H32     1.00  -11.462511754   -0.108659252   -0.778945109
   4  C1      6.00   -6.193010455    2.801518980    2.403542658
   5  H41     1.00   -4.656285171    1.699997622    3.119937832
   6  H42     1.00   -5.973046335    4.726205038    2.982932688
   7  H43     1.00   -7.940251230    2.077186956    3.118237078
   8  H44     1.00   -6.176569838    2.685300823    0.384937212

 Bond lengths in Bohr (Angstrom)

 1-2  1.849511731  1-3  1.846774542  4-5  2.021904040  4-6  2.022002335  4-7  2.021953343
     ( 0.978719459)     ( 0.977271001)     ( 1.069945541)     ( 1.069997556)     ( 1.069971630)

 4-8  2.022015060
     ( 1.070004290)

 Bond angles

  2-1-3  105.58293551   5-4-6  109.53398059   5-4-7  109.65604535   5-4-8  108.43490854

  6-4-7  109.49436728   6-4-8  109.86987750   7-4-8  109.83468330

 NUCLEAR CHARGE:                   20
 NUMBER OF PRIMITIVE AOS:         296
 NUMBER OF SYMMETRY AOS:          266
 NUMBER OF CONTRACTIONS:          230   (  230A   )
 NUMBER OF CORE ORBITALS:           2   (    2A   )
 NUMBER OF VALENCE ORBITALS:       14   (   14A   )


 NUCLEAR REPULSION ENERGY   36.77810311


 Basis set:  JKFIT                   
 Basis size:   740
 Attributes:
 Sphericals:   T
 Basis set:  MP2FIT                  
 Basis size:   816
 Attributes:
 Sphericals:   T
 Basis set:  RI                      
 Basis size:   556
 Attributes:
 Sphericals:   T
 Basis set:  TDDFT                   
 Basis size:   816
 Attributes:
 Sphericals:   T

 **********************************************************************************************************************************


 Eigenvalues of metric

         1 0.685E-04 0.888E-04 0.978E-04 0.102E-03 0.337E-03 0.393E-03 0.690E-03 0.754E-03


 Contracted 2-electron integrals neglected if value below      1.0D-14
 AO integral compression algorithm  1   Integral accuracy      1.0D-14

     2273.051 MB (compressed) written to integral file ( 70.9%)

     Node minimum: 551.813 MB, node maximum: 584.319 MB


 NUMBER OF SORTED TWO-ELECTRON INTEGRALS:   88219044.     BUFFER LENGTH:  32768
 NUMBER OF SEGMENTS:   6  SEGMENT LENGTH:   15998348      RECORD LENGTH: 524288

 Memory used in sort:      16.56 MW

 SORT1 READ   400769927. AND WROTE    83161651. INTEGRALS IN    242 RECORDS. CPU TIME:     7.40 SEC, REAL TIME:     8.31 SEC
 SORT2 READ   332771355. AND WROTE   352862895. INTEGRALS IN   8420 RECORDS. CPU TIME:     1.71 SEC, REAL TIME:     2.55 SEC

 Node minimum:    88205762.  Node maximum:    88225686. integrals

 OPERATOR DM      FOR CENTER  0  COORDINATES:    0.000000    0.000000    0.000000


 **********************************************************************************************************************************
 DATASETS  * FILE   NREC   LENGTH (MB)   RECORD NAMES
              1      18       32.04       500      610      700      900      950      970     1000      129      960     1100   
                                          VAR    BASINP    GEOM    SYMINP    ZMAT    AOBASIS   BASIS     P2S    ABASIS      S 
                                         1400     1410     1200     1210     1080     1600     1650     1700   
                                           T        V       H0       H01     AOSYM     SMH    MOLCAS    OPER   

 PROGRAMS   *        TOTAL       INT
 CPU TIMES  *        14.04     13.80
 REAL TIME  *        18.57 SEC
 DISK USED  *        32.49 MB (local),        6.36 GB (total)
 GA USED    *         0.00 MB       (max)       0.00 MB       (current)
 **********************************************************************************************************************************


 PROGRAM * RHF-SCF (CLOSED SHELL)       Authors: W. Meyer, H.-J. Werner


 NUMBER OF ELECTRONS:      10+   10-    SPACE SYMMETRY=1    SPIN SYMMETRY: Singlet 
 CONVERGENCE THRESHOLDS:    1.00E-08 (Density)    1.00E-11 (Energy)
 MAX. NUMBER OF ITERATIONS:       60
 INTERPOLATION TYPE:            DIIS
 INTERPOLATION STEPS:              2 (START)      1 (STEP)
 LEVEL SHIFTS:                  0.00 (CLOSED)  0.00 (OPEN) 



 Orbital guess generated from atomic densities. Full valence occupancy:   16

 Molecular orbital dump at record        2100.2

 Initial occupancy:  10

 ITERATION    DDIFF          GRAD             ENERGY        2-EL.EN.            DIPOLE MOMENTS         DIIS   ORB.
    1      0.000D+00      0.000D+00      -116.21385086    158.939335   -0.23107    0.24258    1.09202    0    start
    2      0.000D+00      0.521D-02      -116.25747515    154.147686   -0.09648    0.14278    0.61223    1    diag
    3      0.548D-02      0.305D-02      -116.27070609    156.144188   -0.13204    0.16795    0.73123    2    diag
    4      0.182D-02      0.453D-03      -116.27135609    156.033566   -0.13078    0.16541    0.72020    3    diag
    5      0.400D-03      0.132D-03      -116.27142265    156.027533   -0.13027    0.16540    0.71961    4    diag
    6      0.144D-03      0.324D-04      -116.27142642    156.033449   -0.12998    0.16523    0.71880    5    diag
    7      0.399D-04      0.626D-05      -116.27142663    156.031873   -0.12998    0.16523    0.71882    6    diag
    8      0.108D-04      0.158D-05      -116.27142665    156.032021   -0.12994    0.16521    0.71875    7    diag
    9      0.236D-05      0.353D-06      -116.27142665    156.031995   -0.12994    0.16520    0.71874    8    diag
   10      0.754D-06      0.417D-07      -116.27142665    156.031997   -0.12994    0.16520    0.71874    9    orth
   11      0.589D-07      0.107D-07      -116.27142665    156.031998   -0.12994    0.16520    0.71874    9    diag
   12      0.232D-07      0.278D-08      -116.27142665    156.031998   -0.12994    0.16520    0.71874    9    diag
   13      0.447D-08      0.722D-09      -116.27142665    156.031998   -0.12994    0.16520    0.71874    0    orth

 Final occupancy:  10

 !RHF STATE  1.1 Energy              -116.271426652205
 Nuclear energy                        36.77810311
 One-electron energy                 -231.06552894
 Two-electron energy                   78.01599918
 Virial quotient                       -1.00107395
 !RHF STATE  1.1 Dipole moment         -0.12993908     0.16520405     0.71873709
 Dipole moment /Debye                  -0.33025056     0.41987930     1.82672782

 Orbital energies:

         1.1          2.1          3.1          4.1          5.1          6.1          7.1          8.1          9.1         10.1
    -20.569266   -11.199976    -1.341645    -0.953840    -0.707824    -0.578700    -0.554810    -0.553538    -0.550362    -0.506803

        11.1         12.1
      0.025900     0.041364


 HOMO     10.1    -0.506803 =     -13.7908eV
 LUMO     11.1     0.025900 =       0.7048eV
 LUMO-HOMO         0.532703 =      14.4956eV


 **********************************************************************************************************************************
 DATASETS  * FILE   NREC   LENGTH (MB)   RECORD NAMES
              1      18       32.04       500      610      700      900      950      970     1000      129      960     1100   
                                          VAR    BASINP    GEOM    SYMINP    ZMAT    AOBASIS   BASIS     P2S    ABASIS      S 
                                         1400     1410     1200     1210     1080     1600     1650     1700   
                                           T        V       H0       H01     AOSYM     SMH    MOLCAS    OPER   

              2       4        3.96       700     1000      520     2100   
                                         GEOM     BASIS   MCVARS     RHF  

 PROGRAMS   *        TOTAL    HF-SCF       INT
 CPU TIMES  *        28.34     14.29     13.80
 REAL TIME  *        34.93 SEC
 DISK USED  *        39.90 MB (local),        6.39 GB (total)
 SF USED    *         0.21 MB
 GA USED    *         0.00 MB       (max)       0.00 MB       (current)
 **********************************************************************************************************************************

 Basis set:  JKFIT                   
 Basis size:   740
 Attributes:
 Sphericals:   T
 Basis set:  MP2FIT                  
 Basis size:   816
 Attributes:
 Sphericals:   T
 Basis set:  RI                      
 Basis size:   556
 Attributes:
 Sphericals:   T
 Basis set:  TDDFT                   
 Basis size:   816
 Attributes:
 Sphericals:   T

 PROGRAM * CCSD (Closed-shell coupled cluster)     Authors: C. Hampel, H.-J. Werner, 1991, M. Deegan, P.J. Knowles, 1992

                                  CCSD-F12 implementation by  H.-J. Werner, 2007

                   Density fitting integral evaluation by F.R. Manby, 2003,2007, G. Knizia, 2010



 Convergence thresholds:  THRVAR = 1.00D-08  THRDEN = 1.00D-10

 CCSD(T)     terms to be evaluated (factor= 1.000)


 Number of core orbitals:           2 (   2 )
 Number of closed-shell orbitals:   8 (   8 )
 Number of external orbitals:     220 ( 220 )

 Molecular orbitals read from record     2100.2  Type=RHF/CANONICAL (state 1.1)

 MP2-F12 correlation treatment (H.-J. Werner, 2006)
 ==================================================

 Using MP2-F12 with ansatz 3C(FIX)

 Using projected zeroth-order Hamiltonian (+Z)

 FOCKRIB=T FOCKRIC=T FOCKRIP=T CABSP=T CABSA=T CABSK=T CABSF=T GBC=F EBC=F DMAT=T NOFIK=T NOPAO=1 SOLVE=-1  USEPAO=0
 EXCH_A= T EXCH_B= F EXCH_C= F EXCH_P= F

 Geminal basis:    OPTFULL  GEM_TYPE=SLATER  BETA=1.0  NGEM=6

 Optimizing Gaussian exponents for each gem_beta

 Geminal optimization for beta= 1.0000
 Weight function:   m=0, omega= 1.4646

 Augmented Hessian optimization of geminal fit. Trust ratio= 0.40000
 Convergence reached after   2 iterations. Final gradient= 7.85D-16, Step= 4.26D-06, Delta= 1.28D-09

 Alpha:                 0.19532     0.81920     2.85917     9.50073    35.69989   197.79328
 Coeff:                 0.27070     0.30552     0.18297     0.10986     0.06810     0.04224


 All pairs explicitly correlated. Number of r12-pairs:           36

 Excluding core orbitals from MO domains

 AO(A)-basis ORBITAL           loaded. Number of functions:     230
 RI(R)-basis RI                loaded. Number of functions:     556
 DF-basis JKFIT                loaded. Number of functions:     740

 Screening thresholds:   THRAO=  1.00D-10  THRMO=  1.00D-09  THRPROD=  1.00D-09
                         THRSW=  1.00D-05  THROV=  1.00D-12  THRAOF12= 1.00D-10

 CPU time for Fock operators                      3.70 sec

 Construction of ABS:
 Smallest eigenvalue of S          1.16E-04  (threshold= 1.00E-08)
 Ratio eigmin/eigmax               1.65E-05  (threshold= 1.00E-09)
 Smallest eigenvalue of S kept     1.16E-04  (threshold= 1.16E-04, 0 functions deleted, 556 kept)

 Construction of CABS:
 Smallest eigenvalue of S          5.78E-07  (threshold= 1.00E-08)
 Ratio eigmin/eigmax               5.78E-07  (threshold= 1.00E-09)
 Smallest eigenvalue of S kept     5.78E-07  (threshold= 5.78E-07, 0 functions deleted, 556 kept)

 CPU time for CABS singles                        0.66 sec

 CABS-singles contribution of  -0.00238113 patched into reference energy.
 New reference energy        -116.27380778

 AO(A)-basis ORBITAL           loaded. Number of functions:     230
 RI(R)-basis RI                loaded. Number of functions:     556
 DF-basis MP2FIT               loaded. Number of functions:     816

 Screening thresholds:   THRAO=  1.00D-10  THRMO=  1.00D-09  THRPROD=  1.00D-09
                         THRSW=  1.00D-05  THROV=  1.00D-12  THRAOF12= 1.00D-10

 CPU time for 3-index integral evaluation         5.30 sec
 CPU time for first  half transformation          1.08 sec ( 2785.1 MFLOP/sec)
 CPU time for second half transformation          0.04 sec ( 1165.6 MFLOP/sec)
 CPU time for sorting                             0.07 sec
 CPU time for fitting                             0.52 sec ( 4179.5 MFLOP/sec)
 CPU time for tilde quantities                    0.64 sec ( 4311.4 MFLOP/sec)
 CPU time for assembly                            4.56 sec ( 4343.4 MFLOP/sec)
 CPU time for tranop_f12                          4.35 sec ( 4388.5 MFLOP/sec)
 CPU time for f12 integrals (total)              23.38 sec, Elapsed time:     24.16 sec
 F12-matrices built in  4 passes.
 F12-matrices built in  4 passes.
 F12-matrices built in  4 passes.
 F12-matrices built in  4 passes.
 FC-matrix built in  4 passes.
 CPU time for f12 matrices (total)                1.13 sec, Elapsed time:      1.19 sec

 Diagonal F12 approximation with fixed coefficients:  TSING= 0.500,  TTRIP= 0.250 (scaled by -1/beta)

 DF-MP2-F12 energy corrections:
 ==============================
 Approx.                                    Singlet             Triplet             Total
 DF-MP2-F12/3*C(DX,FIX)                -0.046233446427     -0.006810771455     -0.053044217882
 DF-MP2-F12/3*C(FIX)                   -0.039917204711     -0.005618821233     -0.045536025945
 DF-MP2-F12/3C(FIX)                    -0.040035065860     -0.005584629478     -0.045619695338

 DF-MP2-F12 correlation energies:
 ================================
 Approx.                                    Singlet             Triplet             Ecorr            Total Energy
 DF-MP2                                -0.317390922108     -0.153905064211     -0.471295986319   -116.745103770907
 DF-MP2-F12/3*C(DX,FIX)                -0.363624368534     -0.160715835666     -0.524340204201   -116.798147988789
 DF-MP2-F12/3*C(FIX)                   -0.357308126819     -0.159523885444     -0.516832012263   -116.790639796852
 DF-MP2-F12/3C(FIX)                    -0.357425987967     -0.159489693689     -0.516915681657   -116.790723466245

 SCS-DF-MP2 energies (F_SING= 1.20000  F_TRIP= 0.62222  F_PARALLEL= 0.33333):
 ============================================================================
 SCS-DF-MP2                            -0.476632257594   -116.750440042183
 SCS-DF-MP2-F12/3*C(DX,FIX)            -0.536350206656   -116.810157991244
 SCS-DF-MP2-F12/3*C(FIX)               -0.528029058681   -116.801836843270
 SCS-DF-MP2-F12/3C(FIX)                -0.528149217190   -116.801957001778
 Symmetry transformation completed.

 Number of N-1 electron functions:               8
 Number of N-2 electron functions:              36
 Number of singly external CSFs:              1760
 Number of doubly external CSFs:           1549680
 Total number of CSFs:                     1551441

 Pair and operator lists are different

 Length of J-op  integral file:             315.61 MB
 Length of K-op  integral file:             368.50 MB
 Length of 3-ext integral record:             0.00 MB

 Memory could be reduced to 116.32 Mwords without degradation in triples

 Integral transformation finished. Total CPU:  23.97 sec, npass=  1  Memory used:  59.34 MW

 Reference energy:                   -116.27380778

 Adding F12 terms to K(Cij), methodcc=6,  factor= 1.0

 ITER.      SQ.NORM     CORR.ENERGY   TOTAL ENERGY   ENERGY CHANGE        DEN1      VAR(S)    VAR(P)  DIIS     TIME  TIME/IT
   1      1.13204036    -0.48596008  -116.75976787    -0.01464671    -0.00302757  0.15D-02  0.20D-02  1  1    69.32    14.60
   2      1.14028661    -0.48622575  -116.76003354    -0.00026567    -0.00970551  0.28D-04  0.23D-03  2  2    83.93    14.78
   3      1.14315315    -0.48648471  -116.76029250    -0.00025896    -0.00195640  0.12D-04  0.12D-04  3  3    98.53    14.81
   4      1.14402341    -0.48653935  -116.76034714    -0.00005464    -0.00047926  0.52D-06  0.11D-05  4  4   113.47    14.91
   5      1.14416815    -0.48653399  -116.76034178     0.00000536    -0.00003917  0.20D-06  0.76D-07  5  5   128.17    14.93
   6      1.14420857    -0.48653104  -116.76033883     0.00000295    -0.00000623  0.19D-07  0.60D-08  6  6   142.83    14.93
   7      1.14421825    -0.48653032  -116.76033810     0.00000073    -0.00000259  0.18D-08  0.95D-09  6  2   157.54    14.94
   8      1.14422043    -0.48653020  -116.76033798     0.00000012    -0.00000030  0.34D-09  0.10D-09  6  1   172.21    14.94
   9      1.14422123    -0.48653027  -116.76033806    -0.00000008     0.00000000  0.33D-10  0.16D-10  6  3   186.79    14.94
  10      1.14422141    -0.48653026  -116.76033805     0.00000001     0.00000003  0.39D-11  0.21D-11  6  4   201.49    14.94
  11      1.14422135    -0.48653027  -116.76033805    -0.00000001     0.00000008  0.70D-12  0.30D-12  6  5   216.08    14.94
  12      1.14422132    -0.48653027  -116.76033805    -0.00000000     0.00000002  0.13D-12  0.42D-13  6  6   230.78    14.94
  13      1.14422130    -0.48653027  -116.76033805    -0.00000000     0.00000001  0.20D-13  0.65D-14  6  2   245.41    14.95
  14      1.14422129    -0.48653027  -116.76033806    -0.00000000     0.00000000  0.26D-14  0.13D-14  6  1   260.95    15.01
  15      1.14422129    -0.48653027  -116.76033806    -0.00000000    -0.00000000  0.25D-15  0.15D-15  6  3   275.61    15.01
  16      1.14422129    -0.48653027  -116.76033806     0.00000000    -0.00000000  0.34D-16  0.20D-16  6  4   290.41    15.01
  17      1.14422129    -0.48653027  -116.76033806     0.00000000    -0.00000000  0.64D-17  0.33D-17  6  5   305.04    15.01

 Norm of t1 vector:      0.05056300      S-energy:     0.00000000      T1 diagnostic:  0.00893836
                                                                       D1 diagnostic:  0.01892457

 Adding energy correction from Wij-K(Fij), methodcc=6  factor= 1.0

  CCSD correlation energy              -0.486530270814
  MP2-F12 correction (uncoupled)       -0.045362871719
  C*T doubles correction               -0.000607771438
  f12b correction                       0.008421977921


 Total CPU time for triples:    218.99 sec

  Ecorr(MP2)                           -0.471313376374
  Ecorr(MP2-F12)                       -0.516933071711
  Scale factor for triples energy       1.096792702318


 RESULTS
 =======

  Reference energy                   -116.271426652204
  F12 singles correction               -0.002381132385

 F12 singles corrections added to reference energy

  New reference energy               -116.273807784589

  F12a singlet correction              -0.040290453865
  F12a triplet correction              -0.005680189292
  F12a total correction                -0.045970643157

 F12a corrections for ansatz F12/3C(FIX) added to CCSD energy

  CCSD-F12a singlet pair energy        -0.386028943603
  CCSD-F12a triplet pair energy        -0.146471970466
  CCSD-F12a correlation energy         -0.532500913971

  Triples (T) contribution (scaled)    -0.016494059566
  Total correlation energy             -0.548994973538

  CCSD-F12a total energy             -116.806308698560
  CCSD[T]-F12a energy                -116.823394152620
  CCSD-T-F12a energy                 -116.822582959044
 !CCSD(T)-F12a total energy          -116.822802758126

 F12b corrections for ansatz F12/3C(FIX) added to CCSD(T)-F12a energy

  CCSD-F12b singlet pair energy        -0.378138545958
  CCSD-F12b triplet pair energy        -0.145940390190
  CCSD-F12b correlation energy         -0.524078936050

  Triples (T) contribution (scaled)    -0.016494059566
  Total correlation energy             -0.540572995616

  CCSD-F12b total energy             -116.797886720639
  CCSD[T]-F12b energy                -116.814972174699
  CCSD-T-F12b energy                 -116.814160981123
 !CCSD(T)-F12b total energy          -116.814380780205

 Timing summary (sec):

 STEP                 CPU(USER)    SYS     CPU(TOT)    WALL
 Transformation         24.15      0.98     25.13     25.52
 CCSD iterations       250.10      4.72    254.82    255.19
 Triples               218.99      0.90    219.89    220.12
 MP2-F12                30.81      0.96     31.77     31.83
 F12b energy            11.34      0.11     11.45     11.47

 Program statistics:

 Available memory in ccsd:              1999999554
 Min. memory needed in ccsd:               4597329
 Max. memory used in ccsd:                 5918289
 Max. memory used in cckext:               4231061 (18 integral passes)



 **********************************************************************************************************************************
 DATASETS  * FILE   NREC   LENGTH (MB)   RECORD NAMES
              1      19      398.06       500      610      700      900      950      970     1000      129      960     1100   
                                          VAR    BASINP    GEOM    SYMINP    ZMAT    AOBASIS   BASIS     P2S    ABASIS      S 
                                         1400     1410     1200     1210     1080     1600     1650     1700     1380   
                                           T        V       H0       H01     AOSYM     SMH    MOLCAS    OPER     JKOP   

              2       6        5.03       700     1000      520     2100     7360     7350   
                                         GEOM     BASIS   MCVARS     RHF    F12ABS    EF12   

 PROGRAMS   *        TOTAL   CCSD(T)    HF-SCF       INT
 CPU TIMES  *       563.95    535.61     14.29     13.80
 REAL TIME  *       579.88 SEC
 DISK USED  *       570.60 MB (local),        8.02 GB (total)
 SF USED    *         1.36 GB
 GA USED    *         4.87 MB       (max)       0.00 MB       (current)
 **********************************************************************************************************************************

 Running procedure: SET_MONOMER1

 Dummy atoms: C1  H41  H42  H43  H44


 Recomputing one-electron integrals since nuclear charges changed


 PROGRAM * SEWARD (Integral evaluation for generally contracted gaussian basis sets)     Author: Roland Lindh, 1990

 Geometry written to block  1 of record 700


 Point group  C1  



 ATOMIC COORDINATES

 NR  ATOM    CHARGE       X              Y              Z

   1  O16     8.00  -11.397505175    1.072419576   -2.197184565
   2  H31     1.00  -11.790001291    2.731599113   -1.480411446
   3  H32     1.00  -11.462511754   -0.108659252   -0.778945109
   4  C1      0.00   -6.193010455    2.801518980    2.403542658
   5  H41     0.00   -4.656285171    1.699997622    3.119937832
   6  H42     0.00   -5.973046335    4.726205038    2.982932688
   7  H43     0.00   -7.940251230    2.077186956    3.118237078
   8  H44     0.00   -6.176569838    2.685300823    0.384937212

 Bond lengths in Bohr (Angstrom)

 1-2  1.849511731  1-3  1.846774542  4-5  2.021904040  4-6  2.022002335  4-7  2.021953343
     ( 0.978719459)     ( 0.977271001)     ( 1.069945541)     ( 1.069997556)     ( 1.069971630)

 4-8  2.022015060
     ( 1.070004290)

 Bond angles

  2-1-3  105.58293551   5-4-6  109.53398059   5-4-7  109.65604535   5-4-8  108.43490854

  6-4-7  109.49436728   6-4-8  109.86987750   7-4-8  109.83468330

 NUCLEAR CHARGE:                   10
 NUMBER OF PRIMITIVE AOS:         296
 NUMBER OF SYMMETRY AOS:          266
 NUMBER OF CONTRACTIONS:          230   (  230A   )
 NUMBER OF CORE ORBITALS:           1   (    1A   )
 NUMBER OF VALENCE ORBITALS:        6   (    6A   )

 MOLECULE CHANGED: INITIALIZING OCCUPATION AND DUMP RECORDS


 NUCLEAR REPULSION ENERGY    8.99703174

 Basis set:  JKFIT                   
 Basis size:   740
 Attributes:
 Sphericals:   T
 Basis set:  MP2FIT                  
 Basis size:   816
 Attributes:
 Sphericals:   T
 Basis set:  RI                      
 Basis size:   556
 Attributes:
 Sphericals:   T
 Basis set:  TDDFT                   
 Basis size:   816
 Attributes:
 Sphericals:   T

 Eigenvalues of metric

         1 0.685E-04 0.888E-04 0.978E-04 0.102E-03 0.337E-03 0.393E-03 0.690E-03 0.754E-03


 Contracted 2-electron integrals neglected if value below      1.0D-14

 OPERATOR DM      FOR CENTER  0  COORDINATES:    0.000000    0.000000    0.000000


 **********************************************************************************************************************************
 DATASETS  * FILE   NREC   LENGTH (MB)   RECORD NAMES
              1      18       32.04       500      610      700      900      950      970     1000      129      960     1100   
                                          VAR    BASINP    GEOM    SYMINP    ZMAT    AOBASIS   BASIS     P2S    ABASIS      S 
                                         1400     1410     1200     1210     1080     1600     1650     1700   
                                           T        V       H0       H01     AOSYM     SMH    MOLCAS    OPER   

              2       7        5.05       700     1000      520     2100     7360     7350      200   
                                         GEOM     BASIS   MCVARS     RHF    F12ABS    EF12    OPTIONS    

 PROGRAMS   *        TOTAL       INT   CCSD(T)    HF-SCF       INT
 CPU TIMES  *       564.18      0.23    535.61     14.29     13.80
 REAL TIME  *       580.61 SEC
 DISK USED  *       570.60 MB (local),        8.02 GB (total)
 SF USED    *         1.36 GB
 GA USED    *         4.87 MB       (max)       0.00 MB       (current)
 **********************************************************************************************************************************


 PROGRAM * RHF-SCF (CLOSED SHELL)       Authors: W. Meyer, H.-J. Werner


 NUMBER OF ELECTRONS:       5+    5-    SPACE SYMMETRY=1    SPIN SYMMETRY: Singlet 
 CONVERGENCE THRESHOLDS:    1.00E-08 (Density)    1.00E-11 (Energy)
 MAX. NUMBER OF ITERATIONS:       60
 INTERPOLATION TYPE:            DIIS
 INTERPOLATION STEPS:              2 (START)      1 (STEP)
 LEVEL SHIFTS:                  0.00 (CLOSED)  0.00 (OPEN) 



 Orbital guess generated from atomic densities. Full valence occupancy:    7

 Molecular orbital dump at record        2101.2

 Initial occupancy:   5

 ITERATION    DDIFF          GRAD             ENERGY        2-EL.EN.            DIPOLE MOMENTS         DIIS   ORB.
    1      0.000D+00      0.000D+00       -76.02031362     77.377768   -0.23478    0.24569    1.09503    0    start
    2      0.000D+00      0.639D-02       -76.04691254     73.749278   -0.13675    0.14263    0.63784    1    diag
    3      0.444D-02      0.407D-02       -76.05825751     75.353161   -0.16099    0.16804    0.75100    2    diag
    4      0.161D-02      0.376D-03       -76.05844823     75.263820   -0.16005    0.16698    0.74667    3    diag
    5      0.206D-03      0.104D-03       -76.05846816     75.277897   -0.15969    0.16657    0.74501    4    diag
    6      0.647D-04      0.203D-04       -76.05846939     75.277023   -0.15962    0.16649    0.74470    5    diag
    7      0.168D-04      0.401D-05       -76.05846945     75.277151   -0.15959    0.16646    0.74458    6    diag
    8      0.452D-05      0.745D-06       -76.05846945     75.277136   -0.15958    0.16645    0.74454    7    diag
    9      0.760D-06      0.954D-07       -76.05846945     75.277127   -0.15958    0.16645    0.74453    8    diag
   10      0.902D-07      0.235D-07       -76.05846945     75.277131   -0.15958    0.16645    0.74453    9    orth
   11      0.244D-07      0.417D-08       -76.05846945     75.277130   -0.15958    0.16645    0.74453    9    diag
   12      0.493D-08      0.604D-09       -76.05846945     75.277130   -0.15958    0.16645    0.74453    0    orth

 Final occupancy:   5

 !RHF STATE  1.1 Energy               -76.058469451278
 Nuclear energy                         8.99703174
 One-electron energy                 -122.69406637
 Two-electron energy                   37.63856518
 Virial quotient                       -1.00239097
 !RHF STATE  1.1 Dipole moment         -0.15958291     0.16644966     0.74453455
 Dipole moment /Debye                  -0.40559274     0.42304512     1.89229412

 Orbital energies:

         1.1          2.1          3.1          4.1          5.1          6.1          7.1
    -20.570299    -1.342375    -0.708564    -0.578877    -0.508353     0.019322     0.039071


 HOMO      5.1    -0.508353 =     -13.8330eV
 LUMO      6.1     0.019322 =       0.5258eV
 LUMO-HOMO         0.527676 =      14.3588eV


 **********************************************************************************************************************************
 DATASETS  * FILE   NREC   LENGTH (MB)   RECORD NAMES
              1      18       32.04       500      610      700      900      950      970     1000      129      960     1100   
                                          VAR    BASINP    GEOM    SYMINP    ZMAT    AOBASIS   BASIS     P2S    ABASIS      S 
                                         1400     1410     1200     1210     1080     1600     1650     1700   
                                           T        V       H0       H01     AOSYM     SMH    MOLCAS    OPER   

              2       8        9.09       700     1000      520     2100     7360     7350      200     2101   
                                         GEOM     BASIS   MCVARS     RHF    F12ABS    EF12    OPTIONS    RHF  

 PROGRAMS   *        TOTAL    HF-SCF       INT   CCSD(T)    HF-SCF       INT
 CPU TIMES  *       577.59     13.40      0.23    535.61     14.29     13.80
 REAL TIME  *       595.76 SEC
 DISK USED  *       570.60 MB (local),        8.02 GB (total)
 SF USED    *         1.36 GB
 GA USED    *         4.87 MB       (max)       0.00 MB       (current)
 **********************************************************************************************************************************

 Basis set:  JKFIT                   
 Basis size:   740
 Attributes:
 Sphericals:   T
 Basis set:  MP2FIT                  
 Basis size:   816
 Attributes:
 Sphericals:   T
 Basis set:  RI                      
 Basis size:   556
 Attributes:
 Sphericals:   T
 Basis set:  TDDFT                   
 Basis size:   816
 Attributes:
 Sphericals:   T

 PROGRAM * CCSD (Closed-shell coupled cluster)     Authors: C. Hampel, H.-J. Werner, 1991, M. Deegan, P.J. Knowles, 1992

                                  CCSD-F12 implementation by  H.-J. Werner, 2007

                   Density fitting integral evaluation by F.R. Manby, 2003,2007, G. Knizia, 2010



 Convergence thresholds:  THRVAR = 1.00D-08  THRDEN = 1.00D-10

 CCSD(T)     terms to be evaluated (factor= 1.000)


 Number of core orbitals:           1 (   1 )
 Number of closed-shell orbitals:   4 (   4 )
 Number of external orbitals:     225 ( 225 )

 Molecular orbitals read from record     2101.2  Type=RHF/CANONICAL (state 1.1)

 MP2-F12 correlation treatment (H.-J. Werner, 2006)
 ==================================================

 Using MP2-F12 with ansatz 3C(FIX)

 Using projected zeroth-order Hamiltonian (+Z)

 FOCKRIB=T FOCKRIC=T FOCKRIP=T CABSP=T CABSA=T CABSK=T CABSF=T GBC=F EBC=F DMAT=T NOFIK=T NOPAO=1 SOLVE=-1  USEPAO=0
 EXCH_A= T EXCH_B= F EXCH_C= F EXCH_P= F

 Geminal basis:    OPTFULL  GEM_TYPE=SLATER  BETA=1.0  NGEM=6

 Optimizing Gaussian exponents for each gem_beta

 Geminal optimization for beta= 1.0000
 Weight function:   m=0, omega= 1.4646

 Augmented Hessian optimization of geminal fit. Trust ratio= 0.40000
 Convergence reached after   2 iterations. Final gradient= 8.31D-16, Step= 4.24D-06, Delta= 1.28D-09

 Alpha:                 0.19532     0.81920     2.85917     9.50073    35.69989   197.79328
 Coeff:                 0.27070     0.30552     0.18297     0.10986     0.06810     0.04224


 All pairs explicitly correlated. Number of r12-pairs:           10

 Excluding core orbitals from MO domains

 AO(A)-basis ORBITAL           loaded. Number of functions:     230
 RI(R)-basis RI                loaded. Number of functions:     556
 DF-basis JKFIT                loaded. Number of functions:     740

 Screening thresholds:   THRAO=  1.00D-10  THRMO=  1.00D-09  THRPROD=  1.00D-09
                         THRSW=  1.00D-05  THROV=  1.00D-12  THRAOF12= 1.00D-10

 CPU time for Fock operators                      3.01 sec

 Construction of ABS:
 Smallest eigenvalue of S          1.16E-04  (threshold= 1.00E-08)
 Ratio eigmin/eigmax               1.65E-05  (threshold= 1.00E-09)
 Smallest eigenvalue of S kept     1.16E-04  (threshold= 1.16E-04, 0 functions deleted, 556 kept)

 Construction of CABS:
 Smallest eigenvalue of S          5.78E-07  (threshold= 1.00E-08)
 Ratio eigmin/eigmax               5.78E-07  (threshold= 1.00E-09)
 Smallest eigenvalue of S kept     5.78E-07  (threshold= 5.78E-07, 0 functions deleted, 556 kept)

 CPU time for CABS singles                        0.67 sec

 CABS-singles contribution of  -0.00147131 patched into reference energy.
 New reference energy         -76.05994076

 AO(A)-basis ORBITAL           loaded. Number of functions:     230
 RI(R)-basis RI                loaded. Number of functions:     556
 DF-basis MP2FIT               loaded. Number of functions:     816

 Screening thresholds:   THRAO=  1.00D-10  THRMO=  1.00D-09  THRPROD=  1.00D-09
                         THRSW=  1.00D-05  THROV=  1.00D-12  THRAOF12= 1.00D-10

 CPU time for 3-index integral evaluation         5.30 sec
 CPU time for first  half transformation          0.67 sec ( 2285.8 MFLOP/sec)
 CPU time for second half transformation          0.01 sec ( 1309.2 MFLOP/sec)
 CPU time for sorting                             0.04 sec
 CPU time for fitting                             0.40 sec ( 4484.5 MFLOP/sec)
 CPU time for tilde quantities                    0.38 sec ( 5561.6 MFLOP/sec)
 CPU time for assembly                            1.40 sec ( 3387.7 MFLOP/sec)
 CPU time for tranop_f12                          1.28 sec ( 3286.1 MFLOP/sec)
 CPU time for f12 integrals (total)              11.76 sec, Elapsed time:     12.03 sec
 F12-matrices built in  4 passes.
 F12-matrices built in  4 passes.
 F12-matrices built in  4 passes.
 F12-matrices built in  4 passes.
 FC-matrix built in  4 passes.
 CPU time for f12 matrices (total)                0.27 sec, Elapsed time:      0.30 sec

 Diagonal F12 approximation with fixed coefficients:  TSING= 0.500,  TTRIP= 0.250 (scaled by -1/beta)

 DF-MP2-F12 energy corrections:
 ==============================
 Approx.                                    Singlet             Triplet             Total
 DF-MP2-F12/3*C(DX,FIX)                -0.029501233521     -0.004868340862     -0.034369574383
 DF-MP2-F12/3*C(FIX)                   -0.024426402696     -0.003814333181     -0.028240735877
 DF-MP2-F12/3C(FIX)                    -0.024558055194     -0.003787501980     -0.028345557174

 DF-MP2-F12 correlation energies:
 ================================
 Approx.                                    Singlet             Triplet             Ecorr            Total Energy
 DF-MP2                                -0.171774201143     -0.098262613283     -0.270036814426    -76.329977576809
 DF-MP2-F12/3*C(DX,FIX)                -0.201275434664     -0.103130954145     -0.304406388809    -76.364347151192
 DF-MP2-F12/3*C(FIX)                   -0.196200603839     -0.102076946464     -0.298277550303    -76.358218312686
 DF-MP2-F12/3C(FIX)                    -0.196332256337     -0.102050115262     -0.298382371600    -76.358323133983

 SCS-DF-MP2 energies (F_SING= 1.20000  F_TRIP= 0.62222  F_PARALLEL= 0.33333):
 ============================================================================
 SCS-DF-MP2                            -0.267270222970    -76.327210985353
 SCS-DF-MP2-F12/3*C(DX,FIX)            -0.305700893065    -76.365641655448
 SCS-DF-MP2-F12/3*C(FIX)               -0.298955269074    -76.358896031457
 SCS-DF-MP2-F12/3C(FIX)                -0.299096557102    -76.359037319485
 Symmetry transformation completed.

 Number of N-1 electron functions:               4
 Number of N-2 electron functions:              10
 Number of singly external CSFs:               900
 Number of doubly external CSFs:            405450
 Total number of CSFs:                      406351

 Pair and operator lists are different

 Length of J-op  integral file:              81.60 MB
 Length of K-op  integral file:             128.10 MB
 Length of 3-ext integral record:             0.00 MB

 Memory could be reduced to 75.63 Mwords without degradation in triples

 Integral transformation finished. Total CPU:  12.32 sec, npass=  1  Memory used:  32.52 MW

 Reference energy:                    -76.05994076

 Adding F12 terms to K(Cij), methodcc=6,  factor= 1.0

 ITER.      SQ.NORM     CORR.ENERGY   TOTAL ENERGY   ENERGY CHANGE        DEN1      VAR(S)    VAR(P)  DIIS     TIME  TIME/IT
   1      1.06231017    -0.26964909   -76.32958986     0.00039523     0.00633375  0.79D-03  0.10D-02  1  1    33.54     4.05
   2      1.06573379    -0.26932598   -76.32926674     0.00032311    -0.00463108  0.13D-04  0.11D-03  2  2    37.37     4.12
   3      1.06697162    -0.26944761   -76.32938837    -0.00012163    -0.00082696  0.93D-05  0.60D-05  3  3    41.32     4.11
   4      1.06746174    -0.26948464   -76.32942540    -0.00003703    -0.00027614  0.42D-06  0.66D-06  4  4    45.25     4.11
   5      1.06755450    -0.26948178   -76.32942255     0.00000286    -0.00002865  0.16D-06  0.46D-07  5  5    49.23     4.11
   6      1.06758596    -0.26947967   -76.32942043     0.00000211    -0.00000440  0.17D-07  0.38D-08  6  6    53.18     4.12
   7      1.06759386    -0.26947939   -76.32942015     0.00000029    -0.00000158  0.14D-08  0.86D-09  6  2    57.11     4.11
   8      1.06759549    -0.26947927   -76.32942003     0.00000012    -0.00000006  0.26D-09  0.89D-10  6  1    60.99     4.12
   9      1.06759610    -0.26947933   -76.32942010    -0.00000007     0.00000009  0.22D-10  0.90D-11  6  3    64.85     4.11
  10      1.06759627    -0.26947932   -76.32942009     0.00000001    -0.00000001  0.32D-11  0.14D-11  6  4    68.70     4.11
  11      1.06759625    -0.26947932   -76.32942009    -0.00000000     0.00000004  0.68D-12  0.19D-12  6  5    72.65     4.12
  12      1.06759624    -0.26947933   -76.32942009    -0.00000000     0.00000001  0.11D-12  0.34D-13  6  6    76.61     4.12
  13      1.06759623    -0.26947933   -76.32942009     0.00000000     0.00000000  0.15D-13  0.57D-14  6  2    80.49     4.12
  14      1.06759623    -0.26947933   -76.32942009    -0.00000000     0.00000000  0.16D-14  0.83D-15  6  1    84.34     4.12
  15      1.06759623    -0.26947933   -76.32942009    -0.00000000     0.00000000  0.25D-15  0.11D-15  6  5    88.25     4.12
  16      1.06759623    -0.26947933   -76.32942009    -0.00000000     0.00000000  0.29D-16  0.86D-17  6  3    92.13     4.12

 Norm of t1 vector:      0.03700051      S-energy:     0.00000000      T1 diagnostic:  0.00925013
                                                                       D1 diagnostic:  0.01839373

 Adding energy correction from Wij-K(Fij), methodcc=6  factor= 1.0

  CCSD correlation energy              -0.269479325873
  MP2-F12 correction (uncoupled)       -0.028078918903
  C*T doubles correction               -0.000413039268
  f12b correction                       0.004757966971


 Total CPU time for triples:     34.09 sec

  Ecorr(MP2)                           -0.270044327437
  Ecorr(MP2-F12)                       -0.298389884611
  Scale factor for triples energy       1.104966312171


 RESULTS
 =======

  Reference energy                    -76.058469451278
  F12 singles correction               -0.001471311105

 F12 singles corrections added to reference energy

  New reference energy                -76.059940762383

  F12a singlet correction              -0.024633937729
  F12a triplet correction              -0.003858020442
  F12a total correction                -0.028491958171

 F12a corrections for ansatz F12/3C(FIX) added to CCSD energy

  CCSD-F12a singlet pair energy        -0.207370973453
  CCSD-F12a triplet pair energy        -0.090600310604
  CCSD-F12a correlation energy         -0.297971284044

  Triples (T) contribution (scaled)    -0.009542538754
  Total correlation energy             -0.307513822798

  CCSD-F12a total energy              -76.357912046427
  CCSD[T]-F12a energy                 -76.367802002862
  CCSD-T-F12a energy                  -76.367311803139
 !CCSD(T)-F12a total energy           -76.367454585181

 F12b corrections for ansatz F12/3C(FIX) added to CCSD(T)-F12a energy

  CCSD-F12b singlet pair energy        -0.202971539286
  CCSD-F12b triplet pair energy        -0.090241777800
  CCSD-F12b correlation energy         -0.293213317073

  Triples (T) contribution (scaled)    -0.009542538754
  Total correlation energy             -0.302755855827

  CCSD-F12b total energy              -76.353154079456
  CCSD[T]-F12b energy                 -76.363044035890
  CCSD-T-F12b energy                  -76.362553836168
 !CCSD(T)-F12b total energy           -76.362696618210

 Timing summary (sec):

 STEP                 CPU(USER)    SYS     CPU(TOT)    WALL
 Transformation         12.38      0.52     12.90     12.94
 CCSD iterations        62.43      3.10     65.53     65.95
 Triples                34.09      0.17     34.26     34.49
 MP2-F12                17.35      0.38     17.73     17.75
 F12b energy             3.41      0.09      3.50      3.50

 Program statistics:

 Available memory in ccsd:              1999999871
 Min. memory needed in ccsd:               1862772
 Max. memory used in ccsd:                 2158322
 Max. memory used in cckext:               1445635 (17 integral passes)



 **********************************************************************************************************************************
 DATASETS  * FILE   NREC   LENGTH (MB)   RECORD NAMES
              1      19      222.31       500      610      700      900      950      970     1000      129      960     1100   
                                          VAR    BASINP    GEOM    SYMINP    ZMAT    AOBASIS   BASIS     P2S    ABASIS      S 
                                         1400     1410     1200     1210     1080     1600     1650     1700     1380   
                                           T        V       H0       H01     AOSYM     SMH    MOLCAS    OPER     JKOP   

              2       8        9.09       700     1000      520     2100     7360     7350      200     2101   
                                         GEOM     BASIS   MCVARS     RHF    F12ABS    EF12    OPTIONS    RHF  

 PROGRAMS   *        TOTAL   CCSD(T)    HF-SCF       INT   CCSD(T)    HF-SCF       INT
 CPU TIMES  *       707.49    129.90     13.40      0.23    535.61     14.29     13.80
 REAL TIME  *       731.14 SEC
 DISK USED  *       570.60 MB (local),        8.02 GB (total)
 SF USED    *         1.36 GB
 GA USED    *         4.87 MB       (max)       0.00 MB       (current)
 **********************************************************************************************************************************

 Running procedure: SET_MONOMER2

 Dummy atoms: O16  H31  H32


 Recomputing one-electron integrals since nuclear charges changed


 PROGRAM * SEWARD (Integral evaluation for generally contracted gaussian basis sets)     Author: Roland Lindh, 1990

 Geometry written to block  1 of record 700


 Point group  C1  



 ATOMIC COORDINATES

 NR  ATOM    CHARGE       X              Y              Z

   1  O16     0.00  -11.397505175    1.072419576   -2.197184565
   2  H31     0.00  -11.790001291    2.731599113   -1.480411446
   3  H32     0.00  -11.462511754   -0.108659252   -0.778945109
   4  C1      6.00   -6.193010455    2.801518980    2.403542658
   5  H41     1.00   -4.656285171    1.699997622    3.119937832
   6  H42     1.00   -5.973046335    4.726205038    2.982932688
   7  H43     1.00   -7.940251230    2.077186956    3.118237078
   8  H44     1.00   -6.176569838    2.685300823    0.384937212

 Bond lengths in Bohr (Angstrom)

 1-2  1.849511731  1-3  1.846774542  4-5  2.021904040  4-6  2.022002335  4-7  2.021953343
     ( 0.978719459)     ( 0.977271001)     ( 1.069945541)     ( 1.069997556)     ( 1.069971630)

 4-8  2.022015060
     ( 1.070004290)

 Bond angles

  2-1-3  105.58293551   5-4-6  109.53398059   5-4-7  109.65604535   5-4-8  108.43490854

  6-4-7  109.49436728   6-4-8  109.86987750   7-4-8  109.83468330

 NUCLEAR CHARGE:                   10
 NUMBER OF PRIMITIVE AOS:         296
 NUMBER OF SYMMETRY AOS:          266
 NUMBER OF CONTRACTIONS:          230   (  230A   )
 NUMBER OF CORE ORBITALS:           1   (    1A   )
 NUMBER OF VALENCE ORBITALS:        8   (    8A   )

 MOLECULE CHANGED: INITIALIZING OCCUPATION AND DUMP RECORDS


 NUCLEAR REPULSION ENERGY   13.68681606

 Basis set:  JKFIT                   
 Basis size:   740
 Attributes:
 Sphericals:   T
 Basis set:  MP2FIT                  
 Basis size:   816
 Attributes:
 Sphericals:   T
 Basis set:  RI                      
 Basis size:   556
 Attributes:
 Sphericals:   T
 Basis set:  TDDFT                   
 Basis size:   816
 Attributes:
 Sphericals:   T

 Eigenvalues of metric

         1 0.685E-04 0.888E-04 0.978E-04 0.102E-03 0.337E-03 0.393E-03 0.690E-03 0.754E-03


 Contracted 2-electron integrals neglected if value below      1.0D-14

 OPERATOR DM      FOR CENTER  0  COORDINATES:    0.000000    0.000000    0.000000


 **********************************************************************************************************************************
 DATASETS  * FILE   NREC   LENGTH (MB)   RECORD NAMES
              1      18       32.04       500      610      700      900      950      970     1000      129      960     1100   
                                          VAR    BASINP    GEOM    SYMINP    ZMAT    AOBASIS   BASIS     P2S    ABASIS      S 
                                         1400     1410     1200     1210     1080     1600     1650     1700   
                                           T        V       H0       H01     AOSYM     SMH    MOLCAS    OPER   

              2       8        9.09       700     1000      520     2100     7360     7350      200     2101   
                                         GEOM     BASIS   MCVARS     RHF    F12ABS    EF12    OPTIONS    RHF  

 PROGRAMS   *        TOTAL       INT   CCSD(T)    HF-SCF       INT   CCSD(T)    HF-SCF       INT
 CPU TIMES  *       707.73      0.24    129.90     13.40      0.23    535.61     14.29     13.80
 REAL TIME  *       731.84 SEC
 DISK USED  *       570.60 MB (local),        8.02 GB (total)
 SF USED    *         1.36 GB
 GA USED    *         4.87 MB       (max)       0.00 MB       (current)
 **********************************************************************************************************************************


 PROGRAM * RHF-SCF (CLOSED SHELL)       Authors: W. Meyer, H.-J. Werner


 NUMBER OF ELECTRONS:       5+    5-    SPACE SYMMETRY=1    SPIN SYMMETRY: Singlet 
 CONVERGENCE THRESHOLDS:    1.00E-08 (Density)    1.00E-11 (Energy)
 MAX. NUMBER OF ITERATIONS:       60
 INTERPOLATION TYPE:            DIIS
 INTERPOLATION STEPS:              2 (START)      1 (STEP)
 LEVEL SHIFTS:                  0.00 (CLOSED)  0.00 (OPEN) 



 Orbital guess generated from atomic densities. Full valence occupancy:    9

 Molecular orbital dump at record        2102.2

 Initial occupancy:   5

 ITERATION    DDIFF          GRAD             ENERGY        2-EL.EN.            DIPOLE MOMENTS         DIIS   ORB.
    1      0.000D+00      0.000D+00       -40.19358677     53.494035    0.00412   -0.00275   -0.00128    0    start
    2      0.000D+00      0.353D-02       -40.21070413     52.213678    0.00131   -0.00087   -0.00036    1    diag
    3      0.323D-02      0.137D-02       -40.21295257     52.664847    0.00184   -0.00122   -0.00053    2    diag
    4      0.902D-03      0.342D-03       -40.21326804     52.609820    0.00163   -0.00109   -0.00046    3    diag
    5      0.297D-03      0.444D-04       -40.21327343     52.612159    0.00161   -0.00107   -0.00045    4    diag
    6      0.816D-04      0.344D-05       -40.21327347     52.612256    0.00161   -0.00107   -0.00045    5    diag
    7      0.668D-05      0.264D-06       -40.21327347     52.612222    0.00160   -0.00107   -0.00045    6    diag
    8      0.101D-05      0.222D-07       -40.21327347     52.612222    0.00161   -0.00107   -0.00045    7    diag
    9      0.188D-06      0.287D-08       -40.21327347     52.612222    0.00160   -0.00107   -0.00045    8    diag
   10      0.106D-07      0.802D-09       -40.21327347     52.612222    0.00160   -0.00107   -0.00045    9    orth
   11      0.118D-08      0.106D-09       -40.21327347     52.612222    0.00160   -0.00107   -0.00045    0    orth

 Final occupancy:   5

 !RHF STATE  1.1 Energy               -40.213273468971
 Nuclear energy                        13.68681606
 One-electron energy                  -80.20620076
 Two-electron energy                   26.30611123
 Virial quotient                       -0.99870341
 !RHF STATE  1.1 Dipole moment          0.00160495    -0.00106955    -0.00044941
 Dipole moment /Debye                   0.00407910    -0.00271834    -0.00114220

 Orbital energies:

         1.1          2.1          3.1          4.1          5.1          6.1          7.1
    -11.197211    -0.950742    -0.551695    -0.549760    -0.547581     0.027786     0.042056


 HOMO      5.1    -0.547581 =     -14.9004eV
 LUMO      6.1     0.027786 =       0.7561eV
 LUMO-HOMO         0.575367 =      15.6565eV


 **********************************************************************************************************************************
 DATASETS  * FILE   NREC   LENGTH (MB)   RECORD NAMES
              1      18       32.04       500      610      700      900      950      970     1000      129      960     1100   
                                          VAR    BASINP    GEOM    SYMINP    ZMAT    AOBASIS   BASIS     P2S    ABASIS      S 
                                         1400     1410     1200     1210     1080     1600     1650     1700   
                                           T        V       H0       H01     AOSYM     SMH    MOLCAS    OPER   

              2       9       13.71       700     1000      520     2100     7360     7350      200     2101     2102   
                                         GEOM     BASIS   MCVARS     RHF    F12ABS    EF12    OPTIONS    RHF      RHF  

 PROGRAMS   *        TOTAL    HF-SCF       INT   CCSD(T)    HF-SCF       INT   CCSD(T)    HF-SCF       INT
 CPU TIMES  *       720.06     12.33      0.24    129.90     13.40      0.23    535.61     14.29     13.80
 REAL TIME  *       745.84 SEC
 DISK USED  *       570.60 MB (local),        8.02 GB (total)
 SF USED    *         1.36 GB
 GA USED    *         4.87 MB       (max)       0.00 MB       (current)
 **********************************************************************************************************************************

 Basis set:  JKFIT                   
 Basis size:   740
 Attributes:
 Sphericals:   T
 Basis set:  MP2FIT                  
 Basis size:   816
 Attributes:
 Sphericals:   T
 Basis set:  RI                      
 Basis size:   556
 Attributes:
 Sphericals:   T
 Basis set:  TDDFT                   
 Basis size:   816
 Attributes:
 Sphericals:   T

 PROGRAM * CCSD (Closed-shell coupled cluster)     Authors: C. Hampel, H.-J. Werner, 1991, M. Deegan, P.J. Knowles, 1992

                                  CCSD-F12 implementation by  H.-J. Werner, 2007

                   Density fitting integral evaluation by F.R. Manby, 2003,2007, G. Knizia, 2010



 Convergence thresholds:  THRVAR = 1.00D-08  THRDEN = 1.00D-10

 CCSD(T)     terms to be evaluated (factor= 1.000)


 Number of core orbitals:           1 (   1 )
 Number of closed-shell orbitals:   4 (   4 )
 Number of external orbitals:     225 ( 225 )

 Molecular orbitals read from record     2102.2  Type=RHF/CANONICAL (state 1.1)

 MP2-F12 correlation treatment (H.-J. Werner, 2006)
 ==================================================

 Using MP2-F12 with ansatz 3C(FIX)

 Using projected zeroth-order Hamiltonian (+Z)

 FOCKRIB=T FOCKRIC=T FOCKRIP=T CABSP=T CABSA=T CABSK=T CABSF=T GBC=F EBC=F DMAT=T NOFIK=T NOPAO=1 SOLVE=-1  USEPAO=0
 EXCH_A= T EXCH_B= F EXCH_C= F EXCH_P= F

 Geminal basis:    OPTFULL  GEM_TYPE=SLATER  BETA=1.0  NGEM=6

 Optimizing Gaussian exponents for each gem_beta

 Geminal optimization for beta= 1.0000
 Weight function:   m=0, omega= 1.4646

 Augmented Hessian optimization of geminal fit. Trust ratio= 0.40000
 Convergence reached after   2 iterations. Final gradient= 7.85D-16, Step= 4.26D-06, Delta= 1.28D-09

 Alpha:                 0.19532     0.81920     2.85917     9.50073    35.69989   197.79328
 Coeff:                 0.27070     0.30552     0.18297     0.10986     0.06810     0.04224


 All pairs explicitly correlated. Number of r12-pairs:           10

 Excluding core orbitals from MO domains

 AO(A)-basis ORBITAL           loaded. Number of functions:     230
 RI(R)-basis RI                loaded. Number of functions:     556
 DF-basis JKFIT                loaded. Number of functions:     740

 Screening thresholds:   THRAO=  1.00D-10  THRMO=  1.00D-09  THRPROD=  1.00D-09
                         THRSW=  1.00D-05  THROV=  1.00D-12  THRAOF12= 1.00D-10

 CPU time for Fock operators                      3.08 sec

 Construction of ABS:
 Smallest eigenvalue of S          1.16E-04  (threshold= 1.00E-08)
 Ratio eigmin/eigmax               1.65E-05  (threshold= 1.00E-09)
 Smallest eigenvalue of S kept     1.16E-04  (threshold= 1.16E-04, 0 functions deleted, 556 kept)

 Construction of CABS:
 Smallest eigenvalue of S          5.78E-07  (threshold= 1.00E-08)
 Ratio eigmin/eigmax               5.78E-07  (threshold= 1.00E-09)
 Smallest eigenvalue of S kept     5.78E-07  (threshold= 5.78E-07, 0 functions deleted, 556 kept)

 CPU time for CABS singles                        0.69 sec

 CABS-singles contribution of  -0.00091133 patched into reference energy.
 New reference energy         -40.21418480

 AO(A)-basis ORBITAL           loaded. Number of functions:     230
 RI(R)-basis RI                loaded. Number of functions:     556
 DF-basis MP2FIT               loaded. Number of functions:     816

 Screening thresholds:   THRAO=  1.00D-10  THRMO=  1.00D-09  THRPROD=  1.00D-09
                         THRSW=  1.00D-05  THROV=  1.00D-12  THRAOF12= 1.00D-10

 CPU time for 3-index integral evaluation         5.43 sec
 CPU time for first  half transformation          0.62 sec ( 2414.4 MFLOP/sec)
 CPU time for second half transformation          0.01 sec ( 1345.0 MFLOP/sec)
 CPU time for sorting                             0.03 sec
 CPU time for fitting                             0.31 sec ( 4493.5 MFLOP/sec)
 CPU time for tilde quantities                    0.35 sec ( 3047.7 MFLOP/sec)
 CPU time for assembly                            1.34 sec ( 3539.5 MFLOP/sec)
 CPU time for tranop_f12                          1.21 sec ( 3499.7 MFLOP/sec)
 CPU time for f12 integrals (total)              11.55 sec, Elapsed time:     12.04 sec
 F12-matrices built in  4 passes.
 F12-matrices built in  4 passes.
 F12-matrices built in  4 passes.
 F12-matrices built in  4 passes.
 FC-matrix built in  4 passes.
 CPU time for f12 matrices (total)                0.28 sec, Elapsed time:      0.29 sec

 Diagonal F12 approximation with fixed coefficients:  TSING= 0.500,  TTRIP= 0.250 (scaled by -1/beta)

 DF-MP2-F12 energy corrections:
 ==============================
 Approx.                                    Singlet             Triplet             Total
 DF-MP2-F12/3*C(DX,FIX)                -0.016702265098     -0.001927508189     -0.018629773287
 DF-MP2-F12/3*C(FIX)                   -0.015461188078     -0.001785107426     -0.017246295505
 DF-MP2-F12/3C(FIX)                    -0.015446945282     -0.001776296813     -0.017223242095

 DF-MP2-F12 correlation energies:
 ================================
 Approx.                                    Singlet             Triplet             Ecorr            Total Energy
 DF-MP2                                -0.145447165067     -0.055066893638     -0.200514058705    -40.414698854868
 DF-MP2-F12/3*C(DX,FIX)                -0.162149430165     -0.056994401827     -0.219143831992    -40.433328628154
 DF-MP2-F12/3*C(FIX)                   -0.160908353145     -0.056852001065     -0.217760354210    -40.431945150372
 DF-MP2-F12/3C(FIX)                    -0.160894110349     -0.056843190451     -0.217737300800    -40.431922096963

 SCS-DF-MP2 energies (F_SING= 1.20000  F_TRIP= 0.62222  F_PARALLEL= 0.33333):
 ============================================================================
 SCS-DF-MP2                            -0.208800443011    -40.422985239173
 SCS-DF-MP2-F12/3*C(DX,FIX)            -0.230042499557    -40.444227295719
 SCS-DF-MP2-F12/3*C(FIX)               -0.228464602214    -40.442649398377
 SCS-DF-MP2-F12/3C(FIX)                -0.228442028700    -40.442626824862
 Symmetry transformation completed.

 Number of N-1 electron functions:               4
 Number of N-2 electron functions:              10
 Number of singly external CSFs:               900
 Number of doubly external CSFs:            405450
 Total number of CSFs:                      406351

 Pair and operator lists are different

 Length of J-op  integral file:              81.60 MB
 Length of K-op  integral file:             128.10 MB
 Length of 3-ext integral record:             0.00 MB

 Memory could be reduced to 75.63 Mwords without degradation in triples

 Integral transformation finished. Total CPU:  12.32 sec, npass=  1  Memory used:  32.52 MW

 Reference energy:                    -40.21418480

 Adding F12 terms to K(Cij), methodcc=6,  factor= 1.0

 ITER.      SQ.NORM     CORR.ENERGY   TOTAL ENERGY   ENERGY CHANGE        DEN1      VAR(S)    VAR(P)  DIIS     TIME  TIME/IT
   1      1.06946341    -0.21558275   -40.42976754    -0.01505876    -0.00938162  0.67D-03  0.94D-03  1  1    33.56     4.04
   2      1.07449046    -0.21615019   -40.43033499    -0.00056744    -0.00524324  0.16D-04  0.83D-04  2  2    37.58     4.10
   3      1.07589850    -0.21630516   -40.43048996    -0.00015497    -0.00097978  0.20D-05  0.51D-05  3  3    41.56     4.14
   4      1.07623661    -0.21631751   -40.43050231    -0.00001235    -0.00017405  0.10D-06  0.25D-06  4  4    45.56     4.15
   5      1.07628137    -0.21631624   -40.43050104     0.00000127    -0.00000984  0.77D-08  0.17D-07  5  5    49.62     4.16
   6      1.07628724    -0.21631526   -40.43050006     0.00000098    -0.00000184  0.59D-09  0.12D-08  6  6    53.67     4.17
   7      1.07628839    -0.21631494   -40.43049974     0.00000032    -0.00000073  0.40D-10  0.99D-10  6  1    57.71     4.17
   8      1.07628841    -0.21631505   -40.43049984    -0.00000011     0.00000012  0.39D-11  0.59D-11  6  3    61.58     4.18
   9      1.07628852    -0.21631503   -40.43049983     0.00000001    -0.00000007  0.33D-12  0.49D-12  6  2    65.46     4.18
  10      1.07628853    -0.21631503   -40.43049983     0.00000000     0.00000001  0.36D-13  0.49D-13  6  4    69.46     4.17
  11      1.07628853    -0.21631503   -40.43049982     0.00000000     0.00000000  0.26D-14  0.50D-14  6  5    73.42     4.17
  12      1.07628852    -0.21631503   -40.43049982     0.00000000     0.00000000  0.52D-16  0.59D-15  6  6    77.32     4.17
  13      1.07628852    -0.21631503   -40.43049982    -0.00000000     0.00000000  0.78D-17  0.64D-16  6  1    81.26     4.17
  14      1.07628852    -0.21631503   -40.43049982    -0.00000000     0.00000000  0.16D-17  0.79D-17  6  3    85.24     4.18

 Norm of t1 vector:      0.03361914      S-energy:     0.00000000      T1 diagnostic:  0.00840478
                                                                       D1 diagnostic:  0.01339603

 Adding energy correction from Wij-K(Fij), methodcc=6  factor= 1.0

  CCSD correlation energy              -0.216315028412
  MP2-F12 correction (uncoupled)       -0.017236591701
  C*T doubles correction               -0.000192582690
  f12b correction                       0.003653647424

 Total CPU time for triples:     34.18 sec

  Ecorr(MP2)                           -0.200523983463
  Ecorr(MP2-F12)                       -0.217747225558
  Scale factor for triples energy       1.085891182677


 RESULTS
 =======

  Reference energy                    -40.213273468971
  F12 singles correction               -0.000911327191

 F12 singles corrections added to reference energy

  New reference energy                -40.214184796163

  F12a singlet correction              -0.015626961873
  F12a triplet correction              -0.001802212518
  F12a total correction                -0.017429174391

 F12a corrections for ansatz F12/3C(FIX) added to CCSD energy

  CCSD-F12a singlet pair energy        -0.178526642433
  CCSD-F12a triplet pair energy        -0.055217560398
  CCSD-F12a correlation energy         -0.233744202803

  Triples (T) contribution (scaled)    -0.006801928739
  Total correlation energy             -0.240546131542

  CCSD-F12a total energy              -40.447928998966
  CCSD[T]-F12a energy                 -40.454970085156
  CCSD-T-F12a energy                  -40.454656172294
 !CCSD(T)-F12a total energy           -40.454730927705

 F12b corrections for ansatz F12/3C(FIX) added to CCSD(T)-F12a energy

  CCSD-F12b singlet pair energy        -0.175043753646
  CCSD-F12b triplet pair energy        -0.055046801760
  CCSD-F12b correlation energy         -0.230090555379

  Triples (T) contribution (scaled)    -0.006801928739
  Total correlation energy             -0.236892484118

  CCSD-F12b total energy              -40.444275351542
  CCSD[T]-F12b energy                 -40.451316437732
  CCSD-T-F12b energy                  -40.451002524869
 !CCSD(T)-F12b total energy           -40.451077280280

 Timing summary (sec):

 STEP                 CPU(USER)    SYS     CPU(TOT)    WALL
 Transformation         12.38      0.41     12.79     12.80
 CCSD iterations        55.67      2.58     58.25     58.49
 Triples                34.18      0.30     34.48     34.70
 MP2-F12                17.21      0.44     17.65     17.79
 F12b energy             3.42      0.13      3.55      3.55

 Program statistics:

 Available memory in ccsd:              1999999866
 Min. memory needed in ccsd:               1862772
 Max. memory used in ccsd:                 2158322
 Max. memory used in cckext:               1445635 (15 integral passes)



 **********************************************************************************************************************************
 DATASETS  * FILE   NREC   LENGTH (MB)   RECORD NAMES
              1      19      222.31       500      610      700      900      950      970     1000      129      960     1100   
                                          VAR    BASINP    GEOM    SYMINP    ZMAT    AOBASIS   BASIS     P2S    ABASIS      S 
                                         1400     1410     1200     1210     1080     1600     1650     1700     1380   
                                           T        V       H0       H01     AOSYM     SMH    MOLCAS    OPER     JKOP   

              2       9       13.71       700     1000      520     2100     7360     7350      200     2101     2102   
                                         GEOM     BASIS   MCVARS     RHF    F12ABS    EF12    OPTIONS    RHF      RHF  

 PROGRAMS   *        TOTAL   CCSD(T)    HF-SCF       INT   CCSD(T)    HF-SCF       INT   CCSD(T)    HF-SCF       INT
 CPU TIMES  *       843.14    123.08     12.33      0.24    129.90     13.40      0.23    535.61     14.29     13.80
 REAL TIME  *       873.90 SEC
 DISK USED  *       570.60 MB (local),        8.02 GB (total)
 SF USED    *         1.36 GB
 GA USED    *         4.87 MB       (max)       0.00 MB       (current)
 **********************************************************************************************************************************
 Molecular orbitals read from record     2102.2  Type=RHF/CANONICAL (state 1.1)
 Occupation numbers read from record     2102.2  Type=RHF/RHF (state 1.1)
 Orbital energies read from record       2102.2  Type=RHF/CANONICAL (state 1.1)
 Redundancy group numbers read from rec  2102.2  Type=RHF/RHF (state 1.1)

 CCSD(T)-F12/aug-cc-pVTZ energy=    -40.451077280280

     CCSD(T)-F12          HF-SCF     CCSD(T)-F12          HF-SCF     CCSD(T)-F12          HF-SCF
    -40.45107728    -40.21327347    -76.36269662    -76.05846945   -116.81438078   -116.27142665
 **********************************************************************************************************************************
 Molpro calculation terminated
