
 Primary working directories    : /scratch/klimes/383166/molpro.E9JGrAYQQA
 Secondary working directories  : /scratch/klimes/383166/molpro.E9JGrAYQQA
 Wavefunction directory         : /scratch/klimes/383166/
 Main file repository           : /scratch/klimes/383166/molpro.E9JGrAYQQA/

 id        : karlovklimes

 Nodes                      nprocs
 nc-04.cc.karlov.mff.cuni.cz    4

 Using customized tuning parameters: mindgm=1; mindgv=20; mindgc=4; mindgr=1; noblas=0; minvec=7
 default implementation of scratch files=sf  


 Variables initialized (930), CPU time= 0.01 sec
                                                                                 !gdirect
 memory,2000,m
 gthresh,orbital=1d-10,energy=1d-10,grid=1d-8
 
 symmetry,nosym
 angstrom
 geometry={
 O17        -4.414800000000      4.436400000000      3.575800000000
 H33        -3.889000000000      4.780900000000      2.793400000000
 H34        -4.626600000000      5.219700000000      4.099200000000
 C1        -3.277200000000      1.482500000000      1.271900000000
 H41        -2.464000000000      0.899600000000      1.651000000000
 H42        -3.160800000000      2.501000000000      1.578500000000
 H43        -4.201800000000      1.099200000000      1.650100000000
 H44        -3.268500000000      1.421000000000      0.203700000000
 }
 
 nkerna=1
 nkernb=1
 
 gf=0
 sing=1
 thrdum=1d-4
 gridthr=1d-8
 
 basis={
 set,orbital
 default,avtz
 set,jkfit
 default,avqz/jkfit
 set,mp2fit
 default,avqz/mp2fit
 set,ri
 default,avqz/optri
 set,tddft
 default,avqz/mp2fit
 }
 
 proc set_monomer1
 dummy,4,5,6,7,8
 endproc
 
 proc set_monomer2
 dummy,1,2,3
 endproc
 
                                                                                 !12 energy
 {hf,accu=1.d-16}
 {ccsd(t)-f12,df_basis=mp2fit,df_basis_exch=jkfit,ri_basis=ri,scale_trip=1,THRAOF12=1d-10}
 
 set_monomer1
 {hf,accu=1.d-16}
 {ccsd(t)-f12,df_basis=mp2fit,df_basis_exch=jkfit,ri_basis=ri,scale_trip=1,THRAOF12=1d-10}
 
 set_monomer2
 {hf,accu=1.d-16}
 {ccsd(t)-f12,df_basis=mp2fit,df_basis_exch=jkfit,ri_basis=ri,scale_trip=1,THRAOF12=1d-10}
 
 Commands  initialized (760), CPU time= 0.02 sec, 617 directives.
 Default parameters read. Elapsed time= 0.20 sec

 Checking input...
 Passed
1


                                         ***  PROGRAM SYSTEM MOLPRO  ***
                                       Copyright, TTI GmbH Stuttgart, 2015
                                    Version 2019.1 linked Jan 14 2019 13:09:19


 **********************************************************************************************************************************
 LABEL *                                                                                 
  64 bit mpp version                                                                     DATE: 11-Mar-20          TIME: 16:23:29  
 **********************************************************************************************************************************

 SHA1:             d688ac825633d238f2093ded1675ba87ccd55965
 **********************************************************************************************************************************

 THRESHOLDS:

 ZERO    =  1.00D-12  ONEINT  =  1.00D-12  TWOINT  =  1.00D-11  PREFAC  =  1.00D-14  XXXXXX  =  1.00D-09  EORDER  =  1.00D-04
 ENERGY  =  1.00D-10  ETEST   =  0.00D+00  EDENS   =  0.00D+00  THRDEDEF=  1.00D-06  GRADIENT=  1.00D-02  STEP    =  1.00D-03
 ORBITAL =  1.00D-10  CIVEC   =  1.00D-05  COEFF   =  1.00D-04  PRINTCI =  5.00D-02  PUNCHCI =  9.90D+01  OPTGRAD =  3.00D-04
 OPTENERG=  1.00D-06  OPTSTEP =  3.00D-04  THRGRAD =  1.00D-10  COMPRESS=  1.00D-11  VARMIN  =  1.00D-07  VARMAX  =  1.00D-03
 THRDOUB =  0.00D+00  THRDIV  =  1.00D-05  THRRED  =  1.00D-07  THRPSP  =  1.00D+00  THRDC   =  1.00D-10  THRCS   =  1.00D-10
 THRNRM  =  1.00D-08  THREQ   =  0.00D+00  THRDE   =  1.00D+00  THRREF  =  1.00D-05  SPARFAC =  1.00D+00  THRDLP  =  1.00D-07
 THRDIA  =  1.00D-10  THRDLS  =  1.00D-07  THRGPS  =  0.00D+00  THRKEX  =  0.00D+00  THRDIS  =  2.00D-01  THRVAR  =  1.00D-10
 THRLOC  =  1.00D-06  THRGAP  =  1.00D-06  THRLOCT = -1.00D+00  THRGAPT = -1.00D+00  THRORB  =  1.00D-06  THRMLTP =  0.00D+00
 THRCPQCI=  1.00D-10  KEXTA   =  0.00D+00  THRCOARS=  0.00D+00  SYMTOL  =  1.00D-06  GRADTOL =  1.00D-06  THROVL  =  1.00D-08
 THRORTH =  1.00D-08  GRID    =  1.00D-08  GRIDMAX =  1.00D-03  DTMAX   =  0.00D+00  THROCCDE=  1.00D-01  THROCCDE=  1.00D-01
 THRPRINT=  2.50D-01


 Variable memory set to 2000000000 words,  buffer space 

 ZSYMEL=NOSYM
 ZUNIT=ANG


Geometry recognized as XYZ

 SETTING NKERNA         =         1.00000000                                  
 SETTING NKERNB         =         1.00000000                                  
 SETTING GF             =     0.00000000D+00                                  
 SETTING SING           =         1.00000000                                  
 SETTING THRDUM         =     1.00000000D-04                                  
 SETTING GRIDTHR        =     1.00000000D-08                                  
 SETTING BASIS          =    AVTZ


 Recomputing integrals since basis changed


 Using spherical harmonics

 Library entry O      S aug-cc-pVTZ          selected for orbital group  1
 Library entry O      P aug-cc-pVTZ          selected for orbital group  1
 Library entry O      D aug-cc-pVTZ          selected for orbital group  1
 Library entry O      F aug-cc-pVTZ          selected for orbital group  1
 Library entry H      S aug-cc-pVTZ          selected for orbital group  2
 Library entry H      P aug-cc-pVTZ          selected for orbital group  2
 Library entry H      D aug-cc-pVTZ          selected for orbital group  2
 Library entry C      S aug-cc-pVTZ          selected for orbital group  3
 Library entry C      P aug-cc-pVTZ          selected for orbital group  3
 Library entry C      D aug-cc-pVTZ          selected for orbital group  3
 Library entry C      F aug-cc-pVTZ          selected for orbital group  3


 PROGRAM * SEWARD (Integral evaluation for generally contracted gaussian basis sets)     Author: Roland Lindh, 1990

 Geometry written to block  1 of record 700


 Point group  C1  



 ATOMIC COORDINATES

 NR  ATOM    CHARGE       X              Y              Z

   1  O17     8.00   -8.342762895    8.383580979    6.757282676
   2  H33     1.00   -7.349144898    9.034591629    5.278760956
   3  H34     1.00   -8.743006888    9.863803452    7.746365330
   4  C1      6.00   -6.193010455    2.801518980    2.403542658
   5  H41     1.00   -4.656285171    1.699997622    3.119937832
   6  H42     1.00   -5.973046335    4.726205038    2.982932688
   7  H43     1.00   -7.940251230    2.077186956    3.118237078
   8  H44     1.00   -6.176569838    2.685300823    0.384937212

 Bond lengths in Bohr (Angstrom)

 1-2  1.896606987  1-3  1.824702255  4-5  2.021904040  4-6  2.022002335  4-7  2.021953343
     ( 1.003641196)     ( 0.965590850)     ( 1.069945541)     ( 1.069997556)     ( 1.069971630)

 4-8  2.022015060
     ( 1.070004290)

 Bond angles

  2-1-3  105.01239280   5-4-6  109.53398059   5-4-7  109.65604535   5-4-8  108.43490854

  6-4-7  109.49436728   6-4-8  109.86987750   7-4-8  109.83468330

 NUCLEAR CHARGE:                   20
 NUMBER OF PRIMITIVE AOS:         296
 NUMBER OF SYMMETRY AOS:          266
 NUMBER OF CONTRACTIONS:          230   (  230A   )
 NUMBER OF CORE ORBITALS:           2   (    2A   )
 NUMBER OF VALENCE ORBITALS:       14   (   14A   )


 NUCLEAR REPULSION ENERGY   35.98231600


 Basis set:  JKFIT                   
 Basis size:   740
 Attributes:
 Sphericals:   T
 Basis set:  MP2FIT                  
 Basis size:   816
 Attributes:
 Sphericals:   T
 Basis set:  RI                      
 Basis size:   556
 Attributes:
 Sphericals:   T
 Basis set:  TDDFT                   
 Basis size:   816
 Attributes:
 Sphericals:   T

 **********************************************************************************************************************************


 Eigenvalues of metric

         1 0.486E-04 0.786E-04 0.102E-03 0.104E-03 0.334E-03 0.356E-03 0.560E-03 0.696E-03


 Contracted 2-electron integrals neglected if value below      1.0D-14
 AO integral compression algorithm  1   Integral accuracy      1.0D-14

     2119.959 MB (compressed) written to integral file ( 66.1%)

     Node minimum: 482.869 MB, node maximum: 566.493 MB


 NUMBER OF SORTED TWO-ELECTRON INTEGRALS:   88219044.     BUFFER LENGTH:  32768
 NUMBER OF SEGMENTS:   6  SEGMENT LENGTH:   15998348      RECORD LENGTH: 524288

 Memory used in sort:      16.56 MW

 SORT1 READ   400769927. AND WROTE    80172815. INTEGRALS IN    232 RECORDS. CPU TIME:     7.48 SEC, REAL TIME:     8.35 SEC
 SORT2 READ   320593912. AND WROTE   352862895. INTEGRALS IN   8316 RECORDS. CPU TIME:     2.26 SEC, REAL TIME:     2.88 SEC

 Node minimum:    88205762.  Node maximum:    88225686. integrals

 OPERATOR DM      FOR CENTER  0  COORDINATES:    0.000000    0.000000    0.000000


 **********************************************************************************************************************************
 DATASETS  * FILE   NREC   LENGTH (MB)   RECORD NAMES
              1      18       32.04       500      610      700      900      950      970     1000      129      960     1100   
                                          VAR    BASINP    GEOM    SYMINP    ZMAT    AOBASIS   BASIS     P2S    ABASIS      S 
                                         1400     1410     1200     1210     1080     1600     1650     1700   
                                           T        V       H0       H01     AOSYM     SMH    MOLCAS    OPER   

 PROGRAMS   *        TOTAL       INT
 CPU TIMES  *        14.71     14.48
 REAL TIME  *        19.28 SEC
 DISK USED  *        32.49 MB (local),        6.06 GB (total)
 GA USED    *         0.00 MB       (max)       0.00 MB       (current)
 **********************************************************************************************************************************


 PROGRAM * RHF-SCF (CLOSED SHELL)       Authors: W. Meyer, H.-J. Werner


 NUMBER OF ELECTRONS:      10+   10-    SPACE SYMMETRY=1    SPIN SYMMETRY: Singlet 
 CONVERGENCE THRESHOLDS:    1.00E-08 (Density)    1.00E-11 (Energy)
 MAX. NUMBER OF ITERATIONS:       60
 INTERPOLATION TYPE:            DIIS
 INTERPOLATION STEPS:              2 (START)      1 (STEP)
 LEVEL SHIFTS:                  0.00 (CLOSED)  0.00 (OPEN) 



 Orbital guess generated from atomic densities. Full valence occupancy:   16

 Molecular orbital dump at record        2100.2

 Initial occupancy:  10

 ITERATION    DDIFF          GRAD             ENERGY        2-EL.EN.            DIPOLE MOMENTS         DIIS   ORB.
    1      0.000D+00      0.000D+00      -116.21110383    157.648197    0.31332    1.08580   -0.26150    0    start
    2      0.000D+00      0.524D-02      -116.25521395    152.623118    0.14498    0.62377   -0.09884    1    diag
    3      0.553D-02      0.310D-02      -116.26891791    154.706883    0.18685    0.74152   -0.13922    2    diag
    4      0.183D-02      0.456D-03      -116.26957916    154.594873    0.18340    0.73116   -0.13593    3    diag
    5      0.402D-03      0.134D-03      -116.26964773    154.590006    0.18277    0.73097   -0.13511    4    diag
    6      0.148D-03      0.327D-04      -116.26965157    154.595888    0.18250    0.73026   -0.13480    5    diag
    7      0.421D-04      0.637D-05      -116.26965180    154.594397    0.18249    0.73029   -0.13478    6    diag
    8      0.116D-04      0.164D-05      -116.26965182    154.594549    0.18245    0.73024   -0.13473    7    diag
    9      0.225D-05      0.371D-06      -116.26965182    154.594523    0.18244    0.73022   -0.13472    8    diag
   10      0.765D-06      0.418D-07      -116.26965182    154.594524    0.18244    0.73022   -0.13472    9    orth
   11      0.633D-07      0.104D-07      -116.26965182    154.594525    0.18244    0.73022   -0.13472    9    diag
   12      0.245D-07      0.274D-08      -116.26965182    154.594525    0.18244    0.73022   -0.13472    9    diag
   13      0.407D-08      0.713D-09      -116.26965182    154.594525    0.18244    0.73022   -0.13472    0    orth

 Final occupancy:  10

 !RHF STATE  1.1 Energy              -116.269651818438
 Nuclear energy                        35.98231600
 One-electron energy                 -229.54923031
 Two-electron energy                   77.29726249
 Virial quotient                       -1.00125552
 !RHF STATE  1.1 Dipole moment          0.18244388     0.73021698    -0.13471814
 Dipole moment /Debye                   0.46369571     1.85590488    -0.34239692

 Orbital energies:

         1.1          2.1          3.1          4.1          5.1          6.1          7.1          8.1          9.1         10.1
    -20.572106   -11.192368    -1.340465    -0.945720    -0.705004    -0.579283    -0.546251    -0.544722    -0.542892    -0.508541

        11.1         12.1
      0.027531     0.039336


 HOMO     10.1    -0.508541 =     -13.8381eV
 LUMO     11.1     0.027531 =       0.7492eV
 LUMO-HOMO         0.536072 =      14.5873eV


 **********************************************************************************************************************************
 DATASETS  * FILE   NREC   LENGTH (MB)   RECORD NAMES
              1      18       32.04       500      610      700      900      950      970     1000      129      960     1100   
                                          VAR    BASINP    GEOM    SYMINP    ZMAT    AOBASIS   BASIS     P2S    ABASIS      S 
                                         1400     1410     1200     1210     1080     1600     1650     1700   
                                           T        V       H0       H01     AOSYM     SMH    MOLCAS    OPER   

              2       4        3.96       700     1000      520     2100   
                                         GEOM     BASIS   MCVARS     RHF  

 PROGRAMS   *        TOTAL    HF-SCF       INT
 CPU TIMES  *        29.69     14.98     14.48
 REAL TIME  *        35.45 SEC
 DISK USED  *        39.90 MB (local),        6.09 GB (total)
 SF USED    *         0.21 MB
 GA USED    *         0.00 MB       (max)       0.00 MB       (current)
 **********************************************************************************************************************************

 Basis set:  JKFIT                   
 Basis size:   740
 Attributes:
 Sphericals:   T
 Basis set:  MP2FIT                  
 Basis size:   816
 Attributes:
 Sphericals:   T
 Basis set:  RI                      
 Basis size:   556
 Attributes:
 Sphericals:   T
 Basis set:  TDDFT                   
 Basis size:   816
 Attributes:
 Sphericals:   T

 PROGRAM * CCSD (Closed-shell coupled cluster)     Authors: C. Hampel, H.-J. Werner, 1991, M. Deegan, P.J. Knowles, 1992

                                  CCSD-F12 implementation by  H.-J. Werner, 2007

                   Density fitting integral evaluation by F.R. Manby, 2003,2007, G. Knizia, 2010



 Convergence thresholds:  THRVAR = 1.00D-08  THRDEN = 1.00D-10

 CCSD(T)     terms to be evaluated (factor= 1.000)


 Number of core orbitals:           2 (   2 )
 Number of closed-shell orbitals:   8 (   8 )
 Number of external orbitals:     220 ( 220 )

 Molecular orbitals read from record     2100.2  Type=RHF/CANONICAL (state 1.1)

 MP2-F12 correlation treatment (H.-J. Werner, 2006)
 ==================================================

 Using MP2-F12 with ansatz 3C(FIX)

 Using projected zeroth-order Hamiltonian (+Z)

 FOCKRIB=T FOCKRIC=T FOCKRIP=T CABSP=T CABSA=T CABSK=T CABSF=T GBC=F EBC=F DMAT=T NOFIK=T NOPAO=1 SOLVE=-1  USEPAO=0
 EXCH_A= T EXCH_B= F EXCH_C= F EXCH_P= F

 Geminal basis:    OPTFULL  GEM_TYPE=SLATER  BETA=1.0  NGEM=6

 Optimizing Gaussian exponents for each gem_beta

 Geminal optimization for beta= 1.0000
 Weight function:   m=0, omega= 1.4646

 Augmented Hessian optimization of geminal fit. Trust ratio= 0.40000
 Convergence reached after   2 iterations. Final gradient= 7.85D-16, Step= 4.26D-06, Delta= 1.28D-09

 Alpha:                 0.19532     0.81920     2.85917     9.50073    35.69989   197.79328
 Coeff:                 0.27070     0.30552     0.18297     0.10986     0.06810     0.04224


 All pairs explicitly correlated. Number of r12-pairs:           36

 Excluding core orbitals from MO domains

 AO(A)-basis ORBITAL           loaded. Number of functions:     230
 RI(R)-basis RI                loaded. Number of functions:     556
 DF-basis JKFIT                loaded. Number of functions:     740

 Screening thresholds:   THRAO=  1.00D-10  THRMO=  1.00D-09  THRPROD=  1.00D-09
                         THRSW=  1.00D-05  THROV=  1.00D-12  THRAOF12= 1.00D-10

 CPU time for Fock operators                      3.80 sec

 Construction of ABS:
 Smallest eigenvalue of S          1.17E-04  (threshold= 1.00E-08)
 Ratio eigmin/eigmax               1.66E-05  (threshold= 1.00E-09)
 Smallest eigenvalue of S kept     1.17E-04  (threshold= 1.17E-04, 0 functions deleted, 556 kept)

 Construction of CABS:
 Smallest eigenvalue of S          6.00E-07  (threshold= 1.00E-08)
 Ratio eigmin/eigmax               6.00E-07  (threshold= 1.00E-09)
 Smallest eigenvalue of S kept     6.00E-07  (threshold= 6.00E-07, 0 functions deleted, 556 kept)

 CPU time for CABS singles                        0.68 sec

 CABS-singles contribution of  -0.00236240 patched into reference energy.
 New reference energy        -116.27201422

 AO(A)-basis ORBITAL           loaded. Number of functions:     230
 RI(R)-basis RI                loaded. Number of functions:     556
 DF-basis MP2FIT               loaded. Number of functions:     816

 Screening thresholds:   THRAO=  1.00D-10  THRMO=  1.00D-09  THRPROD=  1.00D-09
                         THRSW=  1.00D-05  THROV=  1.00D-12  THRAOF12= 1.00D-10

 CPU time for 3-index integral evaluation         5.25 sec
 CPU time for first  half transformation          1.34 sec ( 2313.9 MFLOP/sec)
 CPU time for second half transformation          0.02 sec ( 2364.4 MFLOP/sec)
 CPU time for sorting                             0.07 sec
 CPU time for fitting                             0.55 sec ( 3951.6 MFLOP/sec)
 CPU time for tilde quantities                    0.68 sec ( 4057.8 MFLOP/sec)
 CPU time for assembly                            4.66 sec ( 4250.2 MFLOP/sec)
 CPU time for tranop_f12                          4.46 sec ( 4279.1 MFLOP/sec)
 CPU time for f12 integrals (total)              23.92 sec, Elapsed time:     24.84 sec
 F12-matrices built in  4 passes.
 F12-matrices built in  4 passes.
 F12-matrices built in  4 passes.
 F12-matrices built in  4 passes.
 FC-matrix built in  4 passes.
 CPU time for f12 matrices (total)                1.18 sec, Elapsed time:      1.22 sec

 Diagonal F12 approximation with fixed coefficients:  TSING= 0.500,  TTRIP= 0.250 (scaled by -1/beta)

 DF-MP2-F12 energy corrections:
 ==============================
 Approx.                                    Singlet             Triplet             Total
 DF-MP2-F12/3*C(DX,FIX)                -0.046191147718     -0.006794987315     -0.052986135033
 DF-MP2-F12/3*C(FIX)                   -0.039888456998     -0.005605776144     -0.045494233141
 DF-MP2-F12/3C(FIX)                    -0.040007772073     -0.005570796605     -0.045578568678

 DF-MP2-F12 correlation energies:
 ================================
 Approx.                                    Singlet             Triplet             Ecorr            Total Energy
 DF-MP2                                -0.317776385100     -0.153976282698     -0.471752667798   -116.743766888354
 DF-MP2-F12/3*C(DX,FIX)                -0.363967532818     -0.160771270013     -0.524738802831   -116.796753023387
 DF-MP2-F12/3*C(FIX)                   -0.357664842098     -0.159582058842     -0.517246900940   -116.789261121495
 DF-MP2-F12/3C(FIX)                    -0.357784157173     -0.159547079303     -0.517331236476   -116.789345457032

 SCS-DF-MP2 energies (F_SING= 1.20000  F_TRIP= 0.62222  F_PARALLEL= 0.33333):
 ============================================================================
 SCS-DF-MP2                            -0.477139126910   -116.749153347466
 SCS-DF-MP2-F12/3*C(DX,FIX)            -0.536796496279   -116.808810716834
 SCS-DF-MP2-F12/3*C(FIX)               -0.528493313797   -116.800507534352
 SCS-DF-MP2-F12/3C(FIX)                -0.528614726841   -116.800628947396
 Symmetry transformation completed.

 Number of N-1 electron functions:               8
 Number of N-2 electron functions:              36
 Number of singly external CSFs:              1760
 Number of doubly external CSFs:           1549680
 Total number of CSFs:                     1551441

 Pair and operator lists are different

 Length of J-op  integral file:             315.61 MB
 Length of K-op  integral file:             368.50 MB
 Length of 3-ext integral record:             0.00 MB

 Memory could be reduced to 116.32 Mwords without degradation in triples

 Integral transformation finished. Total CPU:  24.96 sec, npass=  1  Memory used:  59.34 MW

 Reference energy:                   -116.27201422

 Adding F12 terms to K(Cij), methodcc=6,  factor= 1.0

 ITER.      SQ.NORM     CORR.ENERGY   TOTAL ENERGY   ENERGY CHANGE        DEN1      VAR(S)    VAR(P)  DIIS     TIME  TIME/IT
   1      1.13247629    -0.48632261  -116.75833683    -0.01455227    -0.00284639  0.15D-02  0.20D-02  1  1    71.70    15.14
   2      1.14078771    -0.48658994  -116.75860416    -0.00026733    -0.00976535  0.28D-04  0.23D-03  2  2    86.74    15.21
   3      1.14369716    -0.48685213  -116.75886635    -0.00026219    -0.00198228  0.12D-04  0.12D-04  3  3   101.65    15.20
   4      1.14458567    -0.48690870  -116.75892292    -0.00005657    -0.00048685  0.54D-06  0.11D-05  4  4   116.46    15.19
   5      1.14473245    -0.48690308  -116.75891731     0.00000561    -0.00003935  0.19D-06  0.76D-07  5  5   131.36    15.20
   6      1.14477334    -0.48690023  -116.75891445     0.00000285    -0.00000633  0.17D-07  0.54D-08  6  6   146.45    15.23
   7      1.14478289    -0.48689949  -116.75891371     0.00000074    -0.00000260  0.14D-08  0.74D-09  6  2   161.48    15.24
   8      1.14478485    -0.48689946  -116.75891368     0.00000003    -0.00000012  0.24D-09  0.74D-10  6  1   176.45    15.25
   9      1.14478556    -0.48689949  -116.75891371    -0.00000003    -0.00000006  0.22D-10  0.13D-10  6  3   191.48    15.25
  10      1.14478565    -0.48689948  -116.75891370     0.00000000     0.00000007  0.33D-11  0.16D-11  6  4   206.32    15.23
  11      1.14478559    -0.48689949  -116.75891371    -0.00000001     0.00000007  0.59D-12  0.25D-12  6  5   221.32    15.24
  12      1.14478555    -0.48689949  -116.75891371    -0.00000000     0.00000002  0.12D-12  0.35D-13  6  6   236.30    15.24
  13      1.14478553    -0.48689949  -116.75891371    -0.00000000     0.00000001  0.18D-13  0.52D-14  6  2   251.17    15.23
  14      1.14478552    -0.48689949  -116.75891371    -0.00000000     0.00000000  0.20D-14  0.11D-14  6  1   266.02    15.23
  15      1.14478552    -0.48689949  -116.75891371    -0.00000000    -0.00000000  0.23D-15  0.11D-15  6  3   280.98    15.23
  16      1.14478552    -0.48689949  -116.75891371     0.00000000    -0.00000000  0.32D-16  0.17D-16  6  4   296.07    15.23

 Norm of t1 vector:      0.05068449      S-energy:     0.00000000      T1 diagnostic:  0.00895984
                                                                       D1 diagnostic:  0.01899302

 Adding energy correction from Wij-K(Fij), methodcc=6  factor= 1.0

  CCSD correlation energy              -0.486899490457
  MP2-F12 correction (uncoupled)       -0.045311293142
  C*T doubles correction               -0.000611007069
  f12b correction                       0.008424792199


 Total CPU time for triples:    236.67 sec

  Ecorr(MP2)                           -0.471770337222
  Ecorr(MP2-F12)                       -0.517348905900
  Scale factor for triples energy       1.096611772894


 RESULTS
 =======

  Reference energy                   -116.269651818436
  F12 singles correction               -0.002362402119

 F12 singles corrections added to reference energy

  New reference energy               -116.272014220555

  F12a singlet correction              -0.040256492868
  F12a triplet correction              -0.005665807343
  F12a total correction                -0.045922300211

 F12a corrections for ansatz F12/3C(FIX) added to CCSD energy

  CCSD-F12a singlet pair energy        -0.386487337804
  CCSD-F12a triplet pair energy        -0.146334453038
  CCSD-F12a correlation energy         -0.532821790667

  Triples (T) contribution (scaled)    -0.016530127338
  Total correlation energy             -0.549351918005

  CCSD-F12a total energy             -116.804836011223
  CCSD[T]-F12a energy                -116.821962908968
  CCSD-T-F12a energy                 -116.821143793198
 !CCSD(T)-F12a total energy          -116.821366138561

 F12b corrections for ansatz F12/3C(FIX) added to CCSD(T)-F12a energy

  CCSD-F12b singlet pair energy        -0.378593157785
  CCSD-F12b triplet pair energy        -0.145803840858
  CCSD-F12b correlation energy         -0.524396998468

  Triples (T) contribution (scaled)    -0.016530127338
  Total correlation energy             -0.540927125806

  CCSD-F12b total energy             -116.796411219024
  CCSD[T]-F12b energy                -116.813538116769
  CCSD-T-F12b energy                 -116.812719000999
 !CCSD(T)-F12b total energy          -116.812941346361

 Timing summary (sec):

 STEP                 CPU(USER)    SYS     CPU(TOT)    WALL
 Transformation         25.13      0.99     26.12     26.14
 CCSD iterations       239.38      4.14    243.52    243.83
 Triples               236.67      1.46    238.13    238.42
 MP2-F12                31.59      1.07     32.66     32.76
 F12b energy            11.55      0.11     11.66     11.67

 Program statistics:

 Available memory in ccsd:              1999999554
 Min. memory needed in ccsd:               4597329
 Max. memory used in ccsd:                 5918289
 Max. memory used in cckext:               4231061 (17 integral passes)



 **********************************************************************************************************************************
 DATASETS  * FILE   NREC   LENGTH (MB)   RECORD NAMES
              1      19      398.06       500      610      700      900      950      970     1000      129      960     1100   
                                          VAR    BASINP    GEOM    SYMINP    ZMAT    AOBASIS   BASIS     P2S    ABASIS      S 
                                         1400     1410     1200     1210     1080     1600     1650     1700     1380   
                                           T        V       H0       H01     AOSYM     SMH    MOLCAS    OPER     JKOP   

              2       6        5.03       700     1000      520     2100     7360     7350   
                                         GEOM     BASIS   MCVARS     RHF    F12ABS    EF12   

 PROGRAMS   *        TOTAL   CCSD(T)    HF-SCF       INT
 CPU TIMES  *       574.24    544.54     14.98     14.48
 REAL TIME  *       589.14 SEC
 DISK USED  *       570.60 MB (local),        7.71 GB (total)
 SF USED    *         1.36 GB
 GA USED    *         4.87 MB       (max)       0.00 MB       (current)
 **********************************************************************************************************************************

 Running procedure: SET_MONOMER1

 Dummy atoms: C1  H41  H42  H43  H44


 Recomputing one-electron integrals since nuclear charges changed


 PROGRAM * SEWARD (Integral evaluation for generally contracted gaussian basis sets)     Author: Roland Lindh, 1990

 Geometry written to block  1 of record 700


 Point group  C1  



 ATOMIC COORDINATES

 NR  ATOM    CHARGE       X              Y              Z

   1  O17     8.00   -8.342762895    8.383580979    6.757282676
   2  H33     1.00   -7.349144898    9.034591629    5.278760956
   3  H34     1.00   -8.743006888    9.863803452    7.746365330
   4  C1      0.00   -6.193010455    2.801518980    2.403542658
   5  H41     0.00   -4.656285171    1.699997622    3.119937832
   6  H42     0.00   -5.973046335    4.726205038    2.982932688
   7  H43     0.00   -7.940251230    2.077186956    3.118237078
   8  H44     0.00   -6.176569838    2.685300823    0.384937212

 Bond lengths in Bohr (Angstrom)

 1-2  1.896606987  1-3  1.824702255  4-5  2.021904040  4-6  2.022002335  4-7  2.021953343
     ( 1.003641196)     ( 0.965590850)     ( 1.069945541)     ( 1.069997556)     ( 1.069971630)

 4-8  2.022015060
     ( 1.070004290)

 Bond angles

  2-1-3  105.01239280   5-4-6  109.53398059   5-4-7  109.65604535   5-4-8  108.43490854

  6-4-7  109.49436728   6-4-8  109.86987750   7-4-8  109.83468330

 NUCLEAR CHARGE:                   10
 NUMBER OF PRIMITIVE AOS:         296
 NUMBER OF SYMMETRY AOS:          266
 NUMBER OF CONTRACTIONS:          230   (  230A   )
 NUMBER OF CORE ORBITALS:           1   (    1A   )
 NUMBER OF VALENCE ORBITALS:        6   (    6A   )

 MOLECULE CHANGED: INITIALIZING OCCUPATION AND DUMP RECORDS


 NUCLEAR REPULSION ENERGY    8.94098799

 Basis set:  JKFIT                   
 Basis size:   740
 Attributes:
 Sphericals:   T
 Basis set:  MP2FIT                  
 Basis size:   816
 Attributes:
 Sphericals:   T
 Basis set:  RI                      
 Basis size:   556
 Attributes:
 Sphericals:   T
 Basis set:  TDDFT                   
 Basis size:   816
 Attributes:
 Sphericals:   T

 Eigenvalues of metric

         1 0.486E-04 0.786E-04 0.102E-03 0.104E-03 0.334E-03 0.356E-03 0.560E-03 0.696E-03


 Contracted 2-electron integrals neglected if value below      1.0D-14

 OPERATOR DM      FOR CENTER  0  COORDINATES:    0.000000    0.000000    0.000000


 **********************************************************************************************************************************
 DATASETS  * FILE   NREC   LENGTH (MB)   RECORD NAMES
              1      18       32.04       500      610      700      900      950      970     1000      129      960     1100   
                                          VAR    BASINP    GEOM    SYMINP    ZMAT    AOBASIS   BASIS     P2S    ABASIS      S 
                                         1400     1410     1200     1210     1080     1600     1650     1700   
                                           T        V       H0       H01     AOSYM     SMH    MOLCAS    OPER   

              2       7        5.05       700     1000      520     2100     7360     7350      200   
                                         GEOM     BASIS   MCVARS     RHF    F12ABS    EF12    OPTIONS    

 PROGRAMS   *        TOTAL       INT   CCSD(T)    HF-SCF       INT
 CPU TIMES  *       574.47      0.21    544.54     14.98     14.48
 REAL TIME  *       589.92 SEC
 DISK USED  *       570.60 MB (local),        7.71 GB (total)
 SF USED    *         1.36 GB
 GA USED    *         4.87 MB       (max)       0.00 MB       (current)
 **********************************************************************************************************************************


 PROGRAM * RHF-SCF (CLOSED SHELL)       Authors: W. Meyer, H.-J. Werner


 NUMBER OF ELECTRONS:       5+    5-    SPACE SYMMETRY=1    SPIN SYMMETRY: Singlet 
 CONVERGENCE THRESHOLDS:    1.00E-08 (Density)    1.00E-11 (Energy)
 MAX. NUMBER OF ITERATIONS:       60
 INTERPOLATION TYPE:            DIIS
 INTERPOLATION STEPS:              2 (START)      1 (STEP)
 LEVEL SHIFTS:                  0.00 (CLOSED)  0.00 (OPEN) 



 Orbital guess generated from atomic densities. Full valence occupancy:    7

 Molecular orbital dump at record        2101.2

 Initial occupancy:   5

 ITERATION    DDIFF          GRAD             ENERGY        2-EL.EN.            DIPOLE MOMENTS         DIIS   ORB.
    1      0.000D+00      0.000D+00       -76.01830481     77.298742    0.31046    1.08972   -0.26177    0    start
    2      0.000D+00      0.640D-02       -76.04501092     73.639894    0.17378    0.63248   -0.14130    1    diag
    3      0.444D-02      0.412D-02       -76.05663200     75.262569    0.20658    0.74695   -0.16917    2    diag
    4      0.161D-02      0.379D-03       -76.05682864     75.172932    0.20413    0.74291   -0.16607    3    diag
    5      0.206D-03      0.107D-03       -76.05685012     75.187384    0.20316    0.74140   -0.16482    4    diag
    6      0.658D-04      0.214D-04       -76.05685152     75.186428    0.20290    0.74112   -0.16446    5    diag
    7      0.170D-04      0.428D-05       -76.05685159     75.186557    0.20283    0.74101   -0.16436    6    diag
    8      0.444D-05      0.771D-06       -76.05685159     75.186540    0.20281    0.74097   -0.16434    7    diag
    9      0.704D-06      0.102D-06       -76.05685159     75.186531    0.20281    0.74097   -0.16434    8    diag
   10      0.912D-07      0.268D-07       -76.05685159     75.186534    0.20281    0.74097   -0.16434    9    orth
   11      0.240D-07      0.634D-08       -76.05685159     75.186534    0.20281    0.74097   -0.16434    9    diag
   12      0.672D-08      0.123D-08       -76.05685159     75.186533    0.20281    0.74097   -0.16434    0    orth

 Final occupancy:   5

 !RHF STATE  1.1 Energy               -76.056851587280
 Nuclear energy                         8.94098799
 One-electron energy                 -122.59110630
 Two-electron energy                   37.59326672
 Virial quotient                       -1.00264601
 !RHF STATE  1.1 Dipole moment          0.20280855     0.74097028    -0.16433970
 Dipole moment /Debye                   0.51545415     1.88323525    -0.41768249

 Orbital energies:

         1.1          2.1          3.1          4.1          5.1          6.1          7.1
    -20.571632    -1.339886    -0.704136    -0.578593    -0.508040     0.023517     0.036128


 HOMO      5.1    -0.508040 =     -13.8245eV
 LUMO      6.1     0.023517 =       0.6399eV
 LUMO-HOMO         0.531556 =      14.4644eV


 **********************************************************************************************************************************
 DATASETS  * FILE   NREC   LENGTH (MB)   RECORD NAMES
              1      18       32.04       500      610      700      900      950      970     1000      129      960     1100   
                                          VAR    BASINP    GEOM    SYMINP    ZMAT    AOBASIS   BASIS     P2S    ABASIS      S 
                                         1400     1410     1200     1210     1080     1600     1650     1700   
                                           T        V       H0       H01     AOSYM     SMH    MOLCAS    OPER   

              2       8        9.09       700     1000      520     2100     7360     7350      200     2101   
                                         GEOM     BASIS   MCVARS     RHF    F12ABS    EF12    OPTIONS    RHF  

 PROGRAMS   *        TOTAL    HF-SCF       INT   CCSD(T)    HF-SCF       INT
 CPU TIMES  *       587.42     12.96      0.21    544.54     14.98     14.48
 REAL TIME  *       603.91 SEC
 DISK USED  *       570.60 MB (local),        7.71 GB (total)
 SF USED    *         1.36 GB
 GA USED    *         4.87 MB       (max)       0.00 MB       (current)
 **********************************************************************************************************************************

 Basis set:  JKFIT                   
 Basis size:   740
 Attributes:
 Sphericals:   T
 Basis set:  MP2FIT                  
 Basis size:   816
 Attributes:
 Sphericals:   T
 Basis set:  RI                      
 Basis size:   556
 Attributes:
 Sphericals:   T
 Basis set:  TDDFT                   
 Basis size:   816
 Attributes:
 Sphericals:   T

 PROGRAM * CCSD (Closed-shell coupled cluster)     Authors: C. Hampel, H.-J. Werner, 1991, M. Deegan, P.J. Knowles, 1992

                                  CCSD-F12 implementation by  H.-J. Werner, 2007

                   Density fitting integral evaluation by F.R. Manby, 2003,2007, G. Knizia, 2010



 Convergence thresholds:  THRVAR = 1.00D-08  THRDEN = 1.00D-10

 CCSD(T)     terms to be evaluated (factor= 1.000)


 Number of core orbitals:           1 (   1 )
 Number of closed-shell orbitals:   4 (   4 )
 Number of external orbitals:     225 ( 225 )

 Molecular orbitals read from record     2101.2  Type=RHF/CANONICAL (state 1.1)

 MP2-F12 correlation treatment (H.-J. Werner, 2006)
 ==================================================

 Using MP2-F12 with ansatz 3C(FIX)

 Using projected zeroth-order Hamiltonian (+Z)

 FOCKRIB=T FOCKRIC=T FOCKRIP=T CABSP=T CABSA=T CABSK=T CABSF=T GBC=F EBC=F DMAT=T NOFIK=T NOPAO=1 SOLVE=-1  USEPAO=0
 EXCH_A= T EXCH_B= F EXCH_C= F EXCH_P= F

 Geminal basis:    OPTFULL  GEM_TYPE=SLATER  BETA=1.0  NGEM=6

 Optimizing Gaussian exponents for each gem_beta

 Geminal optimization for beta= 1.0000
 Weight function:   m=0, omega= 1.4646

 Augmented Hessian optimization of geminal fit. Trust ratio= 0.40000
 Convergence reached after   2 iterations. Final gradient= 8.31D-16, Step= 4.24D-06, Delta= 1.28D-09

 Alpha:                 0.19532     0.81920     2.85917     9.50073    35.69989   197.79328
 Coeff:                 0.27070     0.30552     0.18297     0.10986     0.06810     0.04224


 All pairs explicitly correlated. Number of r12-pairs:           10

 Excluding core orbitals from MO domains

 AO(A)-basis ORBITAL           loaded. Number of functions:     230
 RI(R)-basis RI                loaded. Number of functions:     556
 DF-basis JKFIT                loaded. Number of functions:     740

 Screening thresholds:   THRAO=  1.00D-10  THRMO=  1.00D-09  THRPROD=  1.00D-09
                         THRSW=  1.00D-05  THROV=  1.00D-12  THRAOF12= 1.00D-10

 CPU time for Fock operators                      3.14 sec

 Construction of ABS:
 Smallest eigenvalue of S          1.17E-04  (threshold= 1.00E-08)
 Ratio eigmin/eigmax               1.66E-05  (threshold= 1.00E-09)
 Smallest eigenvalue of S kept     1.17E-04  (threshold= 1.17E-04, 0 functions deleted, 556 kept)

 Construction of CABS:
 Smallest eigenvalue of S          6.00E-07  (threshold= 1.00E-08)
 Ratio eigmin/eigmax               6.00E-07  (threshold= 1.00E-09)
 Smallest eigenvalue of S kept     6.00E-07  (threshold= 6.00E-07, 0 functions deleted, 556 kept)

 CPU time for CABS singles                        0.70 sec

 CABS-singles contribution of  -0.00145072 patched into reference energy.
 New reference energy         -76.05830231

 AO(A)-basis ORBITAL           loaded. Number of functions:     230
 RI(R)-basis RI                loaded. Number of functions:     556
 DF-basis MP2FIT               loaded. Number of functions:     816

 Screening thresholds:   THRAO=  1.00D-10  THRMO=  1.00D-09  THRPROD=  1.00D-09
                         THRSW=  1.00D-05  THROV=  1.00D-12  THRAOF12= 1.00D-10

 CPU time for 3-index integral evaluation         5.33 sec
 CPU time for first  half transformation          0.94 sec ( 1565.3 MFLOP/sec)
 CPU time for second half transformation          0.02 sec (  652.7 MFLOP/sec)
 CPU time for sorting                             0.06 sec
 CPU time for fitting                             0.36 sec (  887.8 MFLOP/sec)
 CPU time for tilde quantities                    0.48 sec (  679.7 MFLOP/sec)
 CPU time for assembly                            1.43 sec ( 3196.0 MFLOP/sec)
 CPU time for tranop_f12                          1.25 sec ( 3997.1 MFLOP/sec)
 CPU time for f12 integrals (total)              12.31 sec, Elapsed time:     12.62 sec
 F12-matrices built in  4 passes.
 F12-matrices built in  4 passes.
 F12-matrices built in  4 passes.
 F12-matrices built in  4 passes.
 FC-matrix built in  4 passes.
 CPU time for f12 matrices (total)                0.29 sec, Elapsed time:      0.32 sec

 Diagonal F12 approximation with fixed coefficients:  TSING= 0.500,  TTRIP= 0.250 (scaled by -1/beta)

 DF-MP2-F12 energy corrections:
 ==============================
 Approx.                                    Singlet             Triplet             Total
 DF-MP2-F12/3*C(DX,FIX)                -0.029482773688     -0.004860564300     -0.034343337988
 DF-MP2-F12/3*C(FIX)                   -0.024420423169     -0.003810745311     -0.028231168479
 DF-MP2-F12/3C(FIX)                    -0.024552878814     -0.003783563030     -0.028336441844

 DF-MP2-F12 correlation energies:
 ================================
 Approx.                                    Singlet             Triplet             Ecorr            Total Energy
 DF-MP2                                -0.172136914417     -0.098450328363     -0.270587242780    -76.328889549146
 DF-MP2-F12/3*C(DX,FIX)                -0.201619688105     -0.103310892663     -0.304930580768    -76.363232887134
 DF-MP2-F12/3*C(FIX)                   -0.196557337586     -0.102261073673     -0.298818411259    -76.357120717625
 DF-MP2-F12/3C(FIX)                    -0.196689793231     -0.102233891392     -0.298923684623    -76.357225990989

 SCS-DF-MP2 energies (F_SING= 1.20000  F_TRIP= 0.62222  F_PARALLEL= 0.33333):
 ============================================================================
 SCS-DF-MP2                            -0.267822279393    -76.326124585759
 SCS-DF-MP2-F12/3*C(DX,FIX)            -0.306225958939    -76.364528265305
 SCS-DF-MP2-F12/3*C(FIX)               -0.299497917611    -76.357800223977
 SCS-DF-MP2-F12/3C(FIX)                -0.299639950966    -76.357942257332
 Symmetry transformation completed.

 Number of N-1 electron functions:               4
 Number of N-2 electron functions:              10
 Number of singly external CSFs:               900
 Number of doubly external CSFs:            405450
 Total number of CSFs:                      406351

 Pair and operator lists are different

 Length of J-op  integral file:              81.60 MB
 Length of K-op  integral file:             128.10 MB
 Length of 3-ext integral record:             0.00 MB

 Memory could be reduced to 75.63 Mwords without degradation in triples

 Integral transformation finished. Total CPU:  12.76 sec, npass=  1  Memory used:  32.52 MW

 Reference energy:                    -76.05830231

 Adding F12 terms to K(Cij), methodcc=6,  factor= 1.0

 ITER.      SQ.NORM     CORR.ENERGY   TOTAL ENERGY   ENERGY CHANGE        DEN1      VAR(S)    VAR(P)  DIIS     TIME  TIME/IT
   1      1.06276072    -0.27013362   -76.32843592     0.00046151     0.00648531  0.81D-03  0.11D-02  1  1    34.80     3.94
   2      1.06626131    -0.26981647   -76.32811877     0.00031715    -0.00469471  0.14D-04  0.11D-03  2  2    38.78     4.02
   3      1.06754973    -0.26994288   -76.32824519    -0.00012641    -0.00085024  0.97D-05  0.62D-05  3  3    42.69     4.04
   4      1.06806403    -0.26998099   -76.32828329    -0.00003811    -0.00028589  0.42D-06  0.66D-06  4  4    46.63     4.05
   5      1.06815960    -0.26997772   -76.32828002     0.00000327    -0.00002852  0.15D-06  0.44D-07  5  5    50.64     4.06
   6      1.06819217    -0.26997558   -76.32827788     0.00000214    -0.00000475  0.13D-07  0.30D-08  6  6    54.53     4.07
   7      1.06819932    -0.26997516   -76.32827746     0.00000042    -0.00000148  0.11D-08  0.47D-09  6  1    58.43     4.08
   8      1.06820063    -0.26997525   -76.32827755    -0.00000009     0.00000012  0.15D-09  0.55D-10  6  2    62.32     4.08
   9      1.06820116    -0.26997526   -76.32827757    -0.00000002    -0.00000004  0.16D-10  0.77D-11  6  3    66.29     4.08
  10      1.06820123    -0.26997526   -76.32827756     0.00000001     0.00000002  0.31D-11  0.92D-12  6  4    70.21     4.07
  11      1.06820118    -0.26997526   -76.32827756    -0.00000000     0.00000004  0.53D-12  0.20D-12  6  6    74.18     4.07
  12      1.06820118    -0.26997526   -76.32827756     0.00000000     0.00000001  0.78D-13  0.25D-13  6  5    78.09     4.07
  13      1.06820116    -0.26997526   -76.32827756    -0.00000000     0.00000000  0.96D-14  0.34D-14  6  1    82.02     4.07
  14      1.06820116    -0.26997526   -76.32827756    -0.00000000     0.00000000  0.11D-14  0.69D-15  6  2    85.92     4.07
  15      1.06820116    -0.26997526   -76.32827756    -0.00000000    -0.00000000  0.11D-15  0.73D-16  6  3    89.84     4.07
  16      1.06820116    -0.26997526   -76.32827756     0.00000000    -0.00000000  0.14D-16  0.88D-17  6  4    93.76     4.07

 Norm of t1 vector:      0.03761564      S-energy:    -0.00000000      T1 diagnostic:  0.00940391
                                                                       D1 diagnostic:  0.01875642

 Adding energy correction from Wij-K(Fij), methodcc=6  factor= 1.0

  CCSD correlation energy              -0.269975258023
  MP2-F12 correction (uncoupled)       -0.028059590594
  C*T doubles correction               -0.000416551748
  f12b correction                       0.004763356239


 Total CPU time for triples:     37.51 sec

  Ecorr(MP2)                           -0.270595128274
  Ecorr(MP2-F12)                       -0.298931570118
  Scale factor for triples energy       1.104718965284


 RESULTS
 =======

  Reference energy                    -76.056851587279
  F12 singles correction               -0.001450719086

 F12 singles corrections added to reference energy

  New reference energy                -76.058302306366

  F12a singlet correction              -0.024622732838
  F12a triplet correction              -0.003853409504
  F12a total correction                -0.028476142342

 F12a corrections for ansatz F12/3C(FIX) added to CCSD energy

  CCSD-F12a singlet pair energy        -0.207812037413
  CCSD-F12a triplet pair energy        -0.090639362866
  CCSD-F12a correlation energy         -0.298451400365

  Triples (T) contribution (scaled)    -0.009613880087
  Total correlation energy             -0.308065280452

  CCSD-F12a total energy              -76.356753706730
  CCSD[T]-F12a energy                 -76.366722492120
  CCSD-T-F12a energy                  -76.366221322498
 !CCSD(T)-F12a total energy           -76.366367586818

 F12b corrections for ansatz F12/3C(FIX) added to CCSD(T)-F12a energy

  CCSD-F12b singlet pair energy        -0.203406940794
  CCSD-F12b triplet pair energy        -0.090281103245
  CCSD-F12b correlation energy         -0.293688044125

  Triples (T) contribution (scaled)    -0.009613880087
  Total correlation energy             -0.303301924213

  CCSD-F12b total energy              -76.351990350491
  CCSD[T]-F12b energy                 -76.361959135880
  CCSD-T-F12b energy                  -76.361457966259
 !CCSD(T)-F12b total energy           -76.361604230579

 Timing summary (sec):

 STEP                 CPU(USER)    SYS     CPU(TOT)    WALL
 Transformation         12.82      0.62     13.44     13.51
 CCSD iterations        62.82      2.11     64.93     65.17
 Triples                37.51      0.30     37.81     37.85
 MP2-F12                18.13      0.41     18.54     18.56
 F12b energy             3.35      0.08      3.43      3.44

 Program statistics:

 Available memory in ccsd:              1999999871
 Min. memory needed in ccsd:               1862772
 Max. memory used in ccsd:                 2158322
 Max. memory used in cckext:               1445635 (17 integral passes)



 **********************************************************************************************************************************
 DATASETS  * FILE   NREC   LENGTH (MB)   RECORD NAMES
              1      19      222.31       500      610      700      900      950      970     1000      129      960     1100   
                                          VAR    BASINP    GEOM    SYMINP    ZMAT    AOBASIS   BASIS     P2S    ABASIS      S 
                                         1400     1410     1200     1210     1080     1600     1650     1700     1380   
                                           T        V       H0       H01     AOSYM     SMH    MOLCAS    OPER     JKOP   

              2       8        9.09       700     1000      520     2100     7360     7350      200     2101   
                                         GEOM     BASIS   MCVARS     RHF    F12ABS    EF12    OPTIONS    RHF  

 PROGRAMS   *        TOTAL   CCSD(T)    HF-SCF       INT   CCSD(T)    HF-SCF       INT
 CPU TIMES  *       722.27    134.85     12.96      0.21    544.54     14.98     14.48
 REAL TIME  *       743.19 SEC
 DISK USED  *       570.60 MB (local),        7.71 GB (total)
 SF USED    *         1.36 GB
 GA USED    *         4.87 MB       (max)       0.00 MB       (current)
 **********************************************************************************************************************************

 Running procedure: SET_MONOMER2

 Dummy atoms: O17  H33  H34


 Recomputing one-electron integrals since nuclear charges changed


 PROGRAM * SEWARD (Integral evaluation for generally contracted gaussian basis sets)     Author: Roland Lindh, 1990

 Geometry written to block  1 of record 700


 Point group  C1  



 ATOMIC COORDINATES

 NR  ATOM    CHARGE       X              Y              Z

   1  O17     0.00   -8.342762895    8.383580979    6.757282676
   2  H33     0.00   -7.349144898    9.034591629    5.278760956
   3  H34     0.00   -8.743006888    9.863803452    7.746365330
   4  C1      6.00   -6.193010455    2.801518980    2.403542658
   5  H41     1.00   -4.656285171    1.699997622    3.119937832
   6  H42     1.00   -5.973046335    4.726205038    2.982932688
   7  H43     1.00   -7.940251230    2.077186956    3.118237078
   8  H44     1.00   -6.176569838    2.685300823    0.384937212

 Bond lengths in Bohr (Angstrom)

 1-2  1.896606987  1-3  1.824702255  4-5  2.021904040  4-6  2.022002335  4-7  2.021953343
     ( 1.003641196)     ( 0.965590850)     ( 1.069945541)     ( 1.069997556)     ( 1.069971630)

 4-8  2.022015060
     ( 1.070004290)

 Bond angles

  2-1-3  105.01239280   5-4-6  109.53398059   5-4-7  109.65604535   5-4-8  108.43490854

  6-4-7  109.49436728   6-4-8  109.86987750   7-4-8  109.83468330

 NUCLEAR CHARGE:                   10
 NUMBER OF PRIMITIVE AOS:         296
 NUMBER OF SYMMETRY AOS:          266
 NUMBER OF CONTRACTIONS:          230   (  230A   )
 NUMBER OF CORE ORBITALS:           1   (    1A   )
 NUMBER OF VALENCE ORBITALS:        8   (    8A   )

 MOLECULE CHANGED: INITIALIZING OCCUPATION AND DUMP RECORDS


 NUCLEAR REPULSION ENERGY   13.68681606

 Basis set:  JKFIT                   
 Basis size:   740
 Attributes:
 Sphericals:   T
 Basis set:  MP2FIT                  
 Basis size:   816
 Attributes:
 Sphericals:   T
 Basis set:  RI                      
 Basis size:   556
 Attributes:
 Sphericals:   T
 Basis set:  TDDFT                   
 Basis size:   816
 Attributes:
 Sphericals:   T

 Eigenvalues of metric

         1 0.486E-04 0.786E-04 0.102E-03 0.104E-03 0.334E-03 0.356E-03 0.560E-03 0.696E-03


 Contracted 2-electron integrals neglected if value below      1.0D-14

 OPERATOR DM      FOR CENTER  0  COORDINATES:    0.000000    0.000000    0.000000


 **********************************************************************************************************************************
 DATASETS  * FILE   NREC   LENGTH (MB)   RECORD NAMES
              1      18       32.04       500      610      700      900      950      970     1000      129      960     1100   
                                          VAR    BASINP    GEOM    SYMINP    ZMAT    AOBASIS   BASIS     P2S    ABASIS      S 
                                         1400     1410     1200     1210     1080     1600     1650     1700   
                                           T        V       H0       H01     AOSYM     SMH    MOLCAS    OPER   

              2       8        9.09       700     1000      520     2100     7360     7350      200     2101   
                                         GEOM     BASIS   MCVARS     RHF    F12ABS    EF12    OPTIONS    RHF  

 PROGRAMS   *        TOTAL       INT   CCSD(T)    HF-SCF       INT   CCSD(T)    HF-SCF       INT
 CPU TIMES  *       722.49      0.22    134.85     12.96      0.21    544.54     14.98     14.48
 REAL TIME  *       743.95 SEC
 DISK USED  *       570.60 MB (local),        7.71 GB (total)
 SF USED    *         1.36 GB
 GA USED    *         4.87 MB       (max)       0.00 MB       (current)
 **********************************************************************************************************************************


 PROGRAM * RHF-SCF (CLOSED SHELL)       Authors: W. Meyer, H.-J. Werner


 NUMBER OF ELECTRONS:       5+    5-    SPACE SYMMETRY=1    SPIN SYMMETRY: Singlet 
 CONVERGENCE THRESHOLDS:    1.00E-08 (Density)    1.00E-11 (Energy)
 MAX. NUMBER OF ITERATIONS:       60
 INTERPOLATION TYPE:            DIIS
 INTERPOLATION STEPS:              2 (START)      1 (STEP)
 LEVEL SHIFTS:                  0.00 (CLOSED)  0.00 (OPEN) 



 Orbital guess generated from atomic densities. Full valence occupancy:    9

 Molecular orbital dump at record        2102.2

 Initial occupancy:   5

 ITERATION    DDIFF          GRAD             ENERGY        2-EL.EN.            DIPOLE MOMENTS         DIIS   ORB.
    1      0.000D+00      0.000D+00       -40.19358830     53.494055    0.00411   -0.00274   -0.00130    0    start
    2      0.000D+00      0.353D-02       -40.21070555     52.213705    0.00131   -0.00085   -0.00037    1    diag
    3      0.325D-02      0.137D-02       -40.21295394     52.664875    0.00183   -0.00121   -0.00054    2    diag
    4      0.905D-03      0.342D-03       -40.21326937     52.609852    0.00163   -0.00108   -0.00047    3    diag
    5      0.302D-03      0.443D-04       -40.21327476     52.612190    0.00160   -0.00106   -0.00046    4    diag
    6      0.843D-04      0.345D-05       -40.21327480     52.612288    0.00160   -0.00106   -0.00046    5    diag
    7      0.693D-05      0.264D-06       -40.21327480     52.612253    0.00160   -0.00106   -0.00046    6    diag
    8      0.103D-05      0.221D-07       -40.21327480     52.612254    0.00160   -0.00106   -0.00046    7    diag
    9      0.189D-06      0.285D-08       -40.21327480     52.612254    0.00160   -0.00106   -0.00046    8    diag
   10      0.100D-07      0.797D-09       -40.21327480     52.612254    0.00160   -0.00106   -0.00046    9    orth
   11      0.120D-08      0.107D-09       -40.21327480     52.612254    0.00160   -0.00106   -0.00046    0    orth

 Final occupancy:   5

 !RHF STATE  1.1 Energy               -40.213274796920
 Nuclear energy                        13.68681606
 One-electron energy                  -80.20621779
 Two-electron energy                   26.30612693
 Virial quotient                       -0.99869877
 !RHF STATE  1.1 Dipole moment          0.00160009    -0.00105964    -0.00045992
 Dipole moment /Debye                   0.00406677    -0.00269315    -0.00116892

 Orbital energies:

         1.1          2.1          3.1          4.1          5.1          6.1          7.1
    -11.197207    -0.950741    -0.551694    -0.549760    -0.547580     0.026330     0.039272


 HOMO      5.1    -0.547580 =     -14.9004eV
 LUMO      6.1     0.026330 =       0.7165eV
 LUMO-HOMO         0.573910 =      15.6169eV


 **********************************************************************************************************************************
 DATASETS  * FILE   NREC   LENGTH (MB)   RECORD NAMES
              1      18       32.04       500      610      700      900      950      970     1000      129      960     1100   
                                          VAR    BASINP    GEOM    SYMINP    ZMAT    AOBASIS   BASIS     P2S    ABASIS      S 
                                         1400     1410     1200     1210     1080     1600     1650     1700   
                                           T        V       H0       H01     AOSYM     SMH    MOLCAS    OPER   

              2       9       13.71       700     1000      520     2100     7360     7350      200     2101     2102   
                                         GEOM     BASIS   MCVARS     RHF    F12ABS    EF12    OPTIONS    RHF      RHF  

 PROGRAMS   *        TOTAL    HF-SCF       INT   CCSD(T)    HF-SCF       INT   CCSD(T)    HF-SCF       INT
 CPU TIMES  *       734.44     11.95      0.22    134.85     12.96      0.21    544.54     14.98     14.48
 REAL TIME  *       756.83 SEC
 DISK USED  *       570.60 MB (local),        7.71 GB (total)
 SF USED    *         1.36 GB
 GA USED    *         4.87 MB       (max)       0.00 MB       (current)
 **********************************************************************************************************************************

 Basis set:  JKFIT                   
 Basis size:   740
 Attributes:
 Sphericals:   T
 Basis set:  MP2FIT                  
 Basis size:   816
 Attributes:
 Sphericals:   T
 Basis set:  RI                      
 Basis size:   556
 Attributes:
 Sphericals:   T
 Basis set:  TDDFT                   
 Basis size:   816
 Attributes:
 Sphericals:   T

 PROGRAM * CCSD (Closed-shell coupled cluster)     Authors: C. Hampel, H.-J. Werner, 1991, M. Deegan, P.J. Knowles, 1992

                                  CCSD-F12 implementation by  H.-J. Werner, 2007

                   Density fitting integral evaluation by F.R. Manby, 2003,2007, G. Knizia, 2010



 Convergence thresholds:  THRVAR = 1.00D-08  THRDEN = 1.00D-10

 CCSD(T)     terms to be evaluated (factor= 1.000)


 Number of core orbitals:           1 (   1 )
 Number of closed-shell orbitals:   4 (   4 )
 Number of external orbitals:     225 ( 225 )

 Molecular orbitals read from record     2102.2  Type=RHF/CANONICAL (state 1.1)

 MP2-F12 correlation treatment (H.-J. Werner, 2006)
 ==================================================

 Using MP2-F12 with ansatz 3C(FIX)

 Using projected zeroth-order Hamiltonian (+Z)

 FOCKRIB=T FOCKRIC=T FOCKRIP=T CABSP=T CABSA=T CABSK=T CABSF=T GBC=F EBC=F DMAT=T NOFIK=T NOPAO=1 SOLVE=-1  USEPAO=0
 EXCH_A= T EXCH_B= F EXCH_C= F EXCH_P= F

 Geminal basis:    OPTFULL  GEM_TYPE=SLATER  BETA=1.0  NGEM=6

 Optimizing Gaussian exponents for each gem_beta

 Geminal optimization for beta= 1.0000
 Weight function:   m=0, omega= 1.4646

 Augmented Hessian optimization of geminal fit. Trust ratio= 0.40000
 Convergence reached after   2 iterations. Final gradient= 7.85D-16, Step= 4.26D-06, Delta= 1.28D-09

 Alpha:                 0.19532     0.81920     2.85917     9.50073    35.69989   197.79328
 Coeff:                 0.27070     0.30552     0.18297     0.10986     0.06810     0.04224


 All pairs explicitly correlated. Number of r12-pairs:           10

 Excluding core orbitals from MO domains

 AO(A)-basis ORBITAL           loaded. Number of functions:     230
 RI(R)-basis RI                loaded. Number of functions:     556
 DF-basis JKFIT                loaded. Number of functions:     740

 Screening thresholds:   THRAO=  1.00D-10  THRMO=  1.00D-09  THRPROD=  1.00D-09
                         THRSW=  1.00D-05  THROV=  1.00D-12  THRAOF12= 1.00D-10

 CPU time for Fock operators                      3.19 sec

 Construction of ABS:
 Smallest eigenvalue of S          1.17E-04  (threshold= 1.00E-08)
 Ratio eigmin/eigmax               1.66E-05  (threshold= 1.00E-09)
 Smallest eigenvalue of S kept     1.17E-04  (threshold= 1.17E-04, 0 functions deleted, 556 kept)

 Construction of CABS:
 Smallest eigenvalue of S          6.00E-07  (threshold= 1.00E-08)
 Ratio eigmin/eigmax               6.00E-07  (threshold= 1.00E-09)
 Smallest eigenvalue of S kept     6.00E-07  (threshold= 6.00E-07, 0 functions deleted, 556 kept)

 CPU time for CABS singles                        0.70 sec

 CABS-singles contribution of  -0.00091091 patched into reference energy.
 New reference energy         -40.21418571

 AO(A)-basis ORBITAL           loaded. Number of functions:     230
 RI(R)-basis RI                loaded. Number of functions:     556
 DF-basis MP2FIT               loaded. Number of functions:     816

 Screening thresholds:   THRAO=  1.00D-10  THRMO=  1.00D-09  THRPROD=  1.00D-09
                         THRSW=  1.00D-05  THROV=  1.00D-12  THRAOF12= 1.00D-10

 CPU time for 3-index integral evaluation         5.24 sec
 CPU time for first  half transformation          1.00 sec ( 1520.2 MFLOP/sec)
 CPU time for second half transformation          0.02 sec (  665.2 MFLOP/sec)
 CPU time for sorting                             0.04 sec
 CPU time for fitting                             0.35 sec ( 6076.4 MFLOP/sec)
 CPU time for tilde quantities                    0.39 sec ( 6187.3 MFLOP/sec)
 CPU time for assembly                            1.30 sec ( 4358.2 MFLOP/sec)
 CPU time for tranop_f12                          1.30 sec ( 3308.4 MFLOP/sec)
 CPU time for f12 integrals (total)              12.10 sec, Elapsed time:     12.48 sec
 F12-matrices built in  4 passes.
 F12-matrices built in  4 passes.
 F12-matrices built in  4 passes.
 F12-matrices built in  4 passes.
 FC-matrix built in  4 passes.
 CPU time for f12 matrices (total)                0.30 sec, Elapsed time:      0.31 sec

 Diagonal F12 approximation with fixed coefficients:  TSING= 0.500,  TTRIP= 0.250 (scaled by -1/beta)

 DF-MP2-F12 energy corrections:
 ==============================
 Approx.                                    Singlet             Triplet             Total
 DF-MP2-F12/3*C(DX,FIX)                -0.016700603535     -0.001927379333     -0.018627982868
 DF-MP2-F12/3*C(FIX)                   -0.015461285687     -0.001785327425     -0.017246613111
 DF-MP2-F12/3C(FIX)                    -0.015447871988     -0.001776531129     -0.017224403117

 DF-MP2-F12 correlation energies:
 ================================
 Approx.                                    Singlet             Triplet             Ecorr            Total Energy
 DF-MP2                                -0.145446162862     -0.055066611633     -0.200512774494    -40.414698480640
 DF-MP2-F12/3*C(DX,FIX)                -0.162146766396     -0.056993990966     -0.219140757362    -40.433326463508
 DF-MP2-F12/3*C(FIX)                   -0.160907448548     -0.056851939057     -0.217759387606    -40.431945093751
 DF-MP2-F12/3C(FIX)                    -0.160894034850     -0.056843142761     -0.217737177611    -40.431922883757

 SCS-DF-MP2 energies (F_SING= 1.20000  F_TRIP= 0.62222  F_PARALLEL= 0.33333):
 ============================================================================
 SCS-DF-MP2                            -0.208799064894    -40.422984771040
 SCS-DF-MP2-F12/3*C(DX,FIX)            -0.230039047388    -40.444224753533
 SCS-DF-MP2-F12/3*C(FIX)               -0.228463478116    -40.442649184262
 SCS-DF-MP2-F12/3C(FIX)                -0.228441908427    -40.442627614572
 Symmetry transformation completed.

 Number of N-1 electron functions:               4
 Number of N-2 electron functions:              10
 Number of singly external CSFs:               900
 Number of doubly external CSFs:            405450
 Total number of CSFs:                      406351

 Pair and operator lists are different

 Length of J-op  integral file:              81.60 MB
 Length of K-op  integral file:             128.10 MB
 Length of 3-ext integral record:             0.00 MB

 Memory could be reduced to 75.63 Mwords without degradation in triples

 Integral transformation finished. Total CPU:  12.97 sec, npass=  1  Memory used:  32.52 MW

 Reference energy:                    -40.21418571

 Adding F12 terms to K(Cij), methodcc=6,  factor= 1.0

 ITER.      SQ.NORM     CORR.ENERGY   TOTAL ENERGY   ENERGY CHANGE        DEN1      VAR(S)    VAR(P)  DIIS     TIME  TIME/IT
   1      1.06946243    -0.21558091   -40.42976662    -0.01505834    -0.00938240  0.67D-03  0.94D-03  1  1    34.77     3.95
   2      1.07449004    -0.21614939   -40.43033510    -0.00056848    -0.00524411  0.17D-04  0.83D-04  2  2    38.81     4.03
   3      1.07589713    -0.21630433   -40.43049004    -0.00015494    -0.00097881  0.20D-05  0.51D-05  3  3    42.81     4.05
   4      1.07623527    -0.21631669   -40.43050240    -0.00001236    -0.00017398  0.10D-06  0.25D-06  4  4    46.70     4.06
   5      1.07627996    -0.21631542   -40.43050113     0.00000127    -0.00000983  0.77D-08  0.16D-07  5  5    50.62     4.07
   6      1.07628582    -0.21631444   -40.43050014     0.00000098    -0.00000185  0.57D-09  0.12D-08  6  6    54.54     4.07
   7      1.07628696    -0.21631412   -40.43049983     0.00000032    -0.00000072  0.39D-10  0.95D-10  6  1    58.48     4.07
   8      1.07628698    -0.21631423   -40.43049993    -0.00000011     0.00000013  0.38D-11  0.55D-11  6  3    62.34     4.07
   9      1.07628709    -0.21631421   -40.43049992     0.00000001    -0.00000007  0.32D-12  0.47D-12  6  2    66.28     4.07
  10      1.07628709    -0.21631421   -40.43049991     0.00000000     0.00000000  0.35D-13  0.47D-13  6  4    70.25     4.08
  11      1.07628709    -0.21631421   -40.43049991     0.00000000     0.00000000  0.27D-14  0.49D-14  6  5    74.24     4.08
  12      1.07628709    -0.21631421   -40.43049991     0.00000000     0.00000000  0.60D-16  0.59D-15  6  6    78.21     4.08
  13      1.07628709    -0.21631421   -40.43049991    -0.00000000     0.00000000  0.79D-17  0.66D-16  6  1    82.13     4.08
  14      1.07628709    -0.21631421   -40.43049991    -0.00000000     0.00000000  0.14D-17  0.80D-17  6  3    86.02     4.08

 Norm of t1 vector:      0.03361836      S-energy:     0.00000000      T1 diagnostic:  0.00840459
                                                                       D1 diagnostic:  0.01339582

 Adding energy correction from Wij-K(Fij), methodcc=6  factor= 1.0

  CCSD correlation energy              -0.216314206264
  MP2-F12 correction (uncoupled)       -0.017236032517
  C*T doubles correction               -0.000193092428
  f12b correction                       0.003654009816

 Total CPU time for triples:     37.69 sec

  Ecorr(MP2)                           -0.200522569703
  Ecorr(MP2-F12)                       -0.217746972819
  Scale factor for triples energy       1.085897578224


 RESULTS
 =======

  Reference energy                    -40.213274796920
  F12 singles correction               -0.000910909226

 F12 singles corrections added to reference energy

  New reference energy                -40.214185706146

  F12a singlet correction              -0.015626790408
  F12a triplet correction              -0.001802334537
  F12a total correction                -0.017429124945

 F12a corrections for ansatz F12/3C(FIX) added to CCSD energy

  CCSD-F12a singlet pair energy        -0.178525921446
  CCSD-F12a triplet pair energy        -0.055217409787
  CCSD-F12a correlation energy         -0.233743331209

  Triples (T) contribution (scaled)    -0.006801730504
  Total correlation energy             -0.240545061712

  CCSD-F12a total energy              -40.447929037354
  CCSD[T]-F12a energy                 -40.454969928419
  CCSD-T-F12a energy                  -40.454656008766
 !CCSD(T)-F12a total energy           -40.454730767858

 F12b corrections for ansatz F12/3C(FIX) added to CCSD(T)-F12a energy

  CCSD-F12b singlet pair energy        -0.175042769941
  CCSD-F12b triplet pair energy        -0.055046551477
  CCSD-F12b correlation energy         -0.230089321392

  Triples (T) contribution (scaled)    -0.006801730504
  Total correlation energy             -0.236891051896

  CCSD-F12b total energy              -40.444275027538
  CCSD[T]-F12b energy                 -40.451315918603
  CCSD-T-F12b energy                  -40.451001998950
 !CCSD(T)-F12b total energy           -40.451076758042

 Timing summary (sec):

 STEP                 CPU(USER)    SYS     CPU(TOT)    WALL
 Transformation         13.02      0.53     13.55     13.57
 CCSD iterations        55.07      2.10     57.17     57.22
 Triples                37.69      0.26     37.95     38.00
 MP2-F12                17.94      0.48     18.42     18.43
 F12b energy             3.33      0.10      3.43      3.44

 Program statistics:

 Available memory in ccsd:              1999999866
 Min. memory needed in ccsd:               1862772
 Max. memory used in ccsd:                 2158322
 Max. memory used in cckext:               1445635 (15 integral passes)



 **********************************************************************************************************************************
 DATASETS  * FILE   NREC   LENGTH (MB)   RECORD NAMES
              1      19      222.31       500      610      700      900      950      970     1000      129      960     1100   
                                          VAR    BASINP    GEOM    SYMINP    ZMAT    AOBASIS   BASIS     P2S    ABASIS      S 
                                         1400     1410     1200     1210     1080     1600     1650     1700     1380   
                                           T        V       H0       H01     AOSYM     SMH    MOLCAS    OPER     JKOP   

              2       9       13.71       700     1000      520     2100     7360     7350      200     2101     2102   
                                         GEOM     BASIS   MCVARS     RHF    F12ABS    EF12    OPTIONS    RHF      RHF  

 PROGRAMS   *        TOTAL   CCSD(T)    HF-SCF       INT   CCSD(T)    HF-SCF       INT   CCSD(T)    HF-SCF       INT
 CPU TIMES  *       861.73    127.27     11.95      0.22    134.85     12.96      0.21    544.54     14.98     14.48
 REAL TIME  *       888.26 SEC
 DISK USED  *       570.60 MB (local),        7.71 GB (total)
 SF USED    *         1.36 GB
 GA USED    *         4.87 MB       (max)       0.00 MB       (current)
 **********************************************************************************************************************************
 Molecular orbitals read from record     2102.2  Type=RHF/CANONICAL (state 1.1)
 Occupation numbers read from record     2102.2  Type=RHF/RHF (state 1.1)
 Orbital energies read from record       2102.2  Type=RHF/CANONICAL (state 1.1)
 Redundancy group numbers read from rec  2102.2  Type=RHF/RHF (state 1.1)

 CCSD(T)-F12/aug-cc-pVTZ energy=    -40.451076758042

     CCSD(T)-F12          HF-SCF     CCSD(T)-F12          HF-SCF     CCSD(T)-F12          HF-SCF
    -40.45107676    -40.21327480    -76.36160423    -76.05685159   -116.81294135   -116.26965182
 **********************************************************************************************************************************
 Molpro calculation terminated
