
 Primary working directories    : /scratch/klimes/383168/molpro.gABlOo7X6B
 Secondary working directories  : /scratch/klimes/383168/molpro.gABlOo7X6B
 Wavefunction directory         : /scratch/klimes/383168/
 Main file repository           : /scratch/klimes/383168/molpro.gABlOo7X6B/

 id        : karlovklimes

 Nodes                      nprocs
 nc-22.cc.karlov.mff.cuni.cz    4

 Using customized tuning parameters: mindgm=1; mindgv=20; mindgc=4; mindgr=1; noblas=0; minvec=7
 default implementation of scratch files=sf  


 Variables initialized (930), CPU time= 0.01 sec
                                                                                 !gdirect
 memory,2000,m
 gthresh,orbital=1d-10,energy=1d-10,grid=1d-8
 
 symmetry,nosym
 angstrom
 geometry={
 O18        -6.356200000000      0.392700000000      3.232000000000
 H35        -6.218200000000     -0.218800000000      2.485700000000
 H36        -5.588500000000      0.246100000000      3.819100000000
 C1        -3.277200000000      1.482500000000      1.271900000000
 H41        -2.464000000000      0.899600000000      1.651000000000
 H42        -3.160800000000      2.501000000000      1.578500000000
 H43        -4.201800000000      1.099200000000      1.650100000000
 H44        -3.268500000000      1.421000000000      0.203700000000
 }
 
 nkerna=1
 nkernb=1
 
 gf=0
 sing=1
 thrdum=1d-4
 gridthr=1d-8
 
 basis={
 set,orbital
 default,avtz
 set,jkfit
 default,avqz/jkfit
 set,mp2fit
 default,avqz/mp2fit
 set,ri
 default,avqz/optri
 set,tddft
 default,avqz/mp2fit
 }
 
 proc set_monomer1
 dummy,4,5,6,7,8
 endproc
 
 proc set_monomer2
 dummy,1,2,3
 endproc
 
                                                                                 !12 energy
 {hf,accu=1.d-16}
 {ccsd(t)-f12,df_basis=mp2fit,df_basis_exch=jkfit,ri_basis=ri,scale_trip=1,THRAOF12=1d-10}
 
 set_monomer1
 {hf,accu=1.d-16}
 {ccsd(t)-f12,df_basis=mp2fit,df_basis_exch=jkfit,ri_basis=ri,scale_trip=1,THRAOF12=1d-10}
 
 set_monomer2
 {hf,accu=1.d-16}
 {ccsd(t)-f12,df_basis=mp2fit,df_basis_exch=jkfit,ri_basis=ri,scale_trip=1,THRAOF12=1d-10}
 
 Commands  initialized (760), CPU time= 0.01 sec, 617 directives.
 Default parameters read. Elapsed time= 0.20 sec

 Checking input...
 Passed
1


                                         ***  PROGRAM SYSTEM MOLPRO  ***
                                       Copyright, TTI GmbH Stuttgart, 2015
                                    Version 2019.1 linked Jan 14 2019 13:09:19


 **********************************************************************************************************************************
 LABEL *                                                                                 
  64 bit mpp version                                                                     DATE: 11-Mar-20          TIME: 16:24:39  
 **********************************************************************************************************************************

 SHA1:             d688ac825633d238f2093ded1675ba87ccd55965
 **********************************************************************************************************************************

 THRESHOLDS:

 ZERO    =  1.00D-12  ONEINT  =  1.00D-12  TWOINT  =  1.00D-11  PREFAC  =  1.00D-14  XXXXXX  =  1.00D-09  EORDER  =  1.00D-04
 ENERGY  =  1.00D-10  ETEST   =  0.00D+00  EDENS   =  0.00D+00  THRDEDEF=  1.00D-06  GRADIENT=  1.00D-02  STEP    =  1.00D-03
 ORBITAL =  1.00D-10  CIVEC   =  1.00D-05  COEFF   =  1.00D-04  PRINTCI =  5.00D-02  PUNCHCI =  9.90D+01  OPTGRAD =  3.00D-04
 OPTENERG=  1.00D-06  OPTSTEP =  3.00D-04  THRGRAD =  1.00D-10  COMPRESS=  1.00D-11  VARMIN  =  1.00D-07  VARMAX  =  1.00D-03
 THRDOUB =  0.00D+00  THRDIV  =  1.00D-05  THRRED  =  1.00D-07  THRPSP  =  1.00D+00  THRDC   =  1.00D-10  THRCS   =  1.00D-10
 THRNRM  =  1.00D-08  THREQ   =  0.00D+00  THRDE   =  1.00D+00  THRREF  =  1.00D-05  SPARFAC =  1.00D+00  THRDLP  =  1.00D-07
 THRDIA  =  1.00D-10  THRDLS  =  1.00D-07  THRGPS  =  0.00D+00  THRKEX  =  0.00D+00  THRDIS  =  2.00D-01  THRVAR  =  1.00D-10
 THRLOC  =  1.00D-06  THRGAP  =  1.00D-06  THRLOCT = -1.00D+00  THRGAPT = -1.00D+00  THRORB  =  1.00D-06  THRMLTP =  0.00D+00
 THRCPQCI=  1.00D-10  KEXTA   =  0.00D+00  THRCOARS=  0.00D+00  SYMTOL  =  1.00D-06  GRADTOL =  1.00D-06  THROVL  =  1.00D-08
 THRORTH =  1.00D-08  GRID    =  1.00D-08  GRIDMAX =  1.00D-03  DTMAX   =  0.00D+00  THROCCDE=  1.00D-01  THROCCDE=  1.00D-01
 THRPRINT=  2.50D-01


 Variable memory set to 2000000000 words,  buffer space 

 ZSYMEL=NOSYM
 ZUNIT=ANG


Geometry recognized as XYZ

 SETTING NKERNA         =         1.00000000                                  
 SETTING NKERNB         =         1.00000000                                  
 SETTING GF             =     0.00000000D+00                                  
 SETTING SING           =         1.00000000                                  
 SETTING THRDUM         =     1.00000000D-04                                  
 SETTING GRIDTHR        =     1.00000000D-08                                  
 SETTING BASIS          =    AVTZ


 Recomputing integrals since basis changed


 Using spherical harmonics

 Library entry O      S aug-cc-pVTZ          selected for orbital group  1
 Library entry O      P aug-cc-pVTZ          selected for orbital group  1
 Library entry O      D aug-cc-pVTZ          selected for orbital group  1
 Library entry O      F aug-cc-pVTZ          selected for orbital group  1
 Library entry H      S aug-cc-pVTZ          selected for orbital group  2
 Library entry H      P aug-cc-pVTZ          selected for orbital group  2
 Library entry H      D aug-cc-pVTZ          selected for orbital group  2
 Library entry C      S aug-cc-pVTZ          selected for orbital group  3
 Library entry C      P aug-cc-pVTZ          selected for orbital group  3
 Library entry C      D aug-cc-pVTZ          selected for orbital group  3
 Library entry C      F aug-cc-pVTZ          selected for orbital group  3


 PROGRAM * SEWARD (Integral evaluation for generally contracted gaussian basis sets)     Author: Roland Lindh, 1990

 Geometry written to block  1 of record 700


 Point group  C1  



 ATOMIC COORDINATES

 NR  ATOM    CHARGE       X              Y              Z

   1  O18     8.00  -12.011477193    0.742095449    6.107594835
   2  H35     1.00  -11.750694988   -0.413472076    4.697292228
   3  H36     1.00  -10.560734447    0.465061599    7.217053042
   4  C1      6.00   -6.193010455    2.801518980    2.403542658
   5  H41     1.00   -4.656285171    1.699997622    3.119937832
   6  H42     1.00   -5.973046335    4.726205038    2.982932688
   7  H43     1.00   -7.940251230    2.077186956    3.118237078
   8  H44     1.00   -6.176569838    2.685300823    0.384937212

 Bond lengths in Bohr (Angstrom)

 1-2  1.841818967  1-3  1.847241128  4-5  2.021904040  4-6  2.022002335  4-7  2.021953343
     ( 0.974648624)     ( 0.977517908)     ( 1.069945541)     ( 1.069997556)     ( 1.069971630)

 4-8  2.022015060
     ( 1.070004290)

 Bond angles

  2-1-3  104.74973043   5-4-6  109.53398059   5-4-7  109.65604535   5-4-8  108.43490854

  6-4-7  109.49436728   6-4-8  109.86987750   7-4-8  109.83468330

 NUCLEAR CHARGE:                   20
 NUMBER OF PRIMITIVE AOS:         296
 NUMBER OF SYMMETRY AOS:          266
 NUMBER OF CONTRACTIONS:          230   (  230A   )
 NUMBER OF CORE ORBITALS:           2   (    2A   )
 NUMBER OF VALENCE ORBITALS:       14   (   14A   )


 NUCLEAR REPULSION ENERGY   36.79874832


 Basis set:  JKFIT                   
 Basis size:   740
 Attributes:
 Sphericals:   T
 Basis set:  MP2FIT                  
 Basis size:   816
 Attributes:
 Sphericals:   T
 Basis set:  RI                      
 Basis size:   556
 Attributes:
 Sphericals:   T
 Basis set:  TDDFT                   
 Basis size:   816
 Attributes:
 Sphericals:   T

 **********************************************************************************************************************************


 Eigenvalues of metric

         1 0.349E-04 0.743E-04 0.993E-04 0.104E-03 0.326E-03 0.373E-03 0.459E-03 0.620E-03


 Contracted 2-electron integrals neglected if value below      1.0D-14
 AO integral compression algorithm  1   Integral accuracy      1.0D-14

     2279.604 MB (compressed) written to integral file ( 71.1%)

     Node minimum: 538.444 MB, node maximum: 598.475 MB


 NUMBER OF SORTED TWO-ELECTRON INTEGRALS:   88219044.     BUFFER LENGTH:  32768
 NUMBER OF SEGMENTS:   6  SEGMENT LENGTH:   15998348      RECORD LENGTH: 524288

 Memory used in sort:      16.56 MW

 SORT1 READ   400769927. AND WROTE    82696078. INTEGRALS IN    240 RECORDS. CPU TIME:     7.70 SEC, REAL TIME:     8.74 SEC
 SORT2 READ   330588737. AND WROTE   352862895. INTEGRALS IN   8216 RECORDS. CPU TIME:     1.86 SEC, REAL TIME:     2.64 SEC

 Node minimum:    88205762.  Node maximum:    88225686. integrals

 OPERATOR DM      FOR CENTER  0  COORDINATES:    0.000000    0.000000    0.000000


 **********************************************************************************************************************************
 DATASETS  * FILE   NREC   LENGTH (MB)   RECORD NAMES
              1      18       32.04       500      610      700      900      950      970     1000      129      960     1100   
                                          VAR    BASINP    GEOM    SYMINP    ZMAT    AOBASIS   BASIS     P2S    ABASIS      S 
                                         1400     1410     1200     1210     1080     1600     1650     1700   
                                           T        V       H0       H01     AOSYM     SMH    MOLCAS    OPER   

 PROGRAMS   *        TOTAL       INT
 CPU TIMES  *        14.49     14.26
 REAL TIME  *        19.46 SEC
 DISK USED  *        32.49 MB (local),        6.32 GB (total)
 GA USED    *         0.00 MB       (max)       0.00 MB       (current)
 **********************************************************************************************************************************


 PROGRAM * RHF-SCF (CLOSED SHELL)       Authors: W. Meyer, H.-J. Werner


 NUMBER OF ELECTRONS:      10+   10-    SPACE SYMMETRY=1    SPIN SYMMETRY: Singlet 
 CONVERGENCE THRESHOLDS:    1.00E-08 (Density)    1.00E-11 (Energy)
 MAX. NUMBER OF ITERATIONS:       60
 INTERPOLATION TYPE:            DIIS
 INTERPOLATION STEPS:              2 (START)      1 (STEP)
 LEVEL SHIFTS:                  0.00 (CLOSED)  0.00 (OPEN) 



 Orbital guess generated from atomic densities. Full valence occupancy:   16

 Molecular orbital dump at record        2100.2

 Initial occupancy:  10

 ITERATION    DDIFF          GRAD             ENERGY        2-EL.EN.            DIPOLE MOMENTS         DIIS   ORB.
    1      0.000D+00      0.000D+00      -116.21374273    158.905741    0.87159   -0.73709   -0.14803    0    start
    2      0.000D+00      0.521D-02      -116.25748747    154.168753    0.49333   -0.39117   -0.08905    1    diag
    3      0.553D-02      0.303D-02      -116.27057009    156.151914    0.58759   -0.48005   -0.10346    2    diag
    4      0.183D-02      0.455D-03      -116.27121966    156.039120    0.57855   -0.47431   -0.10191    3    diag
    5      0.410D-03      0.133D-03      -116.27128698    156.034160    0.57833   -0.47366   -0.10228    4    diag
    6      0.145D-03      0.327D-04      -116.27129089    156.039983    0.57786   -0.47307   -0.10241    5    diag
    7      0.402D-04      0.656D-05      -116.27129113    156.038412    0.57793   -0.47305   -0.10248    6    diag
    8      0.111D-04      0.167D-05      -116.27129115    156.038565    0.57791   -0.47298   -0.10251    7    diag
    9      0.239D-05      0.367D-06      -116.27129115    156.038536    0.57790   -0.47296   -0.10251    8    diag
   10      0.757D-06      0.458D-07      -116.27129115    156.038538    0.57790   -0.47296   -0.10251    9    orth
   11      0.686D-07      0.131D-07      -116.27129115    156.038539    0.57790   -0.47296   -0.10251    9    diag
   12      0.265D-07      0.371D-08      -116.27129115    156.038538    0.57790   -0.47296   -0.10251    9    diag
   13      0.554D-08      0.960D-09      -116.27129115    156.038539    0.57790   -0.47296   -0.10251    0    orth

 Final occupancy:  10

 !RHF STATE  1.1 Energy              -116.271291150684
 Nuclear energy                        36.79874832
 One-electron energy                 -231.08930879
 Two-electron energy                   78.01926932
 Virial quotient                       -1.00096661
 !RHF STATE  1.1 Dipole moment          0.57790435    -0.47296068    -0.10251244
 Dipole moment /Debye                   1.46879014    -1.20206740    -0.26054358

 Orbital energies:

         1.1          2.1          3.1          4.1          5.1          6.1          7.1          8.1          9.1         10.1
    -20.570865   -11.199100    -1.344976    -0.953229    -0.708971    -0.582703    -0.555007    -0.552568    -0.550303    -0.507663

        11.1         12.1
      0.025401     0.041678


 HOMO     10.1    -0.507663 =     -13.8142eV
 LUMO     11.1     0.025401 =       0.6912eV
 LUMO-HOMO         0.533064 =      14.5054eV


 **********************************************************************************************************************************
 DATASETS  * FILE   NREC   LENGTH (MB)   RECORD NAMES
              1      18       32.04       500      610      700      900      950      970     1000      129      960     1100   
                                          VAR    BASINP    GEOM    SYMINP    ZMAT    AOBASIS   BASIS     P2S    ABASIS      S 
                                         1400     1410     1200     1210     1080     1600     1650     1700   
                                           T        V       H0       H01     AOSYM     SMH    MOLCAS    OPER   

              2       4        3.96       700     1000      520     2100   
                                         GEOM     BASIS   MCVARS     RHF  

 PROGRAMS   *        TOTAL    HF-SCF       INT
 CPU TIMES  *        28.62     14.13     14.26
 REAL TIME  *        35.75 SEC
 DISK USED  *        39.90 MB (local),        6.35 GB (total)
 SF USED    *         0.21 MB
 GA USED    *         0.00 MB       (max)       0.00 MB       (current)
 **********************************************************************************************************************************

 Basis set:  JKFIT                   
 Basis size:   740
 Attributes:
 Sphericals:   T
 Basis set:  MP2FIT                  
 Basis size:   816
 Attributes:
 Sphericals:   T
 Basis set:  RI                      
 Basis size:   556
 Attributes:
 Sphericals:   T
 Basis set:  TDDFT                   
 Basis size:   816
 Attributes:
 Sphericals:   T

 PROGRAM * CCSD (Closed-shell coupled cluster)     Authors: C. Hampel, H.-J. Werner, 1991, M. Deegan, P.J. Knowles, 1992

                                  CCSD-F12 implementation by  H.-J. Werner, 2007

                   Density fitting integral evaluation by F.R. Manby, 2003,2007, G. Knizia, 2010



 Convergence thresholds:  THRVAR = 1.00D-08  THRDEN = 1.00D-10

 CCSD(T)     terms to be evaluated (factor= 1.000)


 Number of core orbitals:           2 (   2 )
 Number of closed-shell orbitals:   8 (   8 )
 Number of external orbitals:     220 ( 220 )

 Molecular orbitals read from record     2100.2  Type=RHF/CANONICAL (state 1.1)

 MP2-F12 correlation treatment (H.-J. Werner, 2006)
 ==================================================

 Using MP2-F12 with ansatz 3C(FIX)

 Using projected zeroth-order Hamiltonian (+Z)

 FOCKRIB=T FOCKRIC=T FOCKRIP=T CABSP=T CABSA=T CABSK=T CABSF=T GBC=F EBC=F DMAT=T NOFIK=T NOPAO=1 SOLVE=-1  USEPAO=0
 EXCH_A= T EXCH_B= F EXCH_C= F EXCH_P= F

 Geminal basis:    OPTFULL  GEM_TYPE=SLATER  BETA=1.0  NGEM=6

 Optimizing Gaussian exponents for each gem_beta

 Geminal optimization for beta= 1.0000
 Weight function:   m=0, omega= 1.4646

 Augmented Hessian optimization of geminal fit. Trust ratio= 0.40000
 Convergence reached after   2 iterations. Final gradient= 7.85D-16, Step= 4.26D-06, Delta= 1.28D-09

 Alpha:                 0.19532     0.81920     2.85917     9.50073    35.69989   197.79328
 Coeff:                 0.27070     0.30552     0.18297     0.10986     0.06810     0.04224


 All pairs explicitly correlated. Number of r12-pairs:           36

 Excluding core orbitals from MO domains

 AO(A)-basis ORBITAL           loaded. Number of functions:     230
 RI(R)-basis RI                loaded. Number of functions:     556
 DF-basis JKFIT                loaded. Number of functions:     740

 Screening thresholds:   THRAO=  1.00D-10  THRMO=  1.00D-09  THRPROD=  1.00D-09
                         THRSW=  1.00D-05  THROV=  1.00D-12  THRAOF12= 1.00D-10

 CPU time for Fock operators                      3.60 sec

 Construction of ABS:
 Smallest eigenvalue of S          1.10E-04  (threshold= 1.00E-08)
 Ratio eigmin/eigmax               1.56E-05  (threshold= 1.00E-09)
 Smallest eigenvalue of S kept     1.10E-04  (threshold= 1.10E-04, 0 functions deleted, 556 kept)

 Construction of CABS:
 Smallest eigenvalue of S          4.27E-07  (threshold= 1.00E-08)
 Ratio eigmin/eigmax               4.27E-07  (threshold= 1.00E-09)
 Smallest eigenvalue of S kept     4.27E-07  (threshold= 4.27E-07, 0 functions deleted, 556 kept)

 CPU time for CABS singles                        0.66 sec

 CABS-singles contribution of  -0.00236933 patched into reference energy.
 New reference energy        -116.27366048

 AO(A)-basis ORBITAL           loaded. Number of functions:     230
 RI(R)-basis RI                loaded. Number of functions:     556
 DF-basis MP2FIT               loaded. Number of functions:     816

 Screening thresholds:   THRAO=  1.00D-10  THRMO=  1.00D-09  THRPROD=  1.00D-09
                         THRSW=  1.00D-05  THROV=  1.00D-12  THRAOF12= 1.00D-10

 CPU time for 3-index integral evaluation         5.42 sec
 CPU time for first  half transformation          1.00 sec ( 2792.4 MFLOP/sec)
 CPU time for second half transformation          0.05 sec ( 1157.7 MFLOP/sec)
 CPU time for sorting                             0.08 sec
 CPU time for fitting                             0.51 sec ( 4261.5 MFLOP/sec)
 CPU time for tilde quantities                    0.62 sec ( 4450.5 MFLOP/sec)
 CPU time for assembly                            4.44 sec ( 4460.8 MFLOP/sec)
 CPU time for tranop_f12                          4.34 sec ( 4398.6 MFLOP/sec)
 CPU time for f12 integrals (total)              23.26 sec, Elapsed time:     24.09 sec
 F12-matrices built in  4 passes.
 F12-matrices built in  4 passes.
 F12-matrices built in  4 passes.
 F12-matrices built in  4 passes.
 FC-matrix built in  4 passes.
 CPU time for f12 matrices (total)                1.10 sec, Elapsed time:      1.15 sec

 Diagonal F12 approximation with fixed coefficients:  TSING= 0.500,  TTRIP= 0.250 (scaled by -1/beta)

 DF-MP2-F12 energy corrections:
 ==============================
 Approx.                                    Singlet             Triplet             Total
 DF-MP2-F12/3*C(DX,FIX)                -0.046168730147     -0.006801181773     -0.052969911921
 DF-MP2-F12/3*C(FIX)                   -0.039855188123     -0.005608364696     -0.045463552820
 DF-MP2-F12/3C(FIX)                    -0.039974136624     -0.005576269368     -0.045550405992

 DF-MP2-F12 correlation energies:
 ================================
 Approx.                                    Singlet             Triplet             Ecorr            Total Energy
 DF-MP2                                -0.317453018382     -0.154067790235     -0.471520808617   -116.745181291114
 DF-MP2-F12/3*C(DX,FIX)                -0.363621748529     -0.160868972009     -0.524490720537   -116.798151203034
 DF-MP2-F12/3*C(FIX)                   -0.357308206505     -0.159676154932     -0.516984361436   -116.790644843933
 DF-MP2-F12/3C(FIX)                    -0.357427155006     -0.159644059603     -0.517071214609   -116.790731697106

 SCS-DF-MP2 energies (F_SING= 1.20000  F_TRIP= 0.62222  F_PARALLEL= 0.33333):
 ============================================================================
 SCS-DF-MP2                            -0.476808024871   -116.750468507368
 SCS-DF-MP2-F12/3*C(DX,FIX)            -0.536442347484   -116.810102829981
 SCS-DF-MP2-F12/3*C(FIX)               -0.528123899763   -116.801784382260
 SCS-DF-MP2-F12/3C(FIX)                -0.528246667538   -116.801907150035
 Symmetry transformation completed.

 Number of N-1 electron functions:               8
 Number of N-2 electron functions:              36
 Number of singly external CSFs:              1760
 Number of doubly external CSFs:           1549680
 Total number of CSFs:                     1551441

 Pair and operator lists are different

 Length of J-op  integral file:             315.61 MB
 Length of K-op  integral file:             368.50 MB
 Length of 3-ext integral record:             0.00 MB

 Memory could be reduced to 116.32 Mwords without degradation in triples

 Integral transformation finished. Total CPU:  23.51 sec, npass=  1  Memory used:  59.34 MW

 Reference energy:                   -116.27366048

 Adding F12 terms to K(Cij), methodcc=6,  factor= 1.0

 ITER.      SQ.NORM     CORR.ENERGY   TOTAL ENERGY   ENERGY CHANGE        DEN1      VAR(S)    VAR(P)  DIIS     TIME  TIME/IT
   1      1.13200883    -0.48618889  -116.75984937    -0.01465108    -0.00304121  0.15D-02  0.20D-02  1  1    68.57    14.44
   2      1.14024989    -0.48645436  -116.76011484    -0.00026547    -0.00970686  0.28D-04  0.23D-03  2  2    83.06    14.60
   3      1.14310339    -0.48671166  -116.76037214    -0.00025730    -0.00194329  0.13D-04  0.12D-04  3  3    97.57    14.65
   4      1.14396960    -0.48676542  -116.76042590    -0.00005376    -0.00047759  0.53D-06  0.11D-05  4  4   112.10    14.68
   5      1.14411657    -0.48676022  -116.76042070     0.00000520    -0.00004021  0.21D-06  0.77D-07  5  5   126.54    14.70
   6      1.14415827    -0.48675711  -116.76041759     0.00000311    -0.00000642  0.20D-07  0.61D-08  6  6   141.11    14.72
   7      1.14416836    -0.48675636  -116.76041684     0.00000075    -0.00000268  0.18D-08  0.10D-08  6  2   155.57    14.73
   8      1.14417071    -0.48675621  -116.76041669     0.00000015    -0.00000038  0.36D-09  0.11D-09  6  1   170.04    14.75
   9      1.14417154    -0.48675629  -116.76041677    -0.00000008     0.00000001  0.33D-10  0.16D-10  6  3   184.51    14.76
  10      1.14417173    -0.48675628  -116.76041676     0.00000001     0.00000003  0.37D-11  0.23D-11  6  4   199.08    14.77
  11      1.14417167    -0.48675629  -116.76041677    -0.00000001     0.00000008  0.70D-12  0.30D-12  6  5   213.72    14.77
  12      1.14417165    -0.48675629  -116.76041677    -0.00000000     0.00000002  0.13D-12  0.40D-13  6  6   228.24    14.78
  13      1.14417162    -0.48675629  -116.76041677     0.00000000     0.00000001  0.21D-13  0.62D-14  6  2   242.79    14.78
  14      1.14417162    -0.48675629  -116.76041677    -0.00000000     0.00000000  0.30D-14  0.12D-14  6  1   257.35    14.79
  15      1.14417162    -0.48675629  -116.76041677    -0.00000000    -0.00000000  0.35D-15  0.15D-15  6  3   271.91    14.80
  16      1.14417162    -0.48675629  -116.76041677     0.00000000    -0.00000000  0.67D-16  0.24D-16  6  4   286.49    14.80
  17      1.14417162    -0.48675629  -116.76041677     0.00000000    -0.00000000  0.16D-16  0.48D-17  6  5   301.11    14.81

 Norm of t1 vector:      0.05068399      S-energy:     0.00000000      T1 diagnostic:  0.00895975
                                                                       D1 diagnostic:  0.01941640

 Adding energy correction from Wij-K(Fij), methodcc=6  factor= 1.0

  CCSD correlation energy              -0.486756288627
  MP2-F12 correction (uncoupled)       -0.045294702107
  C*T doubles correction               -0.000604862479
  f12b correction                       0.008415218758


 Total CPU time for triples:    218.86 sec

  Ecorr(MP2)                           -0.471537803956
  Ecorr(MP2-F12)                       -0.517088209948
  Scale factor for triples energy       1.096599690651


 RESULTS
 =======

  Reference energy                   -116.271291150687
  F12 singles correction               -0.002369331810

 F12 singles corrections added to reference energy

  New reference energy               -116.273660482497

  F12a singlet correction              -0.040229587126
  F12a triplet correction              -0.005669977460
  F12a total correction                -0.045899564586

 F12a corrections for ansatz F12/3C(FIX) added to CCSD energy

  CCSD-F12a singlet pair energy        -0.385979666846
  CCSD-F12a triplet pair energy        -0.146676186508
  CCSD-F12a correlation energy         -0.532655853213

  Triples (T) contribution (scaled)    -0.016533860004
  Total correlation energy             -0.549189713217

  CCSD-F12a total energy             -116.806316335710
  CCSD[T]-F12a energy                -116.823441950245
  CCSD-T-F12a energy                 -116.822630081811
 !CCSD(T)-F12a total energy          -116.822850195714

 F12b corrections for ansatz F12/3C(FIX) added to CCSD(T)-F12a energy

  CCSD-F12b singlet pair energy        -0.378096345556
  CCSD-F12b triplet pair energy        -0.146144289040
  CCSD-F12b correlation energy         -0.524240634455

  Triples (T) contribution (scaled)    -0.016533860004
  Total correlation energy             -0.540774494459

  CCSD-F12b total energy             -116.797901116952
  CCSD[T]-F12b energy                -116.815026731488
  CCSD-T-F12b energy                 -116.814214863053
 !CCSD(T)-F12b total energy          -116.814434976956

 Timing summary (sec):

 STEP                 CPU(USER)    SYS     CPU(TOT)    WALL
 Transformation         23.70      0.81     24.51     24.53
 CCSD iterations       246.89      4.54    251.43    251.76
 Triples               218.86      0.93    219.79    220.04
 MP2-F12                30.54      1.03     31.57     31.65
 F12b energy            11.18      0.23     11.41     11.42

 Program statistics:

 Available memory in ccsd:              1999999554
 Min. memory needed in ccsd:               4597329
 Max. memory used in ccsd:                 5918289
 Max. memory used in cckext:               4231061 (18 integral passes)



 **********************************************************************************************************************************
 DATASETS  * FILE   NREC   LENGTH (MB)   RECORD NAMES
              1      19      398.06       500      610      700      900      950      970     1000      129      960     1100   
                                          VAR    BASINP    GEOM    SYMINP    ZMAT    AOBASIS   BASIS     P2S    ABASIS      S 
                                         1400     1410     1200     1210     1080     1600     1650     1700     1380   
                                           T        V       H0       H01     AOSYM     SMH    MOLCAS    OPER     JKOP   

              2       6        5.03       700     1000      520     2100     7360     7350   
                                         GEOM     BASIS   MCVARS     RHF    F12ABS    EF12   

 PROGRAMS   *        TOTAL   CCSD(T)    HF-SCF       INT
 CPU TIMES  *       560.02    531.40     14.13     14.26
 REAL TIME  *       576.00 SEC
 DISK USED  *       570.60 MB (local),        7.97 GB (total)
 SF USED    *         1.36 GB
 GA USED    *         4.87 MB       (max)       0.00 MB       (current)
 **********************************************************************************************************************************

 Running procedure: SET_MONOMER1

 Dummy atoms: C1  H41  H42  H43  H44


 Recomputing one-electron integrals since nuclear charges changed


 PROGRAM * SEWARD (Integral evaluation for generally contracted gaussian basis sets)     Author: Roland Lindh, 1990

 Geometry written to block  1 of record 700


 Point group  C1  



 ATOMIC COORDINATES

 NR  ATOM    CHARGE       X              Y              Z

   1  O18     8.00  -12.011477193    0.742095449    6.107594835
   2  H35     1.00  -11.750694988   -0.413472076    4.697292228
   3  H36     1.00  -10.560734447    0.465061599    7.217053042
   4  C1      0.00   -6.193010455    2.801518980    2.403542658
   5  H41     0.00   -4.656285171    1.699997622    3.119937832
   6  H42     0.00   -5.973046335    4.726205038    2.982932688
   7  H43     0.00   -7.940251230    2.077186956    3.118237078
   8  H44     0.00   -6.176569838    2.685300823    0.384937212

 Bond lengths in Bohr (Angstrom)

 1-2  1.841818967  1-3  1.847241128  4-5  2.021904040  4-6  2.022002335  4-7  2.021953343
     ( 0.974648624)     ( 0.977517908)     ( 1.069945541)     ( 1.069997556)     ( 1.069971630)

 4-8  2.022015060
     ( 1.070004290)

 Bond angles

  2-1-3  104.74973043   5-4-6  109.53398059   5-4-7  109.65604535   5-4-8  108.43490854

  6-4-7  109.49436728   6-4-8  109.86987750   7-4-8  109.83468330

 NUCLEAR CHARGE:                   10
 NUMBER OF PRIMITIVE AOS:         296
 NUMBER OF SYMMETRY AOS:          266
 NUMBER OF CONTRACTIONS:          230   (  230A   )
 NUMBER OF CORE ORBITALS:           1   (    1A   )
 NUMBER OF VALENCE ORBITALS:        6   (    6A   )

 MOLECULE CHANGED: INITIALIZING OCCUPATION AND DUMP RECORDS


 NUCLEAR REPULSION ENERGY    9.01656758

 Basis set:  JKFIT                   
 Basis size:   740
 Attributes:
 Sphericals:   T
 Basis set:  MP2FIT                  
 Basis size:   816
 Attributes:
 Sphericals:   T
 Basis set:  RI                      
 Basis size:   556
 Attributes:
 Sphericals:   T
 Basis set:  TDDFT                   
 Basis size:   816
 Attributes:
 Sphericals:   T

 Eigenvalues of metric

         1 0.349E-04 0.743E-04 0.993E-04 0.104E-03 0.326E-03 0.373E-03 0.459E-03 0.620E-03


 Contracted 2-electron integrals neglected if value below      1.0D-14

 OPERATOR DM      FOR CENTER  0  COORDINATES:    0.000000    0.000000    0.000000


 **********************************************************************************************************************************
 DATASETS  * FILE   NREC   LENGTH (MB)   RECORD NAMES
              1      18       32.04       500      610      700      900      950      970     1000      129      960     1100   
                                          VAR    BASINP    GEOM    SYMINP    ZMAT    AOBASIS   BASIS     P2S    ABASIS      S 
                                         1400     1410     1200     1210     1080     1600     1650     1700   
                                           T        V       H0       H01     AOSYM     SMH    MOLCAS    OPER   

              2       7        5.05       700     1000      520     2100     7360     7350      200   
                                         GEOM     BASIS   MCVARS     RHF    F12ABS    EF12    OPTIONS    

 PROGRAMS   *        TOTAL       INT   CCSD(T)    HF-SCF       INT
 CPU TIMES  *       560.25      0.21    531.40     14.13     14.26
 REAL TIME  *       576.75 SEC
 DISK USED  *       570.60 MB (local),        7.97 GB (total)
 SF USED    *         1.36 GB
 GA USED    *         4.87 MB       (max)       0.00 MB       (current)
 **********************************************************************************************************************************


 PROGRAM * RHF-SCF (CLOSED SHELL)       Authors: W. Meyer, H.-J. Werner


 NUMBER OF ELECTRONS:       5+    5-    SPACE SYMMETRY=1    SPIN SYMMETRY: Singlet 
 CONVERGENCE THRESHOLDS:    1.00E-08 (Density)    1.00E-11 (Energy)
 MAX. NUMBER OF ITERATIONS:       60
 INTERPOLATION TYPE:            DIIS
 INTERPOLATION STEPS:              2 (START)      1 (STEP)
 LEVEL SHIFTS:                  0.00 (CLOSED)  0.00 (OPEN) 



 Orbital guess generated from atomic densities. Full valence occupancy:    7

 Molecular orbital dump at record        2101.2

 Initial occupancy:   5

 ITERATION    DDIFF          GRAD             ENERGY        2-EL.EN.            DIPOLE MOMENTS         DIIS   ORB.
    1      0.000D+00      0.000D+00       -76.02053968     77.399704    0.87670   -0.73326   -0.15326    0    start
    2      0.000D+00      0.640D-02       -76.04722680     73.778686    0.51000   -0.42725   -0.09001    1    diag
    3      0.448D-02      0.407D-02       -76.05855105     75.379546    0.60090   -0.50320   -0.10587    2    diag
    4      0.161D-02      0.376D-03       -76.05874093     75.290108    0.59742   -0.50040   -0.10542    3    diag
    5      0.203D-03      0.104D-03       -76.05876078     75.304282    0.59611   -0.49935   -0.10526    4    diag
    6      0.635D-04      0.203D-04       -76.05876200     75.303419    0.59587   -0.49916   -0.10524    5    diag
    7      0.160D-04      0.399D-05       -76.05876206     75.303545    0.59578   -0.49909   -0.10523    6    diag
    8      0.419D-05      0.734D-06       -76.05876206     75.303531    0.59575   -0.49906   -0.10522    7    diag
    9      0.683D-06      0.921D-07       -76.05876206     75.303522    0.59574   -0.49906   -0.10522    8    diag
   10      0.922D-07      0.223D-07       -76.05876206     75.303526    0.59574   -0.49906   -0.10522    9    orth
   11      0.228D-07      0.410D-08       -76.05876206     75.303525    0.59574   -0.49906   -0.10522    9    diag
   12      0.470D-08      0.601D-09       -76.05876206     75.303525    0.59574   -0.49906   -0.10522    0    orth

 Final occupancy:   5

 !RHF STATE  1.1 Energy               -76.058762063463
 Nuclear energy                         9.01656758
 One-electron energy                 -122.72709204
 Two-electron energy                   37.65176239
 Virial quotient                       -1.00228055
 !RHF STATE  1.1 Dipole moment          0.59574465    -0.49906082    -0.10522267
 Dipole moment /Debye                   1.51413268    -1.26840299    -0.26743183

 Orbital energies:

         1.1          2.1          3.1          4.1          5.1          6.1          7.1
    -20.570311    -1.343864    -0.708024    -0.580829    -0.508754     0.019052     0.039402


 HOMO      5.1    -0.508754 =     -13.8439eV
 LUMO      6.1     0.019052 =       0.5184eV
 LUMO-HOMO         0.527807 =      14.3624eV


 **********************************************************************************************************************************
 DATASETS  * FILE   NREC   LENGTH (MB)   RECORD NAMES
              1      18       32.04       500      610      700      900      950      970     1000      129      960     1100   
                                          VAR    BASINP    GEOM    SYMINP    ZMAT    AOBASIS   BASIS     P2S    ABASIS      S 
                                         1400     1410     1200     1210     1080     1600     1650     1700   
                                           T        V       H0       H01     AOSYM     SMH    MOLCAS    OPER   

              2       8        9.09       700     1000      520     2100     7360     7350      200     2101   
                                         GEOM     BASIS   MCVARS     RHF    F12ABS    EF12    OPTIONS    RHF  

 PROGRAMS   *        TOTAL    HF-SCF       INT   CCSD(T)    HF-SCF       INT
 CPU TIMES  *       573.35     13.11      0.21    531.40     14.13     14.26
 REAL TIME  *       591.84 SEC
 DISK USED  *       570.60 MB (local),        7.97 GB (total)
 SF USED    *         1.36 GB
 GA USED    *         4.87 MB       (max)       0.00 MB       (current)
 **********************************************************************************************************************************

 Basis set:  JKFIT                   
 Basis size:   740
 Attributes:
 Sphericals:   T
 Basis set:  MP2FIT                  
 Basis size:   816
 Attributes:
 Sphericals:   T
 Basis set:  RI                      
 Basis size:   556
 Attributes:
 Sphericals:   T
 Basis set:  TDDFT                   
 Basis size:   816
 Attributes:
 Sphericals:   T

 PROGRAM * CCSD (Closed-shell coupled cluster)     Authors: C. Hampel, H.-J. Werner, 1991, M. Deegan, P.J. Knowles, 1992

                                  CCSD-F12 implementation by  H.-J. Werner, 2007

                   Density fitting integral evaluation by F.R. Manby, 2003,2007, G. Knizia, 2010



 Convergence thresholds:  THRVAR = 1.00D-08  THRDEN = 1.00D-10

 CCSD(T)     terms to be evaluated (factor= 1.000)


 Number of core orbitals:           1 (   1 )
 Number of closed-shell orbitals:   4 (   4 )
 Number of external orbitals:     225 ( 225 )

 Molecular orbitals read from record     2101.2  Type=RHF/CANONICAL (state 1.1)

 MP2-F12 correlation treatment (H.-J. Werner, 2006)
 ==================================================

 Using MP2-F12 with ansatz 3C(FIX)

 Using projected zeroth-order Hamiltonian (+Z)

 FOCKRIB=T FOCKRIC=T FOCKRIP=T CABSP=T CABSA=T CABSK=T CABSF=T GBC=F EBC=F DMAT=T NOFIK=T NOPAO=1 SOLVE=-1  USEPAO=0
 EXCH_A= T EXCH_B= F EXCH_C= F EXCH_P= F

 Geminal basis:    OPTFULL  GEM_TYPE=SLATER  BETA=1.0  NGEM=6

 Optimizing Gaussian exponents for each gem_beta

 Geminal optimization for beta= 1.0000
 Weight function:   m=0, omega= 1.4646

 Augmented Hessian optimization of geminal fit. Trust ratio= 0.40000
 Convergence reached after   2 iterations. Final gradient= 8.31D-16, Step= 4.24D-06, Delta= 1.28D-09

 Alpha:                 0.19532     0.81920     2.85917     9.50073    35.69989   197.79328
 Coeff:                 0.27070     0.30552     0.18297     0.10986     0.06810     0.04224


 All pairs explicitly correlated. Number of r12-pairs:           10

 Excluding core orbitals from MO domains

 AO(A)-basis ORBITAL           loaded. Number of functions:     230
 RI(R)-basis RI                loaded. Number of functions:     556
 DF-basis JKFIT                loaded. Number of functions:     740

 Screening thresholds:   THRAO=  1.00D-10  THRMO=  1.00D-09  THRPROD=  1.00D-09
                         THRSW=  1.00D-05  THROV=  1.00D-12  THRAOF12= 1.00D-10

 CPU time for Fock operators                      3.01 sec

 Construction of ABS:
 Smallest eigenvalue of S          1.10E-04  (threshold= 1.00E-08)
 Ratio eigmin/eigmax               1.56E-05  (threshold= 1.00E-09)
 Smallest eigenvalue of S kept     1.10E-04  (threshold= 1.10E-04, 0 functions deleted, 556 kept)

 Construction of CABS:
 Smallest eigenvalue of S          4.27E-07  (threshold= 1.00E-08)
 Ratio eigmin/eigmax               4.27E-07  (threshold= 1.00E-09)
 Smallest eigenvalue of S kept     4.27E-07  (threshold= 4.27E-07, 0 functions deleted, 556 kept)

 CPU time for CABS singles                        0.68 sec

 CABS-singles contribution of  -0.00146238 patched into reference energy.
 New reference energy         -76.06022444

 AO(A)-basis ORBITAL           loaded. Number of functions:     230
 RI(R)-basis RI                loaded. Number of functions:     556
 DF-basis MP2FIT               loaded. Number of functions:     816

 Screening thresholds:   THRAO=  1.00D-10  THRMO=  1.00D-09  THRPROD=  1.00D-09
                         THRSW=  1.00D-05  THROV=  1.00D-12  THRAOF12= 1.00D-10

 CPU time for 3-index integral evaluation         5.18 sec
 CPU time for first  half transformation          0.74 sec ( 1888.2 MFLOP/sec)
 CPU time for second half transformation          0.02 sec (  634.3 MFLOP/sec)
 CPU time for sorting                             0.05 sec
 CPU time for fitting                             0.30 sec ( 1065.4 MFLOP/sec)
 CPU time for tilde quantities                    0.50 sec ( 4200.2 MFLOP/sec)
 CPU time for assembly                            1.39 sec ( 3536.4 MFLOP/sec)
 CPU time for tranop_f12                          1.25 sec ( 3901.8 MFLOP/sec)
 CPU time for f12 integrals (total)              11.66 sec, Elapsed time:     12.00 sec
 F12-matrices built in  4 passes.
 F12-matrices built in  4 passes.
 F12-matrices built in  4 passes.
 F12-matrices built in  4 passes.
 FC-matrix built in  4 passes.
 CPU time for f12 matrices (total)                0.25 sec, Elapsed time:      0.28 sec

 Diagonal F12 approximation with fixed coefficients:  TSING= 0.500,  TTRIP= 0.250 (scaled by -1/beta)

 DF-MP2-F12 energy corrections:
 ==============================
 Approx.                                    Singlet             Triplet             Total
 DF-MP2-F12/3*C(DX,FIX)                -0.029447614945     -0.004860051251     -0.034307666196
 DF-MP2-F12/3*C(FIX)                   -0.024374574007     -0.003806092747     -0.028180666754
 DF-MP2-F12/3C(FIX)                    -0.024505205438     -0.003781522497     -0.028286727935

 DF-MP2-F12 correlation energies:
 ================================
 Approx.                                    Singlet             Triplet             Ecorr            Total Energy
 DF-MP2                                -0.171767057261     -0.098239801835     -0.270006859095    -76.330231298771
 DF-MP2-F12/3*C(DX,FIX)                -0.201214672205     -0.103099853085     -0.304314525291    -76.364538964966
 DF-MP2-F12/3*C(FIX)                   -0.196141631268     -0.102045894582     -0.298187525849    -76.358411965525
 DF-MP2-F12/3C(FIX)                    -0.196272262698     -0.102021324332     -0.298293587031    -76.358518026706

 SCS-DF-MP2 energies (F_SING= 1.20000  F_TRIP= 0.62222  F_PARALLEL= 0.33333):
 ============================================================================
 SCS-DF-MP2                            -0.267247456521    -76.327471896197
 SCS-DF-MP2-F12/3*C(DX,FIX)            -0.305608626344    -76.365833066020
 SCS-DF-MP2-F12/3*C(FIX)               -0.298865180816    -76.359089620492
 SCS-DF-MP2-F12/3C(FIX)                -0.299006650378    -76.359231090054
 Symmetry transformation completed.

 Number of N-1 electron functions:               4
 Number of N-2 electron functions:              10
 Number of singly external CSFs:               900
 Number of doubly external CSFs:            405450
 Total number of CSFs:                      406351

 Pair and operator lists are different

 Length of J-op  integral file:              81.60 MB
 Length of K-op  integral file:             128.10 MB
 Length of 3-ext integral record:             0.00 MB

 Memory could be reduced to 75.63 Mwords without degradation in triples

 Integral transformation finished. Total CPU:  12.15 sec, npass=  1  Memory used:  32.52 MW

 Reference energy:                    -76.06022444

 Adding F12 terms to K(Cij), methodcc=6,  factor= 1.0

 ITER.      SQ.NORM     CORR.ENERGY   TOTAL ENERGY   ENERGY CHANGE        DEN1      VAR(S)    VAR(P)  DIIS     TIME  TIME/IT
   1      1.06222251    -0.26963814   -76.32986258     0.00037609     0.00630364  0.79D-03  0.10D-02  1  1    33.24     3.97
   2      1.06563322    -0.26931353   -76.32953797     0.00032461    -0.00462211  0.13D-04  0.11D-03  2  2    37.09     4.02
   3      1.06686228    -0.26943467   -76.32965911    -0.00012114    -0.00082331  0.92D-05  0.60D-05  3  3    41.00     4.03
   4      1.06734847    -0.26947128   -76.32969571    -0.00003660    -0.00027502  0.42D-06  0.66D-06  4  4    44.92     4.04
   5      1.06744166    -0.26946851   -76.32969295     0.00000276    -0.00002920  0.16D-06  0.46D-07  5  5    48.80     4.05
   6      1.06747299    -0.26946639   -76.32969083     0.00000212    -0.00000428  0.17D-07  0.36D-08  6  6    52.65     4.05
   7      1.06748092    -0.26946609   -76.32969053     0.00000029    -0.00000161  0.14D-08  0.82D-09  6  2    56.52     4.06
   8      1.06748253    -0.26946598   -76.32969042     0.00000011    -0.00000005  0.24D-09  0.85D-10  6  1    60.42     4.06
   9      1.06748312    -0.26946604   -76.32969048    -0.00000006     0.00000008  0.21D-10  0.87D-11  6  3    64.29     4.06
  10      1.06748329    -0.26946603   -76.32969047     0.00000001    -0.00000001  0.28D-11  0.13D-11  6  4    68.18     4.06
  11      1.06748327    -0.26946603   -76.32969047    -0.00000000     0.00000003  0.62D-12  0.17D-12  6  5    72.13     4.06
  12      1.06748327    -0.26946603   -76.32969047    -0.00000000     0.00000001  0.12D-12  0.34D-13  6  1    76.05     4.06
  13      1.06748326    -0.26946603   -76.32969047    -0.00000000     0.00000000  0.14D-13  0.41D-14  6  6    79.92     4.06
  14      1.06748325    -0.26946603   -76.32969047    -0.00000000     0.00000000  0.17D-14  0.70D-15  6  2    83.71     4.06
  15      1.06748325    -0.26946603   -76.32969047    -0.00000000     0.00000000  0.24D-15  0.11D-15  6  3    87.56     4.07
  16      1.06748325    -0.26946603   -76.32969047     0.00000000     0.00000000  0.33D-16  0.18D-16  6  4    91.49     4.07
  17      1.06748325    -0.26946603   -76.32969047    -0.00000000     0.00000000  0.35D-17  0.26D-17  6  5    95.33     4.07

 Norm of t1 vector:      0.03692062      S-energy:     0.00000000      T1 diagnostic:  0.00923015
                                                                       D1 diagnostic:  0.01836605

 Adding energy correction from Wij-K(Fij), methodcc=6  factor= 1.0

  CCSD correlation energy              -0.269466034121
  MP2-F12 correction (uncoupled)       -0.028021681569
  C*T doubles correction               -0.000411494036
  f12b correction                       0.004750292519


 Total CPU time for triples:     34.23 sec

  Ecorr(MP2)                           -0.270014227203
  Ecorr(MP2-F12)                       -0.298300955138
  Scale factor for triples energy       1.104760138858


 RESULTS
 =======

  Reference energy                    -76.058762063463
  F12 singles correction               -0.001462376213

 F12 singles corrections added to reference energy

  New reference energy                -76.060224439676

  F12a singlet correction              -0.024582963338
  F12a triplet correction              -0.003850212268
  F12a total correction                -0.028433175606

 F12a corrections for ansatz F12/3C(FIX) added to CCSD energy

  CCSD-F12a singlet pair energy        -0.207298493616
  CCSD-F12a triplet pair energy        -0.090600716145
  CCSD-F12a correlation energy         -0.297899209727

  Triples (T) contribution (scaled)    -0.009531097522
  Total correlation energy             -0.307430307249

  CCSD-F12a total energy              -76.358123649403
  CCSD[T]-F12a energy                 -76.368001088332
  CCSD-T-F12a energy                  -76.367512392636
 !CCSD(T)-F12a total energy           -76.367654746925

 F12b corrections for ansatz F12/3C(FIX) added to CCSD(T)-F12a energy

  CCSD-F12b singlet pair energy        -0.202906327098
  CCSD-F12b triplet pair energy        -0.090242590144
  CCSD-F12b correlation energy         -0.293148917208

  Triples (T) contribution (scaled)    -0.009531097522
  Total correlation energy             -0.302680014730

  CCSD-F12b total energy              -76.353373356884
  CCSD[T]-F12b energy                 -76.363250795813
  CCSD-T-F12b energy                  -76.362762100117
 !CCSD(T)-F12b total energy           -76.362904454406

 Timing summary (sec):

 STEP                 CPU(USER)    SYS     CPU(TOT)    WALL
 Transformation         12.21      0.45     12.66     12.67
 CCSD iterations        65.94      3.20     69.14     69.21
 Triples                34.23      0.16     34.39     34.43
 MP2-F12                17.20      0.46     17.66     17.68
 F12b energy             3.28      0.15      3.43      3.44

 Program statistics:

 Available memory in ccsd:              1999999871
 Min. memory needed in ccsd:               1862772
 Max. memory used in ccsd:                 2158322
 Max. memory used in cckext:               1445635 (18 integral passes)



 **********************************************************************************************************************************
 DATASETS  * FILE   NREC   LENGTH (MB)   RECORD NAMES
              1      19      222.31       500      610      700      900      950      970     1000      129      960     1100   
                                          VAR    BASINP    GEOM    SYMINP    ZMAT    AOBASIS   BASIS     P2S    ABASIS      S 
                                         1400     1410     1200     1210     1080     1600     1650     1700     1380   
                                           T        V       H0       H01     AOSYM     SMH    MOLCAS    OPER     JKOP   

              2       8        9.09       700     1000      520     2100     7360     7350      200     2101   
                                         GEOM     BASIS   MCVARS     RHF    F12ABS    EF12    OPTIONS    RHF  

 PROGRAMS   *        TOTAL   CCSD(T)    HF-SCF       INT   CCSD(T)    HF-SCF       INT
 CPU TIMES  *       706.43    133.08     13.11      0.21    531.40     14.13     14.26
 REAL TIME  *       730.01 SEC
 DISK USED  *       570.60 MB (local),        7.97 GB (total)
 SF USED    *         1.36 GB
 GA USED    *         4.87 MB       (max)       0.00 MB       (current)
 **********************************************************************************************************************************

 Running procedure: SET_MONOMER2

 Dummy atoms: O18  H35  H36


 Recomputing one-electron integrals since nuclear charges changed


 PROGRAM * SEWARD (Integral evaluation for generally contracted gaussian basis sets)     Author: Roland Lindh, 1990

 Geometry written to block  1 of record 700


 Point group  C1  



 ATOMIC COORDINATES

 NR  ATOM    CHARGE       X              Y              Z

   1  O18     0.00  -12.011477193    0.742095449    6.107594835
   2  H35     0.00  -11.750694988   -0.413472076    4.697292228
   3  H36     0.00  -10.560734447    0.465061599    7.217053042
   4  C1      6.00   -6.193010455    2.801518980    2.403542658
   5  H41     1.00   -4.656285171    1.699997622    3.119937832
   6  H42     1.00   -5.973046335    4.726205038    2.982932688
   7  H43     1.00   -7.940251230    2.077186956    3.118237078
   8  H44     1.00   -6.176569838    2.685300823    0.384937212

 Bond lengths in Bohr (Angstrom)

 1-2  1.841818967  1-3  1.847241128  4-5  2.021904040  4-6  2.022002335  4-7  2.021953343
     ( 0.974648624)     ( 0.977517908)     ( 1.069945541)     ( 1.069997556)     ( 1.069971630)

 4-8  2.022015060
     ( 1.070004290)

 Bond angles

  2-1-3  104.74973043   5-4-6  109.53398059   5-4-7  109.65604535   5-4-8  108.43490854

  6-4-7  109.49436728   6-4-8  109.86987750   7-4-8  109.83468330

 NUCLEAR CHARGE:                   10
 NUMBER OF PRIMITIVE AOS:         296
 NUMBER OF SYMMETRY AOS:          266
 NUMBER OF CONTRACTIONS:          230   (  230A   )
 NUMBER OF CORE ORBITALS:           1   (    1A   )
 NUMBER OF VALENCE ORBITALS:        8   (    8A   )

 MOLECULE CHANGED: INITIALIZING OCCUPATION AND DUMP RECORDS


 NUCLEAR REPULSION ENERGY   13.68681606

 Basis set:  JKFIT                   
 Basis size:   740
 Attributes:
 Sphericals:   T
 Basis set:  MP2FIT                  
 Basis size:   816
 Attributes:
 Sphericals:   T
 Basis set:  RI                      
 Basis size:   556
 Attributes:
 Sphericals:   T
 Basis set:  TDDFT                   
 Basis size:   816
 Attributes:
 Sphericals:   T

 Eigenvalues of metric

         1 0.349E-04 0.743E-04 0.993E-04 0.104E-03 0.326E-03 0.373E-03 0.459E-03 0.620E-03


 Contracted 2-electron integrals neglected if value below      1.0D-14

 OPERATOR DM      FOR CENTER  0  COORDINATES:    0.000000    0.000000    0.000000


 **********************************************************************************************************************************
 DATASETS  * FILE   NREC   LENGTH (MB)   RECORD NAMES
              1      18       32.04       500      610      700      900      950      970     1000      129      960     1100   
                                          VAR    BASINP    GEOM    SYMINP    ZMAT    AOBASIS   BASIS     P2S    ABASIS      S 
                                         1400     1410     1200     1210     1080     1600     1650     1700   
                                           T        V       H0       H01     AOSYM     SMH    MOLCAS    OPER   

              2       8        9.09       700     1000      520     2100     7360     7350      200     2101   
                                         GEOM     BASIS   MCVARS     RHF    F12ABS    EF12    OPTIONS    RHF  

 PROGRAMS   *        TOTAL       INT   CCSD(T)    HF-SCF       INT   CCSD(T)    HF-SCF       INT
 CPU TIMES  *       706.68      0.24    133.08     13.11      0.21    531.40     14.13     14.26
 REAL TIME  *       730.73 SEC
 DISK USED  *       570.60 MB (local),        7.97 GB (total)
 SF USED    *         1.36 GB
 GA USED    *         4.87 MB       (max)       0.00 MB       (current)
 **********************************************************************************************************************************


 PROGRAM * RHF-SCF (CLOSED SHELL)       Authors: W. Meyer, H.-J. Werner


 NUMBER OF ELECTRONS:       5+    5-    SPACE SYMMETRY=1    SPIN SYMMETRY: Singlet 
 CONVERGENCE THRESHOLDS:    1.00E-08 (Density)    1.00E-11 (Energy)
 MAX. NUMBER OF ITERATIONS:       60
 INTERPOLATION TYPE:            DIIS
 INTERPOLATION STEPS:              2 (START)      1 (STEP)
 LEVEL SHIFTS:                  0.00 (CLOSED)  0.00 (OPEN) 



 Orbital guess generated from atomic densities. Full valence occupancy:    9

 Molecular orbital dump at record        2102.2

 Initial occupancy:   5

 ITERATION    DDIFF          GRAD             ENERGY        2-EL.EN.            DIPOLE MOMENTS         DIIS   ORB.
    1      0.000D+00      0.000D+00       -40.19359281     53.494057    0.00408   -0.00277   -0.00129    0    start
    2      0.000D+00      0.353D-02       -40.21071107     52.213682    0.00125   -0.00090   -0.00037    1    diag
    3      0.328D-02      0.137D-02       -40.21295966     52.664865    0.00179   -0.00126   -0.00054    2    diag
    4      0.924D-03      0.342D-03       -40.21327513     52.609846    0.00160   -0.00112   -0.00047    3    diag
    5      0.308D-03      0.444D-04       -40.21328053     52.612180    0.00157   -0.00110   -0.00046    4    diag
    6      0.823D-04      0.345D-05       -40.21328057     52.612279    0.00157   -0.00110   -0.00046    5    diag
    7      0.699D-05      0.265D-06       -40.21328057     52.612244    0.00157   -0.00110   -0.00046    6    diag
    8      0.103D-05      0.222D-07       -40.21328057     52.612245    0.00157   -0.00110   -0.00046    7    diag
    9      0.190D-06      0.287D-08       -40.21328057     52.612245    0.00157   -0.00110   -0.00046    8    diag
   10      0.103D-07      0.802D-09       -40.21328057     52.612245    0.00157   -0.00110   -0.00046    9    orth
   11      0.121D-08      0.107D-09       -40.21328057     52.612245    0.00157   -0.00110   -0.00046    0    orth

 Final occupancy:   5

 !RHF STATE  1.1 Energy               -40.213280569570
 Nuclear energy                        13.68681606
 One-electron energy                  -80.20621914
 Two-electron energy                   26.30612252
 Virial quotient                       -0.99869505
 !RHF STATE  1.1 Dipole moment          0.00156623    -0.00110261    -0.00045991
 Dipole moment /Debye                   0.00398069    -0.00280238    -0.00116890

 Orbital energies:

         1.1          2.1          3.1          4.1          5.1          6.1          7.1
    -11.197209    -0.950743    -0.551695    -0.549761    -0.547580     0.026713     0.042726


 HOMO      5.1    -0.547580 =     -14.9004eV
 LUMO      6.1     0.026713 =       0.7269eV
 LUMO-HOMO         0.574293 =      15.6273eV


 **********************************************************************************************************************************
 DATASETS  * FILE   NREC   LENGTH (MB)   RECORD NAMES
              1      18       32.04       500      610      700      900      950      970     1000      129      960     1100   
                                          VAR    BASINP    GEOM    SYMINP    ZMAT    AOBASIS   BASIS     P2S    ABASIS      S 
                                         1400     1410     1200     1210     1080     1600     1650     1700   
                                           T        V       H0       H01     AOSYM     SMH    MOLCAS    OPER   

              2       9       13.71       700     1000      520     2100     7360     7350      200     2101     2102   
                                         GEOM     BASIS   MCVARS     RHF    F12ABS    EF12    OPTIONS    RHF      RHF  

 PROGRAMS   *        TOTAL    HF-SCF       INT   CCSD(T)    HF-SCF       INT   CCSD(T)    HF-SCF       INT
 CPU TIMES  *       718.89     12.21      0.24    133.08     13.11      0.21    531.40     14.13     14.26
 REAL TIME  *       744.71 SEC
 DISK USED  *       570.60 MB (local),        7.97 GB (total)
 SF USED    *         1.36 GB
 GA USED    *         4.87 MB       (max)       0.00 MB       (current)
 **********************************************************************************************************************************

 Basis set:  JKFIT                   
 Basis size:   740
 Attributes:
 Sphericals:   T
 Basis set:  MP2FIT                  
 Basis size:   816
 Attributes:
 Sphericals:   T
 Basis set:  RI                      
 Basis size:   556
 Attributes:
 Sphericals:   T
 Basis set:  TDDFT                   
 Basis size:   816
 Attributes:
 Sphericals:   T

 PROGRAM * CCSD (Closed-shell coupled cluster)     Authors: C. Hampel, H.-J. Werner, 1991, M. Deegan, P.J. Knowles, 1992

                                  CCSD-F12 implementation by  H.-J. Werner, 2007

                   Density fitting integral evaluation by F.R. Manby, 2003,2007, G. Knizia, 2010



 Convergence thresholds:  THRVAR = 1.00D-08  THRDEN = 1.00D-10

 CCSD(T)     terms to be evaluated (factor= 1.000)


 Number of core orbitals:           1 (   1 )
 Number of closed-shell orbitals:   4 (   4 )
 Number of external orbitals:     225 ( 225 )

 Molecular orbitals read from record     2102.2  Type=RHF/CANONICAL (state 1.1)

 MP2-F12 correlation treatment (H.-J. Werner, 2006)
 ==================================================

 Using MP2-F12 with ansatz 3C(FIX)

 Using projected zeroth-order Hamiltonian (+Z)

 FOCKRIB=T FOCKRIC=T FOCKRIP=T CABSP=T CABSA=T CABSK=T CABSF=T GBC=F EBC=F DMAT=T NOFIK=T NOPAO=1 SOLVE=-1  USEPAO=0
 EXCH_A= T EXCH_B= F EXCH_C= F EXCH_P= F

 Geminal basis:    OPTFULL  GEM_TYPE=SLATER  BETA=1.0  NGEM=6

 Optimizing Gaussian exponents for each gem_beta

 Geminal optimization for beta= 1.0000
 Weight function:   m=0, omega= 1.4646

 Augmented Hessian optimization of geminal fit. Trust ratio= 0.40000
 Convergence reached after   2 iterations. Final gradient= 7.85D-16, Step= 4.26D-06, Delta= 1.28D-09

 Alpha:                 0.19532     0.81920     2.85917     9.50073    35.69989   197.79328
 Coeff:                 0.27070     0.30552     0.18297     0.10986     0.06810     0.04224


 All pairs explicitly correlated. Number of r12-pairs:           10

 Excluding core orbitals from MO domains

 AO(A)-basis ORBITAL           loaded. Number of functions:     230
 RI(R)-basis RI                loaded. Number of functions:     556
 DF-basis JKFIT                loaded. Number of functions:     740

 Screening thresholds:   THRAO=  1.00D-10  THRMO=  1.00D-09  THRPROD=  1.00D-09
                         THRSW=  1.00D-05  THROV=  1.00D-12  THRAOF12= 1.00D-10

 CPU time for Fock operators                      3.05 sec

 Construction of ABS:
 Smallest eigenvalue of S          1.10E-04  (threshold= 1.00E-08)
 Ratio eigmin/eigmax               1.56E-05  (threshold= 1.00E-09)
 Smallest eigenvalue of S kept     1.10E-04  (threshold= 1.10E-04, 0 functions deleted, 556 kept)

 Construction of CABS:
 Smallest eigenvalue of S          4.27E-07  (threshold= 1.00E-08)
 Ratio eigmin/eigmax               4.27E-07  (threshold= 1.00E-09)
 Smallest eigenvalue of S kept     4.27E-07  (threshold= 4.27E-07, 0 functions deleted, 556 kept)

 CPU time for CABS singles                        0.67 sec

 CABS-singles contribution of  -0.00090686 patched into reference energy.
 New reference energy         -40.21418743

 AO(A)-basis ORBITAL           loaded. Number of functions:     230
 RI(R)-basis RI                loaded. Number of functions:     556
 DF-basis MP2FIT               loaded. Number of functions:     816

 Screening thresholds:   THRAO=  1.00D-10  THRMO=  1.00D-09  THRPROD=  1.00D-09
                         THRSW=  1.00D-05  THROV=  1.00D-12  THRAOF12= 1.00D-10

 CPU time for 3-index integral evaluation         5.48 sec
 CPU time for first  half transformation          0.62 sec ( 2236.5 MFLOP/sec)
 CPU time for second half transformation          0.01 sec ( 1235.6 MFLOP/sec)
 CPU time for sorting                             0.02 sec
 CPU time for fitting                             0.35 sec ( 3028.7 MFLOP/sec)
 CPU time for tilde quantities                    0.49 sec ( 3674.4 MFLOP/sec)
 CPU time for assembly                            1.36 sec ( 3614.4 MFLOP/sec)
 CPU time for tranop_f12                          1.22 sec ( 3714.6 MFLOP/sec)
 CPU time for f12 integrals (total)              11.71 sec, Elapsed time:     12.02 sec
 F12-matrices built in  4 passes.
 F12-matrices built in  4 passes.
 F12-matrices built in  4 passes.
 F12-matrices built in  4 passes.
 FC-matrix built in  4 passes.
 CPU time for f12 matrices (total)                0.27 sec, Elapsed time:      0.27 sec

 Diagonal F12 approximation with fixed coefficients:  TSING= 0.500,  TTRIP= 0.250 (scaled by -1/beta)

 DF-MP2-F12 energy corrections:
 ==============================
 Approx.                                    Singlet             Triplet             Total
 DF-MP2-F12/3*C(DX,FIX)                -0.016677212764     -0.001924036452     -0.018601249217
 DF-MP2-F12/3*C(FIX)                   -0.015439025652     -0.001781917018     -0.017220942671
 DF-MP2-F12/3C(FIX)                    -0.015427892968     -0.001773631343     -0.017201524310

 DF-MP2-F12 correlation energies:
 ================================
 Approx.                                    Singlet             Triplet             Ecorr            Total Energy
 DF-MP2                                -0.145469396311     -0.055069560669     -0.200538956979    -40.414726386406
 DF-MP2-F12/3*C(DX,FIX)                -0.162146609075     -0.056993597121     -0.219140206196    -40.433327635623
 DF-MP2-F12/3*C(FIX)                   -0.160908421963     -0.056851477687     -0.217759899650    -40.431947329077
 DF-MP2-F12/3C(FIX)                    -0.160897289278     -0.056843192011     -0.217740481290    -40.431927910716

 SCS-DF-MP2 energies (F_SING= 1.20000  F_TRIP= 0.62222  F_PARALLEL= 0.33333):
 ============================================================================
 SCS-DF-MP2                            -0.208828779989    -40.423016209416
 SCS-DF-MP2-F12/3*C(DX,FIX)            -0.230038613543    -40.444226042970
 SCS-DF-MP2-F12/3*C(FIX)               -0.228464359138    -40.442651788565
 SCS-DF-MP2-F12/3C(FIX)                -0.228445844386    -40.442633273812
 Symmetry transformation completed.

 Number of N-1 electron functions:               4
 Number of N-2 electron functions:              10
 Number of singly external CSFs:               900
 Number of doubly external CSFs:            405450
 Total number of CSFs:                      406351

 Pair and operator lists are different

 Length of J-op  integral file:              81.60 MB
 Length of K-op  integral file:             128.10 MB
 Length of 3-ext integral record:             0.00 MB

 Memory could be reduced to 75.63 Mwords without degradation in triples

 Integral transformation finished. Total CPU:  12.14 sec, npass=  1  Memory used:  32.52 MW

 Reference energy:                    -40.21418743

 Adding F12 terms to K(Cij), methodcc=6,  factor= 1.0

 ITER.      SQ.NORM     CORR.ENERGY   TOTAL ENERGY   ENERGY CHANGE        DEN1      VAR(S)    VAR(P)  DIIS     TIME  TIME/IT
   1      1.06946672    -0.21560760   -40.42979503    -0.01505899    -0.00938280  0.67D-03  0.94D-03  1  1    33.33     4.01
   2      1.07449376    -0.21617759   -40.43036502    -0.00056999    -0.00524420  0.16D-04  0.83D-04  2  2    37.25     4.05
   3      1.07590222    -0.21633239   -40.43051982    -0.00015480    -0.00098018  0.20D-05  0.51D-05  3  3    41.23     4.07
   4      1.07624044    -0.21634467   -40.43053210    -0.00001228    -0.00017406  0.10D-06  0.25D-06  4  4    45.19     4.07
   5      1.07628518    -0.21634342   -40.43053085     0.00000125    -0.00000984  0.78D-08  0.17D-07  5  5    49.00     4.07
   6      1.07629107    -0.21634244   -40.43052987     0.00000098    -0.00000184  0.60D-09  0.12D-08  6  6    52.80     4.08
   7      1.07629223    -0.21634212   -40.43052955     0.00000032    -0.00000073  0.41D-10  0.10D-09  6  1    56.76     4.09
   8      1.07629236    -0.21634219   -40.43052962    -0.00000008     0.00000001  0.39D-11  0.69D-11  6  2    60.62     4.09
   9      1.07629239    -0.21634220   -40.43052963    -0.00000001     0.00000002  0.34D-12  0.59D-12  6  3    64.54     4.09
  10      1.07629239    -0.21634220   -40.43052963     0.00000000     0.00000002  0.33D-13  0.56D-13  6  4    68.48     4.10
  11      1.07629238    -0.21634220   -40.43052963     0.00000000     0.00000001  0.25D-14  0.56D-14  6  5    72.39     4.10
  12      1.07629237    -0.21634220   -40.43052963     0.00000000     0.00000000  0.51D-16  0.66D-15  6  6    76.25     4.10
  13      1.07629237    -0.21634220   -40.43052963     0.00000000     0.00000000  0.87D-17  0.73D-16  6  1    80.25     4.10
  14      1.07629237    -0.21634220   -40.43052963    -0.00000000     0.00000000  0.22D-17  0.84D-17  6  2    84.22     4.10

 Norm of t1 vector:      0.03361607      S-energy:     0.00000000      T1 diagnostic:  0.00840402
                                                                       D1 diagnostic:  0.01339704

 Adding energy correction from Wij-K(Fij), methodcc=6  factor= 1.0

  CCSD correlation energy              -0.216342201466
  MP2-F12 correction (uncoupled)       -0.017210562769
  C*T doubles correction               -0.000193682119
  f12b correction                       0.003650715307

 Total CPU time for triples:     34.49 sec

  Ecorr(MP2)                           -0.200548611717
  Ecorr(MP2-F12)                       -0.217750136028
  Scale factor for triples energy       1.085772342990


 RESULTS
 =======

  Reference energy                    -40.213280569570
  F12 singles correction               -0.000906859857

 F12 singles corrections added to reference energy

  New reference energy                -40.214187429427

  F12a singlet correction              -0.015605124216
  F12a triplet correction              -0.001799120671
  F12a total correction                -0.017404244888

 F12a corrections for ansatz F12/3C(FIX) added to CCSD energy

  CCSD-F12a singlet pair energy        -0.178529457754
  CCSD-F12a triplet pair energy        -0.055216988637
  CCSD-F12a correlation energy         -0.233746446354

  Triples (T) contribution (scaled)    -0.006802654599
  Total correlation energy             -0.240549100952

  CCSD-F12a total energy              -40.447933875781
  CCSD[T]-F12a energy                 -40.454975660374
  CCSD-T-F12a energy                  -40.454661808284
 !CCSD(T)-F12a total energy           -40.454736530379

 F12b corrections for ansatz F12/3C(FIX) added to CCSD(T)-F12a energy

  CCSD-F12b singlet pair energy        -0.175049397498
  CCSD-F12b triplet pair energy        -0.055046333586
  CCSD-F12b correlation energy         -0.230095731047

  Triples (T) contribution (scaled)    -0.006802654599
  Total correlation energy             -0.236898385645

  CCSD-F12b total energy              -40.444283160474
  CCSD[T]-F12b energy                 -40.451324945067
  CCSD-T-F12b energy                  -40.451011092977
 !CCSD(T)-F12b total energy           -40.451085815072

 Timing summary (sec):

 STEP                 CPU(USER)    SYS     CPU(TOT)    WALL
 Transformation         12.19      0.51     12.70     12.72
 CCSD iterations        54.80      2.47     57.27     57.38
 Triples                34.49      0.16     34.65     34.70
 MP2-F12                17.25      0.43     17.68     17.70
 F12b energy             3.30      0.14      3.44      3.44

 Program statistics:

 Available memory in ccsd:              1999999866
 Min. memory needed in ccsd:               1862772
 Max. memory used in ccsd:                 2158322
 Max. memory used in cckext:               1445635 (15 integral passes)



 **********************************************************************************************************************************
 DATASETS  * FILE   NREC   LENGTH (MB)   RECORD NAMES
              1      19      222.31       500      610      700      900      950      970     1000      129      960     1100   
                                          VAR    BASINP    GEOM    SYMINP    ZMAT    AOBASIS   BASIS     P2S    ABASIS      S 
                                         1400     1410     1200     1210     1080     1600     1650     1700     1380   
                                           T        V       H0       H01     AOSYM     SMH    MOLCAS    OPER     JKOP   

              2       9       13.71       700     1000      520     2100     7360     7350      200     2101     2102   
                                         GEOM     BASIS   MCVARS     RHF    F12ABS    EF12    OPTIONS    RHF      RHF  

 PROGRAMS   *        TOTAL   CCSD(T)    HF-SCF       INT   CCSD(T)    HF-SCF       INT   CCSD(T)    HF-SCF       INT
 CPU TIMES  *       841.15    122.26     12.21      0.24    133.08     13.11      0.21    531.40     14.13     14.26
 REAL TIME  *       871.39 SEC
 DISK USED  *       570.60 MB (local),        7.97 GB (total)
 SF USED    *         1.36 GB
 GA USED    *         4.87 MB       (max)       0.00 MB       (current)
 **********************************************************************************************************************************
 Molecular orbitals read from record     2102.2  Type=RHF/CANONICAL (state 1.1)
 Occupation numbers read from record     2102.2  Type=RHF/RHF (state 1.1)
 Orbital energies read from record       2102.2  Type=RHF/CANONICAL (state 1.1)
 Redundancy group numbers read from rec  2102.2  Type=RHF/RHF (state 1.1)

 CCSD(T)-F12/aug-cc-pVTZ energy=    -40.451085815072

     CCSD(T)-F12          HF-SCF     CCSD(T)-F12          HF-SCF     CCSD(T)-F12          HF-SCF
    -40.45108582    -40.21328057    -76.36290445    -76.05876206   -116.81443498   -116.27129115
 **********************************************************************************************************************************
 Molpro calculation terminated
