
 Primary working directories    : /scratch/klimes/383169/molpro.fEpTr8cpZ1
 Secondary working directories  : /scratch/klimes/383169/molpro.fEpTr8cpZ1
 Wavefunction directory         : /scratch/klimes/383169/
 Main file repository           : /scratch/klimes/383169/molpro.fEpTr8cpZ1/

 id        : karlovklimes

 Nodes                      nprocs
 nc-22.cc.karlov.mff.cuni.cz    4

 Using customized tuning parameters: mindgm=1; mindgv=20; mindgc=4; mindgr=1; noblas=0; minvec=7
 default implementation of scratch files=sf  


 Variables initialized (930), CPU time= 0.01 sec
                                                                                 !gdirect
 memory,2000,m
 gthresh,orbital=1d-10,energy=1d-10,grid=1d-8
 
 symmetry,nosym
 angstrom
 geometry={
 O19        -6.574800000000      3.149500000000     -0.152800000000
 H37        -7.467300000000      3.443900000000     -0.376700000000
 H38        -6.567400000000      3.105000000000      0.858500000000
 C1        -3.277200000000      1.482500000000      1.271900000000
 H41        -2.464000000000      0.899600000000      1.651000000000
 H42        -3.160800000000      2.501000000000      1.578500000000
 H43        -4.201800000000      1.099200000000      1.650100000000
 H44        -3.268500000000      1.421000000000      0.203700000000
 }
 
 nkerna=1
 nkernb=1
 
 gf=0
 sing=1
 thrdum=1d-4
 gridthr=1d-8
 
 basis={
 set,orbital
 default,avtz
 set,jkfit
 default,avqz/jkfit
 set,mp2fit
 default,avqz/mp2fit
 set,ri
 default,avqz/optri
 set,tddft
 default,avqz/mp2fit
 }
 
 proc set_monomer1
 dummy,4,5,6,7,8
 endproc
 
 proc set_monomer2
 dummy,1,2,3
 endproc
 
                                                                                 !12 energy
 {hf,accu=1.d-16}
 {ccsd(t)-f12,df_basis=mp2fit,df_basis_exch=jkfit,ri_basis=ri,scale_trip=1,THRAOF12=1d-10}
 
 set_monomer1
 {hf,accu=1.d-16}
 {ccsd(t)-f12,df_basis=mp2fit,df_basis_exch=jkfit,ri_basis=ri,scale_trip=1,THRAOF12=1d-10}
 
 set_monomer2
 {hf,accu=1.d-16}
 {ccsd(t)-f12,df_basis=mp2fit,df_basis_exch=jkfit,ri_basis=ri,scale_trip=1,THRAOF12=1d-10}
 
 Commands  initialized (760), CPU time= 0.02 sec, 617 directives.
 Default parameters read. Elapsed time= 0.20 sec

 Checking input...
 Passed
1


                                         ***  PROGRAM SYSTEM MOLPRO  ***
                                       Copyright, TTI GmbH Stuttgart, 2015
                                    Version 2019.1 linked Jan 14 2019 13:09:19


 **********************************************************************************************************************************
 LABEL *                                                                                 
  64 bit mpp version                                                                     DATE: 11-Mar-20          TIME: 16:28:09  
 **********************************************************************************************************************************

 SHA1:             d688ac825633d238f2093ded1675ba87ccd55965
 **********************************************************************************************************************************

 THRESHOLDS:

 ZERO    =  1.00D-12  ONEINT  =  1.00D-12  TWOINT  =  1.00D-11  PREFAC  =  1.00D-14  XXXXXX  =  1.00D-09  EORDER  =  1.00D-04
 ENERGY  =  1.00D-10  ETEST   =  0.00D+00  EDENS   =  0.00D+00  THRDEDEF=  1.00D-06  GRADIENT=  1.00D-02  STEP    =  1.00D-03
 ORBITAL =  1.00D-10  CIVEC   =  1.00D-05  COEFF   =  1.00D-04  PRINTCI =  5.00D-02  PUNCHCI =  9.90D+01  OPTGRAD =  3.00D-04
 OPTENERG=  1.00D-06  OPTSTEP =  3.00D-04  THRGRAD =  1.00D-10  COMPRESS=  1.00D-11  VARMIN  =  1.00D-07  VARMAX  =  1.00D-03
 THRDOUB =  0.00D+00  THRDIV  =  1.00D-05  THRRED  =  1.00D-07  THRPSP  =  1.00D+00  THRDC   =  1.00D-10  THRCS   =  1.00D-10
 THRNRM  =  1.00D-08  THREQ   =  0.00D+00  THRDE   =  1.00D+00  THRREF  =  1.00D-05  SPARFAC =  1.00D+00  THRDLP  =  1.00D-07
 THRDIA  =  1.00D-10  THRDLS  =  1.00D-07  THRGPS  =  0.00D+00  THRKEX  =  0.00D+00  THRDIS  =  2.00D-01  THRVAR  =  1.00D-10
 THRLOC  =  1.00D-06  THRGAP  =  1.00D-06  THRLOCT = -1.00D+00  THRGAPT = -1.00D+00  THRORB  =  1.00D-06  THRMLTP =  0.00D+00
 THRCPQCI=  1.00D-10  KEXTA   =  0.00D+00  THRCOARS=  0.00D+00  SYMTOL  =  1.00D-06  GRADTOL =  1.00D-06  THROVL  =  1.00D-08
 THRORTH =  1.00D-08  GRID    =  1.00D-08  GRIDMAX =  1.00D-03  DTMAX   =  0.00D+00  THROCCDE=  1.00D-01  THROCCDE=  1.00D-01
 THRPRINT=  2.50D-01


 Variable memory set to 2000000000 words,  buffer space 

 ZSYMEL=NOSYM
 ZUNIT=ANG


Geometry recognized as XYZ

 SETTING NKERNA         =         1.00000000                                  
 SETTING NKERNB         =         1.00000000                                  
 SETTING GF             =     0.00000000D+00                                  
 SETTING SING           =         1.00000000                                  
 SETTING THRDUM         =     1.00000000D-04                                  
 SETTING GRIDTHR        =     1.00000000D-08                                  
 SETTING BASIS          =    AVTZ


 Recomputing integrals since basis changed


 Using spherical harmonics

 Library entry O      S aug-cc-pVTZ          selected for orbital group  1
 Library entry O      P aug-cc-pVTZ          selected for orbital group  1
 Library entry O      D aug-cc-pVTZ          selected for orbital group  1
 Library entry O      F aug-cc-pVTZ          selected for orbital group  1
 Library entry H      S aug-cc-pVTZ          selected for orbital group  2
 Library entry H      P aug-cc-pVTZ          selected for orbital group  2
 Library entry H      D aug-cc-pVTZ          selected for orbital group  2
 Library entry C      S aug-cc-pVTZ          selected for orbital group  3
 Library entry C      P aug-cc-pVTZ          selected for orbital group  3
 Library entry C      D aug-cc-pVTZ          selected for orbital group  3
 Library entry C      F aug-cc-pVTZ          selected for orbital group  3


 PROGRAM * SEWARD (Integral evaluation for generally contracted gaussian basis sets)     Author: Roland Lindh, 1990

 Geometry written to block  1 of record 700


 Point group  C1  



 ATOMIC COORDINATES

 NR  ATOM    CHARGE       X              Y              Z

   1  O19     8.00  -12.424571324    5.951692429   -0.288750152
   2  H37     1.00  -14.111151890    6.508027800   -0.711859831
   3  H38     1.00  -12.410587350    5.867599617    1.622329878
   4  C1      6.00   -6.193010455    2.801518980    2.403542658
   5  H41     1.00   -4.656285171    1.699997622    3.119937832
   6  H42     1.00   -5.973046335    4.726205038    2.982932688
   7  H43     1.00   -7.940251230    2.077186956    3.118237078
   8  H44     1.00   -6.176569838    2.685300823    0.384937212

 Bond lengths in Bohr (Angstrom)

 1-2  1.825673808  1-3  1.912980406  4-5  2.021904040  4-6  2.022002335  4-7  2.021953343
     ( 0.966104974)     ( 1.012305636)     ( 1.069945541)     ( 1.069997556)     ( 1.069971630)

 4-8  2.022015060
     ( 1.070004290)

 Bond angles

  2-1-3  104.57658282   5-4-6  109.53398059   5-4-7  109.65604535   5-4-8  108.43490854

  6-4-7  109.49436728   6-4-8  109.86987750   7-4-8  109.83468330

 NUCLEAR CHARGE:                   20
 NUMBER OF PRIMITIVE AOS:         296
 NUMBER OF SYMMETRY AOS:          266
 NUMBER OF CONTRACTIONS:          230   (  230A   )
 NUMBER OF CORE ORBITALS:           2   (    2A   )
 NUMBER OF VALENCE ORBITALS:       14   (   14A   )


 NUCLEAR REPULSION ENERGY   35.73898765


 Basis set:  JKFIT                   
 Basis size:   740
 Attributes:
 Sphericals:   T
 Basis set:  MP2FIT                  
 Basis size:   816
 Attributes:
 Sphericals:   T
 Basis set:  RI                      
 Basis size:   556
 Attributes:
 Sphericals:   T
 Basis set:  TDDFT                   
 Basis size:   816
 Attributes:
 Sphericals:   T

 **********************************************************************************************************************************


 Eigenvalues of metric

         1 0.568E-04 0.709E-04 0.104E-03 0.105E-03 0.336E-03 0.379E-03 0.666E-03 0.765E-03


 Contracted 2-electron integrals neglected if value below      1.0D-14
 AO integral compression algorithm  1   Integral accuracy      1.0D-14

     2096.366 MB (compressed) written to integral file ( 65.4%)

     Node minimum: 492.831 MB, node maximum: 542.114 MB


 NUMBER OF SORTED TWO-ELECTRON INTEGRALS:   88219044.     BUFFER LENGTH:  32768
 NUMBER OF SEGMENTS:   6  SEGMENT LENGTH:   15998348      RECORD LENGTH: 524288

 Memory used in sort:      16.56 MW

 SORT1 READ   400769927. AND WROTE    80016861. INTEGRALS IN    233 RECORDS. CPU TIME:     7.32 SEC, REAL TIME:     8.25 SEC
 SORT2 READ   320232326. AND WROTE   352862895. INTEGRALS IN   8272 RECORDS. CPU TIME:     1.75 SEC, REAL TIME:     2.54 SEC

 Node minimum:    88205762.  Node maximum:    88225686. integrals

 OPERATOR DM      FOR CENTER  0  COORDINATES:    0.000000    0.000000    0.000000


 **********************************************************************************************************************************
 DATASETS  * FILE   NREC   LENGTH (MB)   RECORD NAMES
              1      18       32.04       500      610      700      900      950      970     1000      129      960     1100   
                                          VAR    BASINP    GEOM    SYMINP    ZMAT    AOBASIS   BASIS     P2S    ABASIS      S 
                                         1400     1410     1200     1210     1080     1600     1650     1700   
                                           T        V       H0       H01     AOSYM     SMH    MOLCAS    OPER   

 PROGRAMS   *        TOTAL       INT
 CPU TIMES  *        14.02     13.80
 REAL TIME  *        18.63 SEC
 DISK USED  *        32.49 MB (local),        6.04 GB (total)
 GA USED    *         0.00 MB       (max)       0.00 MB       (current)
 **********************************************************************************************************************************


 PROGRAM * RHF-SCF (CLOSED SHELL)       Authors: W. Meyer, H.-J. Werner


 NUMBER OF ELECTRONS:      10+   10-    SPACE SYMMETRY=1    SPIN SYMMETRY: Singlet 
 CONVERGENCE THRESHOLDS:    1.00E-08 (Density)    1.00E-11 (Energy)
 MAX. NUMBER OF ITERATIONS:       60
 INTERPOLATION TYPE:            DIIS
 INTERPOLATION STEPS:              2 (START)      1 (STEP)
 LEVEL SHIFTS:                  0.00 (CLOSED)  0.00 (OPEN) 



 Orbital guess generated from atomic densities. Full valence occupancy:   16

 Molecular orbital dump at record        2100.2

 Initial occupancy:  10

 ITERATION    DDIFF          GRAD             ENERGY        2-EL.EN.            DIPOLE MOMENTS         DIIS   ORB.
    1      0.000D+00      0.000D+00      -116.21022620    157.205206   -0.84425    0.23588    0.77356    0    start
    2      0.000D+00      0.524D-02      -116.25428883    152.144959   -0.49495    0.14447    0.38909    1    diag
    3      0.553D-02      0.313D-02      -116.26823311    154.244416   -0.58641    0.16791    0.48505    2    diag
    4      0.185D-02      0.457D-03      -116.26889573    154.132550   -0.57954    0.16585    0.47549    3    diag
    5      0.412D-03      0.135D-03      -116.26896552    154.127002   -0.58006    0.16608    0.47417    4    diag
    6      0.145D-03      0.331D-04      -116.26896950    154.132906   -0.57972    0.16600    0.47330    5    diag
    7      0.396D-04      0.664D-05      -116.26896975    154.131335   -0.57981    0.16603    0.47322    6    diag
    8      0.110D-04      0.175D-05      -116.26896977    154.131492   -0.57979    0.16603    0.47313    7    diag
    9      0.263D-05      0.378D-06      -116.26896977    154.131466   -0.57978    0.16603    0.47311    8    diag
   10      0.785D-06      0.423D-07      -116.26896977    154.131467   -0.57978    0.16603    0.47311    9    orth
   11      0.605D-07      0.108D-07      -116.26896977    154.131469   -0.57978    0.16603    0.47311    9    diag
   12      0.236D-07      0.277D-08      -116.26896977    154.131468   -0.57978    0.16603    0.47311    9    diag
   13      0.378D-08      0.728D-09      -116.26896977    154.131469   -0.57978    0.16603    0.47311    0    orth

 Final occupancy:  10

 !RHF STATE  1.1 Energy              -116.268969769979
 Nuclear energy                        35.73898765
 One-electron energy                 -229.07369168
 Two-electron energy                   77.06573426
 Virial quotient                       -1.00138692
 !RHF STATE  1.1 Dipole moment         -0.57978288     0.16602909     0.47310674
 Dipole moment /Debye                  -1.47356456     0.42197622     1.20243862

 Orbital energies:

         1.1          2.1          3.1          4.1          5.1          6.1          7.1          8.1          9.1         10.1
    -20.572182   -11.192847    -1.337768    -0.946305    -0.700649    -0.578186    -0.547658    -0.545736    -0.542333    -0.507449

        11.1         12.1
      0.027393     0.038727


 HOMO     10.1    -0.507449 =     -13.8084eV
 LUMO     11.1     0.027393 =       0.7454eV
 LUMO-HOMO         0.534843 =      14.5538eV


 **********************************************************************************************************************************
 DATASETS  * FILE   NREC   LENGTH (MB)   RECORD NAMES
              1      18       32.04       500      610      700      900      950      970     1000      129      960     1100   
                                          VAR    BASINP    GEOM    SYMINP    ZMAT    AOBASIS   BASIS     P2S    ABASIS      S 
                                         1400     1410     1200     1210     1080     1600     1650     1700   
                                           T        V       H0       H01     AOSYM     SMH    MOLCAS    OPER   

              2       4        3.96       700     1000      520     2100   
                                         GEOM     BASIS   MCVARS     RHF  

 PROGRAMS   *        TOTAL    HF-SCF       INT
 CPU TIMES  *        28.22     14.20     13.80
 REAL TIME  *        34.67 SEC
 DISK USED  *        39.90 MB (local),        6.07 GB (total)
 SF USED    *         0.21 MB
 GA USED    *         0.00 MB       (max)       0.00 MB       (current)
 **********************************************************************************************************************************

 Basis set:  JKFIT                   
 Basis size:   740
 Attributes:
 Sphericals:   T
 Basis set:  MP2FIT                  
 Basis size:   816
 Attributes:
 Sphericals:   T
 Basis set:  RI                      
 Basis size:   556
 Attributes:
 Sphericals:   T
 Basis set:  TDDFT                   
 Basis size:   816
 Attributes:
 Sphericals:   T

 PROGRAM * CCSD (Closed-shell coupled cluster)     Authors: C. Hampel, H.-J. Werner, 1991, M. Deegan, P.J. Knowles, 1992

                                  CCSD-F12 implementation by  H.-J. Werner, 2007

                   Density fitting integral evaluation by F.R. Manby, 2003,2007, G. Knizia, 2010



 Convergence thresholds:  THRVAR = 1.00D-08  THRDEN = 1.00D-10

 CCSD(T)     terms to be evaluated (factor= 1.000)


 Number of core orbitals:           2 (   2 )
 Number of closed-shell orbitals:   8 (   8 )
 Number of external orbitals:     220 ( 220 )

 Molecular orbitals read from record     2100.2  Type=RHF/CANONICAL (state 1.1)

 MP2-F12 correlation treatment (H.-J. Werner, 2006)
 ==================================================

 Using MP2-F12 with ansatz 3C(FIX)

 Using projected zeroth-order Hamiltonian (+Z)

 FOCKRIB=T FOCKRIC=T FOCKRIP=T CABSP=T CABSA=T CABSK=T CABSF=T GBC=F EBC=F DMAT=T NOFIK=T NOPAO=1 SOLVE=-1  USEPAO=0
 EXCH_A= T EXCH_B= F EXCH_C= F EXCH_P= F

 Geminal basis:    OPTFULL  GEM_TYPE=SLATER  BETA=1.0  NGEM=6

 Optimizing Gaussian exponents for each gem_beta

 Geminal optimization for beta= 1.0000
 Weight function:   m=0, omega= 1.4646

 Augmented Hessian optimization of geminal fit. Trust ratio= 0.40000
 Convergence reached after   2 iterations. Final gradient= 7.85D-16, Step= 4.26D-06, Delta= 1.28D-09

 Alpha:                 0.19532     0.81920     2.85917     9.50073    35.69989   197.79328
 Coeff:                 0.27070     0.30552     0.18297     0.10986     0.06810     0.04224


 All pairs explicitly correlated. Number of r12-pairs:           36

 Excluding core orbitals from MO domains

 AO(A)-basis ORBITAL           loaded. Number of functions:     230
 RI(R)-basis RI                loaded. Number of functions:     556
 DF-basis JKFIT                loaded. Number of functions:     740

 Screening thresholds:   THRAO=  1.00D-10  THRMO=  1.00D-09  THRPROD=  1.00D-09
                         THRSW=  1.00D-05  THROV=  1.00D-12  THRAOF12= 1.00D-10

 CPU time for Fock operators                      3.58 sec

 Construction of ABS:
 Smallest eigenvalue of S          1.09E-04  (threshold= 1.00E-08)
 Ratio eigmin/eigmax               1.55E-05  (threshold= 1.00E-09)
 Smallest eigenvalue of S kept     1.09E-04  (threshold= 1.09E-04, 0 functions deleted, 556 kept)

 Construction of CABS:
 Smallest eigenvalue of S          6.74E-07  (threshold= 1.00E-08)
 Ratio eigmin/eigmax               6.74E-07  (threshold= 1.00E-09)
 Smallest eigenvalue of S kept     6.74E-07  (threshold= 6.74E-07, 0 functions deleted, 556 kept)

 CPU time for CABS singles                        0.66 sec

 CABS-singles contribution of  -0.00235055 patched into reference energy.
 New reference energy        -116.27132032

 AO(A)-basis ORBITAL           loaded. Number of functions:     230
 RI(R)-basis RI                loaded. Number of functions:     556
 DF-basis MP2FIT               loaded. Number of functions:     816

 Screening thresholds:   THRAO=  1.00D-10  THRMO=  1.00D-09  THRPROD=  1.00D-09
                         THRSW=  1.00D-05  THROV=  1.00D-12  THRAOF12= 1.00D-10

 CPU time for 3-index integral evaluation         5.30 sec
 CPU time for first  half transformation          0.85 sec ( 3245.5 MFLOP/sec)
 CPU time for second half transformation          0.05 sec (  982.6 MFLOP/sec)
 CPU time for sorting                             0.06 sec
 CPU time for fitting                             0.51 sec ( 4261.5 MFLOP/sec)
 CPU time for tilde quantities                    0.62 sec ( 4450.5 MFLOP/sec)
 CPU time for assembly                            4.55 sec ( 4353.0 MFLOP/sec)
 CPU time for tranop_f12                          4.32 sec ( 4418.9 MFLOP/sec)
 CPU time for f12 integrals (total)              23.13 sec, Elapsed time:     23.97 sec
 F12-matrices built in  4 passes.
 F12-matrices built in  4 passes.
 F12-matrices built in  4 passes.
 F12-matrices built in  4 passes.
 FC-matrix built in  4 passes.
 CPU time for f12 matrices (total)                1.08 sec, Elapsed time:      1.12 sec

 Diagonal F12 approximation with fixed coefficients:  TSING= 0.500,  TTRIP= 0.250 (scaled by -1/beta)

 DF-MP2-F12 energy corrections:
 ==============================
 Approx.                                    Singlet             Triplet             Total
 DF-MP2-F12/3*C(DX,FIX)                -0.046192856854     -0.006790001093     -0.052982857947
 DF-MP2-F12/3*C(FIX)                   -0.039900829378     -0.005603797067     -0.045504626444
 DF-MP2-F12/3C(FIX)                    -0.040018875251     -0.005568237756     -0.045587113007

 DF-MP2-F12 correlation energies:
 ================================
 Approx.                                    Singlet             Triplet             Ecorr            Total Energy
 DF-MP2                                -0.317952940932     -0.153999882413     -0.471952823345   -116.743273140240
 DF-MP2-F12/3*C(DX,FIX)                -0.364145797786     -0.160789883506     -0.524935681292   -116.796255998187
 DF-MP2-F12/3*C(FIX)                   -0.357853770310     -0.159603679480     -0.517457449789   -116.788777766684
 DF-MP2-F12/3C(FIX)                    -0.357971816183     -0.159568120169     -0.517539936352   -116.788860253247

 SCS-DF-MP2 energies (F_SING= 1.20000  F_TRIP= 0.62222  F_PARALLEL= 0.33333):
 ============================================================================
 SCS-DF-MP2                            -0.477365678175   -116.748685995070
 SCS-DF-MP2-F12/3*C(DX,FIX)            -0.537021995969   -116.808342312864
 SCS-DF-MP2-F12/3*C(FIX)               -0.528733480492   -116.800053797387
 SCS-DF-MP2-F12/3C(FIX)                -0.528853009747   -116.800173326642
 Symmetry transformation completed.

 Number of N-1 electron functions:               8
 Number of N-2 electron functions:              36
 Number of singly external CSFs:              1760
 Number of doubly external CSFs:           1549680
 Total number of CSFs:                     1551441

 Pair and operator lists are different

 Length of J-op  integral file:             315.61 MB
 Length of K-op  integral file:             368.50 MB
 Length of 3-ext integral record:             0.00 MB

 Memory could be reduced to 116.32 Mwords without degradation in triples

 Integral transformation finished. Total CPU:  23.81 sec, npass=  1  Memory used:  59.34 MW

 Reference energy:                   -116.27132032

 Adding F12 terms to K(Cij), methodcc=6,  factor= 1.0

 ITER.      SQ.NORM     CORR.ENERGY   TOTAL ENERGY   ENERGY CHANGE        DEN1      VAR(S)    VAR(P)  DIIS     TIME  TIME/IT
   1      1.13272156    -0.48647648  -116.75779680    -0.01450573    -0.00274013  0.15D-02  0.20D-02  1  1    68.52    14.28
   2      1.14107905    -0.48674657  -116.75806689    -0.00027009    -0.00980257  0.29D-04  0.23D-03  2  2    82.89    14.49
   3      1.14402687    -0.48701143  -116.75833175    -0.00026486    -0.00200356  0.13D-04  0.12D-04  3  3    97.31    14.57
   4      1.14493088    -0.48706889  -116.75838921    -0.00005746    -0.00049348  0.55D-06  0.11D-05  4  4   111.78    14.60
   5      1.14508065    -0.48706314  -116.75838345     0.00000576    -0.00003995  0.20D-06  0.77D-07  5  5   126.13    14.62
   6      1.14512245    -0.48706021  -116.75838053     0.00000292    -0.00000643  0.18D-07  0.57D-08  6  6   140.52    14.63
   7      1.14513219    -0.48705945  -116.75837977     0.00000076    -0.00000260  0.15D-08  0.77D-09  6  2   154.96    14.64
   8      1.14513421    -0.48705942  -116.75837974     0.00000003    -0.00000011  0.24D-09  0.81D-10  6  1   169.48    14.66
   9      1.14513493    -0.48705945  -116.75837976    -0.00000002    -0.00000006  0.23D-10  0.14D-10  6  3   183.97    14.67
  10      1.14513503    -0.48705944  -116.75837976     0.00000000     0.00000007  0.35D-11  0.17D-11  6  4   198.37    14.67
  11      1.14513497    -0.48705945  -116.75837977    -0.00000001     0.00000008  0.62D-12  0.26D-12  6  5   212.75    14.67
  12      1.14513493    -0.48705945  -116.75837977    -0.00000000     0.00000002  0.12D-12  0.37D-13  6  6   227.06    14.66
  13      1.14513491    -0.48705945  -116.75837977    -0.00000000     0.00000001  0.18D-13  0.57D-14  6  2   241.62    14.67
  14      1.14513490    -0.48705945  -116.75837977    -0.00000000     0.00000000  0.22D-14  0.12D-14  6  1   256.11    14.68
  15      1.14513490    -0.48705945  -116.75837977    -0.00000000    -0.00000000  0.25D-15  0.13D-15  6  3   270.49    14.68
  16      1.14513490    -0.48705945  -116.75837977     0.00000000    -0.00000000  0.35D-16  0.19D-16  6  4   284.94    14.68

 Norm of t1 vector:      0.05102263      S-energy:     0.00000000      T1 diagnostic:  0.00901961
                                                                       D1 diagnostic:  0.01917709

 Adding energy correction from Wij-K(Fij), methodcc=6  factor= 1.0

  CCSD correlation energy              -0.487059451209
  MP2-F12 correction (uncoupled)       -0.045315710475
  C*T doubles correction               -0.000613550178
  f12b correction                       0.008429546467


 Total CPU time for triples:    219.49 sec

  Ecorr(MP2)                           -0.471970749864
  Ecorr(MP2-F12)                       -0.517557862871
  Scale factor for triples energy       1.096588852213


 RESULTS
 =======

  Reference energy                   -116.268969769979
  F12 singles correction               -0.002350546916

 F12 singles corrections added to reference energy

  New reference energy               -116.271320316895

  F12a singlet correction              -0.040266198672
  F12a triplet correction              -0.005663061981
  F12a total correction                -0.045929260653

 F12a corrections for ansatz F12/3C(FIX) added to CCSD energy

  CCSD-F12a singlet pair energy        -0.386743203977
  CCSD-F12a triplet pair energy        -0.146245508089
  CCSD-F12a correlation energy         -0.532988711862

  Triples (T) contribution (scaled)    -0.016548909759
  Total correlation energy             -0.549537621621

  CCSD-F12a total energy             -116.804309028757
  CCSD[T]-F12a energy                -116.821459745172
  CCSD-T-F12a energy                 -116.820633524487
 !CCSD(T)-F12a total energy          -116.820857938516

 F12b corrections for ansatz F12/3C(FIX) added to CCSD(T)-F12a energy

  CCSD-F12b singlet pair energy        -0.378843926957
  CCSD-F12b triplet pair energy        -0.145715238643
  CCSD-F12b correlation energy         -0.524559165395

  Triples (T) contribution (scaled)    -0.016548909759
  Total correlation energy             -0.541108075154

  CCSD-F12b total energy             -116.795879482290
  CCSD[T]-F12b energy                -116.813030198705
  CCSD-T-F12b energy                 -116.812203978020
 !CCSD(T)-F12b total energy          -116.812428392049

 Timing summary (sec):

 STEP                 CPU(USER)    SYS     CPU(TOT)    WALL
 Transformation         23.99      0.76     24.75     24.78
 CCSD iterations       230.60      3.92    234.52    234.87
 Triples               219.49      0.84    220.33    220.61
 MP2-F12                30.38      1.05     31.43     31.48
 F12b energy            11.09      0.11     11.20     11.21

 Program statistics:

 Available memory in ccsd:              1999999554
 Min. memory needed in ccsd:               4597329
 Max. memory used in ccsd:                 5918289
 Max. memory used in cckext:               4231061 (17 integral passes)



 **********************************************************************************************************************************
 DATASETS  * FILE   NREC   LENGTH (MB)   RECORD NAMES
              1      19      398.06       500      610      700      900      950      970     1000      129      960     1100   
                                          VAR    BASINP    GEOM    SYMINP    ZMAT    AOBASIS   BASIS     P2S    ABASIS      S 
                                         1400     1410     1200     1210     1080     1600     1650     1700     1380   
                                           T        V       H0       H01     AOSYM     SMH    MOLCAS    OPER     JKOP   

              2       6        5.03       700     1000      520     2100     7360     7350   
                                         GEOM     BASIS   MCVARS     RHF    F12ABS    EF12   

 PROGRAMS   *        TOTAL   CCSD(T)    HF-SCF       INT
 CPU TIMES  *       544.01    515.77     14.20     13.80
 REAL TIME  *       558.49 SEC
 DISK USED  *       570.60 MB (local),        7.69 GB (total)
 SF USED    *         1.36 GB
 GA USED    *         4.87 MB       (max)       0.00 MB       (current)
 **********************************************************************************************************************************

 Running procedure: SET_MONOMER1

 Dummy atoms: C1  H41  H42  H43  H44


 Recomputing one-electron integrals since nuclear charges changed


 PROGRAM * SEWARD (Integral evaluation for generally contracted gaussian basis sets)     Author: Roland Lindh, 1990

 Geometry written to block  1 of record 700


 Point group  C1  



 ATOMIC COORDINATES

 NR  ATOM    CHARGE       X              Y              Z

   1  O19     8.00  -12.424571324    5.951692429   -0.288750152
   2  H37     1.00  -14.111151890    6.508027800   -0.711859831
   3  H38     1.00  -12.410587350    5.867599617    1.622329878
   4  C1      0.00   -6.193010455    2.801518980    2.403542658
   5  H41     0.00   -4.656285171    1.699997622    3.119937832
   6  H42     0.00   -5.973046335    4.726205038    2.982932688
   7  H43     0.00   -7.940251230    2.077186956    3.118237078
   8  H44     0.00   -6.176569838    2.685300823    0.384937212

 Bond lengths in Bohr (Angstrom)

 1-2  1.825673808  1-3  1.912980406  4-5  2.021904040  4-6  2.022002335  4-7  2.021953343
     ( 0.966104974)     ( 1.012305636)     ( 1.069945541)     ( 1.069997556)     ( 1.069971630)

 4-8  2.022015060
     ( 1.070004290)

 Bond angles

  2-1-3  104.57658282   5-4-6  109.53398059   5-4-7  109.65604535   5-4-8  108.43490854

  6-4-7  109.49436728   6-4-8  109.86987750   7-4-8  109.83468330

 NUCLEAR CHARGE:                   10
 NUMBER OF PRIMITIVE AOS:         296
 NUMBER OF SYMMETRY AOS:          266
 NUMBER OF CONTRACTIONS:          230   (  230A   )
 NUMBER OF CORE ORBITALS:           1   (    1A   )
 NUMBER OF VALENCE ORBITALS:        6   (    6A   )

 MOLECULE CHANGED: INITIALIZING OCCUPATION AND DUMP RECORDS


 NUCLEAR REPULSION ENERGY    8.90195171

 Basis set:  JKFIT                   
 Basis size:   740
 Attributes:
 Sphericals:   T
 Basis set:  MP2FIT                  
 Basis size:   816
 Attributes:
 Sphericals:   T
 Basis set:  RI                      
 Basis size:   556
 Attributes:
 Sphericals:   T
 Basis set:  TDDFT                   
 Basis size:   816
 Attributes:
 Sphericals:   T

 Eigenvalues of metric

         1 0.568E-04 0.709E-04 0.104E-03 0.105E-03 0.336E-03 0.379E-03 0.666E-03 0.765E-03


 Contracted 2-electron integrals neglected if value below      1.0D-14

 OPERATOR DM      FOR CENTER  0  COORDINATES:    0.000000    0.000000    0.000000


 **********************************************************************************************************************************
 DATASETS  * FILE   NREC   LENGTH (MB)   RECORD NAMES
              1      18       32.04       500      610      700      900      950      970     1000      129      960     1100   
                                          VAR    BASINP    GEOM    SYMINP    ZMAT    AOBASIS   BASIS     P2S    ABASIS      S 
                                         1400     1410     1200     1210     1080     1600     1650     1700   
                                           T        V       H0       H01     AOSYM     SMH    MOLCAS    OPER   

              2       7        5.05       700     1000      520     2100     7360     7350      200   
                                         GEOM     BASIS   MCVARS     RHF    F12ABS    EF12    OPTIONS    

 PROGRAMS   *        TOTAL       INT   CCSD(T)    HF-SCF       INT
 CPU TIMES  *       544.25      0.24    515.77     14.20     13.80
 REAL TIME  *       559.24 SEC
 DISK USED  *       570.60 MB (local),        7.69 GB (total)
 SF USED    *         1.36 GB
 GA USED    *         4.87 MB       (max)       0.00 MB       (current)
 **********************************************************************************************************************************


 PROGRAM * RHF-SCF (CLOSED SHELL)       Authors: W. Meyer, H.-J. Werner


 NUMBER OF ELECTRONS:       5+    5-    SPACE SYMMETRY=1    SPIN SYMMETRY: Singlet 
 CONVERGENCE THRESHOLDS:    1.00E-08 (Density)    1.00E-11 (Energy)
 MAX. NUMBER OF ITERATIONS:       60
 INTERPOLATION TYPE:            DIIS
 INTERPOLATION STEPS:              2 (START)      1 (STEP)
 LEVEL SHIFTS:                  0.00 (CLOSED)  0.00 (OPEN) 



 Orbital guess generated from atomic densities. Full valence occupancy:    7

 Molecular orbital dump at record        2101.2

 Initial occupancy:   5

 ITERATION    DDIFF          GRAD             ENERGY        2-EL.EN.            DIPOLE MOMENTS         DIIS   ORB.
    1      0.000D+00      0.000D+00       -76.01699317     77.242762   -0.84897    0.23887    0.77546    0    start
    2      0.000D+00      0.641D-02       -76.04376357     73.563793   -0.49559    0.14017    0.43388    1    diag
    3      0.443D-02      0.414D-02       -76.05557578     75.199356   -0.58556    0.16548    0.51673    2    diag
    4      0.162D-02      0.381D-03       -76.05577624     75.109503   -0.58337    0.16502    0.51092    3    diag
    5      0.210D-03      0.109D-03       -76.05579878     75.124229   -0.58260    0.16487    0.50861    4    diag
    6      0.715D-04      0.220D-04       -76.05580028     75.123217   -0.58251    0.16487    0.50800    5    diag
    7      0.190D-04      0.444D-05       -76.05580035     75.123347   -0.58246    0.16486    0.50782    6    diag
    8      0.498D-05      0.783D-06       -76.05580035     75.123329   -0.58244    0.16486    0.50779    7    diag
    9      0.786D-06      0.105D-06       -76.05580035     75.123319   -0.58244    0.16485    0.50778    8    diag
   10      0.877D-07      0.285D-07       -76.05580035     75.123322   -0.58244    0.16485    0.50778    9    orth
   11      0.237D-07      0.705D-08       -76.05580035     75.123322   -0.58244    0.16485    0.50778    9    diag
   12      0.702D-08      0.135D-08       -76.05580035     75.123322   -0.58244    0.16485    0.50778    0    orth

 Final occupancy:   5

 !RHF STATE  1.1 Energy               -76.055800353205
 Nuclear energy                         8.90195171
 One-electron energy                 -122.51941283
 Two-electron energy                   37.56166077
 Virial quotient                       -1.00282295
 !RHF STATE  1.1 Dipole moment         -0.58243672     0.16485471     0.50778134
 Dipole moment /Debye                  -1.48030953     0.41899144     1.29056690

 Orbital energies:

         1.1          2.1          3.1          4.1          5.1          6.1          7.1
    -20.572579    -1.338136    -0.701000    -0.578482    -0.507849     0.023378     0.035027


 HOMO      5.1    -0.507849 =     -13.8193eV
 LUMO      6.1     0.023378 =       0.6361eV
 LUMO-HOMO         0.531227 =      14.4554eV


 **********************************************************************************************************************************
 DATASETS  * FILE   NREC   LENGTH (MB)   RECORD NAMES
              1      18       32.04       500      610      700      900      950      970     1000      129      960     1100   
                                          VAR    BASINP    GEOM    SYMINP    ZMAT    AOBASIS   BASIS     P2S    ABASIS      S 
                                         1400     1410     1200     1210     1080     1600     1650     1700   
                                           T        V       H0       H01     AOSYM     SMH    MOLCAS    OPER   

              2       8        9.09       700     1000      520     2100     7360     7350      200     2101   
                                         GEOM     BASIS   MCVARS     RHF    F12ABS    EF12    OPTIONS    RHF  

 PROGRAMS   *        TOTAL    HF-SCF       INT   CCSD(T)    HF-SCF       INT
 CPU TIMES  *       557.10     12.85      0.24    515.77     14.20     13.80
 REAL TIME  *       574.07 SEC
 DISK USED  *       570.60 MB (local),        7.69 GB (total)
 SF USED    *         1.36 GB
 GA USED    *         4.87 MB       (max)       0.00 MB       (current)
 **********************************************************************************************************************************

 Basis set:  JKFIT                   
 Basis size:   740
 Attributes:
 Sphericals:   T
 Basis set:  MP2FIT                  
 Basis size:   816
 Attributes:
 Sphericals:   T
 Basis set:  RI                      
 Basis size:   556
 Attributes:
 Sphericals:   T
 Basis set:  TDDFT                   
 Basis size:   816
 Attributes:
 Sphericals:   T

 PROGRAM * CCSD (Closed-shell coupled cluster)     Authors: C. Hampel, H.-J. Werner, 1991, M. Deegan, P.J. Knowles, 1992

                                  CCSD-F12 implementation by  H.-J. Werner, 2007

                   Density fitting integral evaluation by F.R. Manby, 2003,2007, G. Knizia, 2010



 Convergence thresholds:  THRVAR = 1.00D-08  THRDEN = 1.00D-10

 CCSD(T)     terms to be evaluated (factor= 1.000)


 Number of core orbitals:           1 (   1 )
 Number of closed-shell orbitals:   4 (   4 )
 Number of external orbitals:     225 ( 225 )

 Molecular orbitals read from record     2101.2  Type=RHF/CANONICAL (state 1.1)

 MP2-F12 correlation treatment (H.-J. Werner, 2006)
 ==================================================

 Using MP2-F12 with ansatz 3C(FIX)

 Using projected zeroth-order Hamiltonian (+Z)

 FOCKRIB=T FOCKRIC=T FOCKRIP=T CABSP=T CABSA=T CABSK=T CABSF=T GBC=F EBC=F DMAT=T NOFIK=T NOPAO=1 SOLVE=-1  USEPAO=0
 EXCH_A= T EXCH_B= F EXCH_C= F EXCH_P= F

 Geminal basis:    OPTFULL  GEM_TYPE=SLATER  BETA=1.0  NGEM=6

 Optimizing Gaussian exponents for each gem_beta

 Geminal optimization for beta= 1.0000
 Weight function:   m=0, omega= 1.4646

 Augmented Hessian optimization of geminal fit. Trust ratio= 0.40000
 Convergence reached after   2 iterations. Final gradient= 8.31D-16, Step= 4.24D-06, Delta= 1.28D-09

 Alpha:                 0.19532     0.81920     2.85917     9.50073    35.69989   197.79328
 Coeff:                 0.27070     0.30552     0.18297     0.10986     0.06810     0.04224


 All pairs explicitly correlated. Number of r12-pairs:           10

 Excluding core orbitals from MO domains

 AO(A)-basis ORBITAL           loaded. Number of functions:     230
 RI(R)-basis RI                loaded. Number of functions:     556
 DF-basis JKFIT                loaded. Number of functions:     740

 Screening thresholds:   THRAO=  1.00D-10  THRMO=  1.00D-09  THRPROD=  1.00D-09
                         THRSW=  1.00D-05  THROV=  1.00D-12  THRAOF12= 1.00D-10

 CPU time for Fock operators                      3.02 sec

 Construction of ABS:
 Smallest eigenvalue of S          1.09E-04  (threshold= 1.00E-08)
 Ratio eigmin/eigmax               1.55E-05  (threshold= 1.00E-09)
 Smallest eigenvalue of S kept     1.09E-04  (threshold= 1.09E-04, 0 functions deleted, 556 kept)

 Construction of CABS:
 Smallest eigenvalue of S          6.74E-07  (threshold= 1.00E-08)
 Ratio eigmin/eigmax               6.74E-07  (threshold= 1.00E-09)
 Smallest eigenvalue of S kept     6.74E-07  (threshold= 6.74E-07, 0 functions deleted, 556 kept)

 CPU time for CABS singles                        0.69 sec

 CABS-singles contribution of  -0.00143967 patched into reference energy.
 New reference energy         -76.05724002

 AO(A)-basis ORBITAL           loaded. Number of functions:     230
 RI(R)-basis RI                loaded. Number of functions:     556
 DF-basis MP2FIT               loaded. Number of functions:     816

 Screening thresholds:   THRAO=  1.00D-10  THRMO=  1.00D-09  THRPROD=  1.00D-09
                         THRSW=  1.00D-05  THROV=  1.00D-12  THRAOF12= 1.00D-10

 CPU time for 3-index integral evaluation         5.25 sec
 CPU time for first  half transformation          0.71 sec ( 2003.3 MFLOP/sec)
 CPU time for second half transformation          0.01 sec ( 1245.7 MFLOP/sec)
 CPU time for sorting                             0.03 sec
 CPU time for fitting                             0.34 sec ( 1821.3 MFLOP/sec)
 CPU time for tilde quantities                    0.51 sec ( 1827.8 MFLOP/sec)
 CPU time for assembly                            1.38 sec ( 4168.1 MFLOP/sec)
 CPU time for tranop_f12                          1.29 sec ( 3565.8 MFLOP/sec)
 CPU time for f12 integrals (total)              11.76 sec, Elapsed time:     12.11 sec
 F12-matrices built in  4 passes.
 F12-matrices built in  4 passes.
 F12-matrices built in  4 passes.
 F12-matrices built in  4 passes.
 FC-matrix built in  4 passes.
 CPU time for f12 matrices (total)                0.29 sec, Elapsed time:      0.28 sec

 Diagonal F12 approximation with fixed coefficients:  TSING= 0.500,  TTRIP= 0.250 (scaled by -1/beta)

 DF-MP2-F12 energy corrections:
 ==============================
 Approx.                                    Singlet             Triplet             Total
 DF-MP2-F12/3*C(DX,FIX)                -0.029474727118     -0.004856446700     -0.034331173819
 DF-MP2-F12/3*C(FIX)                   -0.024420125336     -0.003809432457     -0.028229557793
 DF-MP2-F12/3C(FIX)                    -0.024553537130     -0.003782165247     -0.028335702377

 DF-MP2-F12 correlation energies:
 ================================
 Approx.                                    Singlet             Triplet             Ecorr            Total Energy
 DF-MP2                                -0.172386638309     -0.098583775367     -0.270970413677    -76.328210435141
 DF-MP2-F12/3*C(DX,FIX)                -0.201861365428     -0.103440222068     -0.305301587495    -76.362541608960
 DF-MP2-F12/3*C(FIX)                   -0.196806763645     -0.102393207824     -0.299199971469    -76.356439992934
 DF-MP2-F12/3C(FIX)                    -0.196940175440     -0.102365940614     -0.299306116054    -76.356546137518

 SCS-DF-MP2 energies (F_SING= 1.20000  F_TRIP= 0.62222  F_PARALLEL= 0.33333):
 ============================================================================
 SCS-DF-MP2                            -0.268204981755    -76.325445003220
 SCS-DF-MP2-F12/3*C(DX,FIX)            -0.306596443355    -76.363836464820
 SCS-DF-MP2-F12/3*C(FIX)               -0.299879445687    -76.357119467152
 SCS-DF-MP2-F12/3C(FIX)                -0.300022573576    -76.357262595041
 Symmetry transformation completed.

 Number of N-1 electron functions:               4
 Number of N-2 electron functions:              10
 Number of singly external CSFs:               900
 Number of doubly external CSFs:            405450
 Total number of CSFs:                      406351

 Pair and operator lists are different

 Length of J-op  integral file:              81.60 MB
 Length of K-op  integral file:             128.10 MB
 Length of 3-ext integral record:             0.00 MB

 Memory could be reduced to 75.63 Mwords without degradation in triples

 Integral transformation finished. Total CPU:  12.34 sec, npass=  1  Memory used:  32.52 MW

 Reference energy:                    -76.05724002

 Adding F12 terms to K(Cij), methodcc=6,  factor= 1.0

 ITER.      SQ.NORM     CORR.ENERGY   TOTAL ENERGY   ENERGY CHANGE        DEN1      VAR(S)    VAR(P)  DIIS     TIME  TIME/IT
   1      1.06307562    -0.27047117   -76.32771119     0.00050722     0.00659261  0.82D-03  0.11D-02  1  1    33.55     3.91
   2      1.06662984    -0.27015637   -76.32739639     0.00031480    -0.00473972  0.14D-04  0.12D-03  2  2    37.40     3.96
   3      1.06795136    -0.27028557   -76.32752559    -0.00012920    -0.00086587  0.99D-05  0.64D-05  3  3    41.29     3.98
   4      1.06848006    -0.27032437   -76.32756439    -0.00003880    -0.00029196  0.43D-06  0.68D-06  4  4    45.13     4.12
   5      1.06857778    -0.27032103   -76.32756105     0.00000334    -0.00002894  0.16D-06  0.46D-07  5  5    49.00     4.10
   6      1.06861115    -0.27031885   -76.32755887     0.00000218    -0.00000490  0.13D-07  0.32D-08  6  6    52.82     4.09
   7      1.06861844    -0.27031842   -76.32755844     0.00000043    -0.00000150  0.11D-08  0.50D-09  6  1    56.67     4.08
   8      1.06861980    -0.27031851   -76.32755853    -0.00000009     0.00000012  0.16D-09  0.61D-10  6  2    60.57     4.07
   9      1.06862034    -0.27031853   -76.32755855    -0.00000002    -0.00000004  0.17D-10  0.85D-11  6  3    64.44     4.06
  10      1.06862042    -0.27031852   -76.32755854     0.00000001     0.00000002  0.33D-11  0.98D-12  6  4    68.32     4.06
  11      1.06862037    -0.27031852   -76.32755855    -0.00000000     0.00000004  0.55D-12  0.21D-12  6  6    72.19     4.06
  12      1.06862037    -0.27031852   -76.32755855     0.00000000     0.00000001  0.82D-13  0.27D-13  6  5    76.13     4.06
  13      1.06862035    -0.27031852   -76.32755855    -0.00000000     0.00000000  0.10D-13  0.38D-14  6  1    80.02     4.06
  14      1.06862035    -0.27031852   -76.32755855    -0.00000000     0.00000000  0.12D-14  0.77D-15  6  2    83.85     4.06
  15      1.06862035    -0.27031852   -76.32755855    -0.00000000    -0.00000000  0.12D-15  0.85D-16  6  3    87.77     4.06
  16      1.06862035    -0.27031852   -76.32755855     0.00000000    -0.00000000  0.16D-16  0.10D-16  6  4    91.74     4.06

 Norm of t1 vector:      0.03798289      S-energy:    -0.00000000      T1 diagnostic:  0.00949572
                                                                       D1 diagnostic:  0.01895504

 Adding energy correction from Wij-K(Fij), methodcc=6  factor= 1.0

  CCSD correlation energy              -0.270318524681
  MP2-F12 correction (uncoupled)       -0.028052292623
  C*T doubles correction               -0.000419697263
  f12b correction                       0.004768238414


 Total CPU time for triples:     35.01 sec

  Ecorr(MP2)                           -0.270978388251
  Ecorr(MP2-F12)                       -0.299314090628
  Scale factor for triples energy       1.104568126484


 RESULTS
 =======

  Reference energy                    -76.055800353204
  F12 singles correction               -0.001439668260

 F12 singles corrections added to reference energy

  New reference energy                -76.057240021465

  F12a singlet correction              -0.024620419356
  F12a triplet correction              -0.003851570530
  F12a total correction                -0.028471989886

 F12a corrections for ansatz F12/3C(FIX) added to CCSD energy

  CCSD-F12a singlet pair energy        -0.208121455466
  CCSD-F12a triplet pair energy        -0.090669058994
  CCSD-F12a correlation energy         -0.298790514568

  Triples (T) contribution (scaled)    -0.009664990677
  Total correlation energy             -0.308455505245

  CCSD-F12a total energy              -76.356030536032
  CCSD[T]-F12a energy                 -76.366055533628
  CCSD-T-F12a energy                  -76.365546753489
 !CCSD(T)-F12a total energy           -76.365695526710

 F12b corrections for ansatz F12/3C(FIX) added to CCSD(T)-F12a energy

  CCSD-F12b singlet pair energy        -0.203711400033
  CCSD-F12b triplet pair energy        -0.090310876012
  CCSD-F12b correlation energy         -0.294022276154

  Triples (T) contribution (scaled)    -0.009664990677
  Total correlation energy             -0.303687266831

  CCSD-F12b total energy              -76.351262297619
  CCSD[T]-F12b energy                 -76.361287295214
  CCSD-T-F12b energy                  -76.360778515076
 !CCSD(T)-F12b total energy           -76.360927288296

 Timing summary (sec):

 STEP                 CPU(USER)    SYS     CPU(TOT)    WALL
 Transformation         12.40      0.54     12.94     12.95
 CCSD iterations        61.97      2.32     64.29     65.07
 Triples                35.01      0.14     35.15     35.20
 MP2-F12                17.39      0.37     17.76     17.85
 F12b energy             3.28      0.14      3.42      3.62

 Program statistics:

 Available memory in ccsd:              1999999871
 Min. memory needed in ccsd:               1862772
 Max. memory used in ccsd:                 2158322
 Max. memory used in cckext:               1445635 (17 integral passes)



 **********************************************************************************************************************************
 DATASETS  * FILE   NREC   LENGTH (MB)   RECORD NAMES
              1      19      222.31       500      610      700      900      950      970     1000      129      960     1100   
                                          VAR    BASINP    GEOM    SYMINP    ZMAT    AOBASIS   BASIS     P2S    ABASIS      S 
                                         1400     1410     1200     1210     1080     1600     1650     1700     1380   
                                           T        V       H0       H01     AOSYM     SMH    MOLCAS    OPER     JKOP   

              2       8        9.09       700     1000      520     2100     7360     7350      200     2101   
                                         GEOM     BASIS   MCVARS     RHF    F12ABS    EF12    OPTIONS    RHF  

 PROGRAMS   *        TOTAL   CCSD(T)    HF-SCF       INT   CCSD(T)    HF-SCF       INT
 CPU TIMES  *       687.46    130.31     12.85      0.24    515.77     14.20     13.80
 REAL TIME  *       709.95 SEC
 DISK USED  *       570.60 MB (local),        7.69 GB (total)
 SF USED    *         1.36 GB
 GA USED    *         4.87 MB       (max)       0.00 MB       (current)
 **********************************************************************************************************************************

 Running procedure: SET_MONOMER2

 Dummy atoms: O19  H37  H38


 Recomputing one-electron integrals since nuclear charges changed


 PROGRAM * SEWARD (Integral evaluation for generally contracted gaussian basis sets)     Author: Roland Lindh, 1990

 Geometry written to block  1 of record 700


 Point group  C1  



 ATOMIC COORDINATES

 NR  ATOM    CHARGE       X              Y              Z

   1  O19     0.00  -12.424571324    5.951692429   -0.288750152
   2  H37     0.00  -14.111151890    6.508027800   -0.711859831
   3  H38     0.00  -12.410587350    5.867599617    1.622329878
   4  C1      6.00   -6.193010455    2.801518980    2.403542658
   5  H41     1.00   -4.656285171    1.699997622    3.119937832
   6  H42     1.00   -5.973046335    4.726205038    2.982932688
   7  H43     1.00   -7.940251230    2.077186956    3.118237078
   8  H44     1.00   -6.176569838    2.685300823    0.384937212

 Bond lengths in Bohr (Angstrom)

 1-2  1.825673808  1-3  1.912980406  4-5  2.021904040  4-6  2.022002335  4-7  2.021953343
     ( 0.966104974)     ( 1.012305636)     ( 1.069945541)     ( 1.069997556)     ( 1.069971630)

 4-8  2.022015060
     ( 1.070004290)

 Bond angles

  2-1-3  104.57658282   5-4-6  109.53398059   5-4-7  109.65604535   5-4-8  108.43490854

  6-4-7  109.49436728   6-4-8  109.86987750   7-4-8  109.83468330

 NUCLEAR CHARGE:                   10
 NUMBER OF PRIMITIVE AOS:         296
 NUMBER OF SYMMETRY AOS:          266
 NUMBER OF CONTRACTIONS:          230   (  230A   )
 NUMBER OF CORE ORBITALS:           1   (    1A   )
 NUMBER OF VALENCE ORBITALS:        8   (    8A   )

 MOLECULE CHANGED: INITIALIZING OCCUPATION AND DUMP RECORDS


 NUCLEAR REPULSION ENERGY   13.68681606

 Basis set:  JKFIT                   
 Basis size:   740
 Attributes:
 Sphericals:   T
 Basis set:  MP2FIT                  
 Basis size:   816
 Attributes:
 Sphericals:   T
 Basis set:  RI                      
 Basis size:   556
 Attributes:
 Sphericals:   T
 Basis set:  TDDFT                   
 Basis size:   816
 Attributes:
 Sphericals:   T

 Eigenvalues of metric

         1 0.568E-04 0.709E-04 0.104E-03 0.105E-03 0.336E-03 0.379E-03 0.666E-03 0.765E-03


 Contracted 2-electron integrals neglected if value below      1.0D-14

 OPERATOR DM      FOR CENTER  0  COORDINATES:    0.000000    0.000000    0.000000


 **********************************************************************************************************************************
 DATASETS  * FILE   NREC   LENGTH (MB)   RECORD NAMES
              1      18       32.04       500      610      700      900      950      970     1000      129      960     1100   
                                          VAR    BASINP    GEOM    SYMINP    ZMAT    AOBASIS   BASIS     P2S    ABASIS      S 
                                         1400     1410     1200     1210     1080     1600     1650     1700   
                                           T        V       H0       H01     AOSYM     SMH    MOLCAS    OPER   

              2       8        9.09       700     1000      520     2100     7360     7350      200     2101   
                                         GEOM     BASIS   MCVARS     RHF    F12ABS    EF12    OPTIONS    RHF  

 PROGRAMS   *        TOTAL       INT   CCSD(T)    HF-SCF       INT   CCSD(T)    HF-SCF       INT
 CPU TIMES  *       687.71      0.24    130.31     12.85      0.24    515.77     14.20     13.80
 REAL TIME  *       711.07 SEC
 DISK USED  *       570.60 MB (local),        7.69 GB (total)
 SF USED    *         1.36 GB
 GA USED    *         4.87 MB       (max)       0.00 MB       (current)
 **********************************************************************************************************************************


 PROGRAM * RHF-SCF (CLOSED SHELL)       Authors: W. Meyer, H.-J. Werner


 NUMBER OF ELECTRONS:       5+    5-    SPACE SYMMETRY=1    SPIN SYMMETRY: Singlet 
 CONVERGENCE THRESHOLDS:    1.00E-08 (Density)    1.00E-11 (Energy)
 MAX. NUMBER OF ITERATIONS:       60
 INTERPOLATION TYPE:            DIIS
 INTERPOLATION STEPS:              2 (START)      1 (STEP)
 LEVEL SHIFTS:                  0.00 (CLOSED)  0.00 (OPEN) 



 Orbital guess generated from atomic densities. Full valence occupancy:    9

 Molecular orbital dump at record        2102.2

 Initial occupancy:   5

 ITERATION    DDIFF          GRAD             ENERGY        2-EL.EN.            DIPOLE MOMENTS         DIIS   ORB.
    1      0.000D+00      0.000D+00       -40.19358857     53.494048    0.00412   -0.00277   -0.00130    0    start
    2      0.000D+00      0.353D-02       -40.21070614     52.213683    0.00132   -0.00089   -0.00038    1    diag
    3      0.324D-02      0.137D-02       -40.21295466     52.664857    0.00185   -0.00125   -0.00055    2    diag
    4      0.919D-03      0.342D-03       -40.21327014     52.609829    0.00165   -0.00111   -0.00048    3    diag
    5      0.304D-03      0.444D-04       -40.21327554     52.612168    0.00162   -0.00110   -0.00047    4    diag
    6      0.743D-04      0.344D-05       -40.21327558     52.612266    0.00162   -0.00110   -0.00047    5    diag
    7      0.631D-05      0.264D-06       -40.21327558     52.612231    0.00162   -0.00109   -0.00047    6    diag
    8      0.962D-06      0.221D-07       -40.21327558     52.612232    0.00162   -0.00109   -0.00047    7    diag
    9      0.191D-06      0.285D-08       -40.21327558     52.612232    0.00162   -0.00109   -0.00047    8    diag
   10      0.119D-07      0.796D-09       -40.21327558     52.612232    0.00162   -0.00109   -0.00047    9    orth
   11      0.105D-08      0.106D-09       -40.21327558     52.612232    0.00162   -0.00109   -0.00047    0    orth

 Final occupancy:   5

 !RHF STATE  1.1 Energy               -40.213275576229
 Nuclear energy                        13.68681606
 One-electron energy                  -80.20620756
 Two-electron energy                   26.30611593
 Virial quotient                       -0.99870066
 !RHF STATE  1.1 Dipole moment          0.00161766    -0.00109452    -0.00046874
 Dipole moment /Debye                   0.00411140    -0.00278181    -0.00119135

 Orbital energies:

         1.1          2.1          3.1          4.1          5.1          6.1          7.1
    -11.197211    -0.950741    -0.551695    -0.549759    -0.547582     0.026367     0.038582


 HOMO      5.1    -0.547582 =     -14.9005eV
 LUMO      6.1     0.026367 =       0.7175eV
 LUMO-HOMO         0.573949 =      15.6179eV


 **********************************************************************************************************************************
 DATASETS  * FILE   NREC   LENGTH (MB)   RECORD NAMES
              1      18       32.04       500      610      700      900      950      970     1000      129      960     1100   
                                          VAR    BASINP    GEOM    SYMINP    ZMAT    AOBASIS   BASIS     P2S    ABASIS      S 
                                         1400     1410     1200     1210     1080     1600     1650     1700   
                                           T        V       H0       H01     AOSYM     SMH    MOLCAS    OPER   

              2       9       13.71       700     1000      520     2100     7360     7350      200     2101     2102   
                                         GEOM     BASIS   MCVARS     RHF    F12ABS    EF12    OPTIONS    RHF      RHF  

 PROGRAMS   *        TOTAL    HF-SCF       INT   CCSD(T)    HF-SCF       INT   CCSD(T)    HF-SCF       INT
 CPU TIMES  *       699.82     12.11      0.24    130.31     12.85      0.24    515.77     14.20     13.80
 REAL TIME  *       724.83 SEC
 DISK USED  *       570.60 MB (local),        7.69 GB (total)
 SF USED    *         1.36 GB
 GA USED    *         4.87 MB       (max)       0.00 MB       (current)
 **********************************************************************************************************************************

 Basis set:  JKFIT                   
 Basis size:   740
 Attributes:
 Sphericals:   T
 Basis set:  MP2FIT                  
 Basis size:   816
 Attributes:
 Sphericals:   T
 Basis set:  RI                      
 Basis size:   556
 Attributes:
 Sphericals:   T
 Basis set:  TDDFT                   
 Basis size:   816
 Attributes:
 Sphericals:   T

 PROGRAM * CCSD (Closed-shell coupled cluster)     Authors: C. Hampel, H.-J. Werner, 1991, M. Deegan, P.J. Knowles, 1992

                                  CCSD-F12 implementation by  H.-J. Werner, 2007

                   Density fitting integral evaluation by F.R. Manby, 2003,2007, G. Knizia, 2010



 Convergence thresholds:  THRVAR = 1.00D-08  THRDEN = 1.00D-10

 CCSD(T)     terms to be evaluated (factor= 1.000)


 Number of core orbitals:           1 (   1 )
 Number of closed-shell orbitals:   4 (   4 )
 Number of external orbitals:     225 ( 225 )

 Molecular orbitals read from record     2102.2  Type=RHF/CANONICAL (state 1.1)

 MP2-F12 correlation treatment (H.-J. Werner, 2006)
 ==================================================

 Using MP2-F12 with ansatz 3C(FIX)

 Using projected zeroth-order Hamiltonian (+Z)

 FOCKRIB=T FOCKRIC=T FOCKRIP=T CABSP=T CABSA=T CABSK=T CABSF=T GBC=F EBC=F DMAT=T NOFIK=T NOPAO=1 SOLVE=-1  USEPAO=0
 EXCH_A= T EXCH_B= F EXCH_C= F EXCH_P= F

 Geminal basis:    OPTFULL  GEM_TYPE=SLATER  BETA=1.0  NGEM=6

 Optimizing Gaussian exponents for each gem_beta

 Geminal optimization for beta= 1.0000
 Weight function:   m=0, omega= 1.4646

 Augmented Hessian optimization of geminal fit. Trust ratio= 0.40000
 Convergence reached after   2 iterations. Final gradient= 7.85D-16, Step= 4.26D-06, Delta= 1.28D-09

 Alpha:                 0.19532     0.81920     2.85917     9.50073    35.69989   197.79328
 Coeff:                 0.27070     0.30552     0.18297     0.10986     0.06810     0.04224


 All pairs explicitly correlated. Number of r12-pairs:           10

 Excluding core orbitals from MO domains

 AO(A)-basis ORBITAL           loaded. Number of functions:     230
 RI(R)-basis RI                loaded. Number of functions:     556
 DF-basis JKFIT                loaded. Number of functions:     740

 Screening thresholds:   THRAO=  1.00D-10  THRMO=  1.00D-09  THRPROD=  1.00D-09
                         THRSW=  1.00D-05  THROV=  1.00D-12  THRAOF12= 1.00D-10

 CPU time for Fock operators                      3.07 sec

 Construction of ABS:
 Smallest eigenvalue of S          1.09E-04  (threshold= 1.00E-08)
 Ratio eigmin/eigmax               1.55E-05  (threshold= 1.00E-09)
 Smallest eigenvalue of S kept     1.09E-04  (threshold= 1.09E-04, 0 functions deleted, 556 kept)

 Construction of CABS:
 Smallest eigenvalue of S          6.74E-07  (threshold= 1.00E-08)
 Ratio eigmin/eigmax               6.74E-07  (threshold= 1.00E-09)
 Smallest eigenvalue of S kept     6.74E-07  (threshold= 6.74E-07, 0 functions deleted, 556 kept)

 CPU time for CABS singles                        0.68 sec

 CABS-singles contribution of  -0.00090961 patched into reference energy.
 New reference energy         -40.21418519

 AO(A)-basis ORBITAL           loaded. Number of functions:     230
 RI(R)-basis RI                loaded. Number of functions:     556
 DF-basis MP2FIT               loaded. Number of functions:     816

 Screening thresholds:   THRAO=  1.00D-10  THRMO=  1.00D-09  THRPROD=  1.00D-09
                         THRSW=  1.00D-05  THROV=  1.00D-12  THRAOF12= 1.00D-10

 CPU time for 3-index integral evaluation         5.22 sec
 CPU time for first  half transformation          0.67 sec ( 2098.6 MFLOP/sec)
 CPU time for sorting                             0.03 sec
 CPU time for fitting                             0.40 sec (   33.3 MFLOP/sec)
 CPU time for tilde quantities                    0.41 sec ( 5138.5 MFLOP/sec)
 CPU time for assembly                            1.31 sec ( 3488.7 MFLOP/sec)
 CPU time for tranop_f12                          1.21 sec ( 4423.7 MFLOP/sec)
 CPU time for f12 integrals (total)              11.55 sec, Elapsed time:     12.05 sec
 F12-matrices built in  4 passes.
 F12-matrices built in  4 passes.
 F12-matrices built in  4 passes.
 F12-matrices built in  4 passes.
 FC-matrix built in  4 passes.
 CPU time for f12 matrices (total)                0.28 sec, Elapsed time:      0.31 sec

 Diagonal F12 approximation with fixed coefficients:  TSING= 0.500,  TTRIP= 0.250 (scaled by -1/beta)

 DF-MP2-F12 energy corrections:
 ==============================
 Approx.                                    Singlet             Triplet             Total
 DF-MP2-F12/3*C(DX,FIX)                -0.016713333241     -0.001928208740     -0.018641541981
 DF-MP2-F12/3*C(FIX)                   -0.015476099834     -0.001786648778     -0.017262748612
 DF-MP2-F12/3C(FIX)                    -0.015460390873     -0.001777469904     -0.017237860777

 DF-MP2-F12 correlation energies:
 ================================
 Approx.                                    Singlet             Triplet             Ecorr            Total Energy
 DF-MP2                                -0.145432321643     -0.055064648939     -0.200496970582    -40.414682156686
 DF-MP2-F12/3*C(DX,FIX)                -0.162145654883     -0.056992857679     -0.219138512562    -40.433323698667
 DF-MP2-F12/3*C(FIX)                   -0.160908421476     -0.056851297718     -0.217759719194    -40.431944905298
 DF-MP2-F12/3C(FIX)                    -0.160892712515     -0.056842118843     -0.217734831359    -40.431920017463

 SCS-DF-MP2 energies (F_SING= 1.20000  F_TRIP= 0.62222  F_PARALLEL= 0.33333):
 ============================================================================
 SCS-DF-MP2                            -0.208781234200    -40.422966420304
 SCS-DF-MP2-F12/3*C(DX,FIX)            -0.230037008416    -40.444222194520
 SCS-DF-MP2-F12/3*C(FIX)               -0.228464246574    -40.442649432678
 SCS-DF-MP2-F12/3C(FIX)                -0.228439684521    -40.442624870625
 Symmetry transformation completed.

 Number of N-1 electron functions:               4
 Number of N-2 electron functions:              10
 Number of singly external CSFs:               900
 Number of doubly external CSFs:            405450
 Total number of CSFs:                      406351

 Pair and operator lists are different

 Length of J-op  integral file:              81.60 MB
 Length of K-op  integral file:             128.10 MB
 Length of 3-ext integral record:             0.00 MB

 Memory could be reduced to 75.63 Mwords without degradation in triples

 Integral transformation finished. Total CPU:  12.13 sec, npass=  1  Memory used:  32.52 MW

 Reference energy:                    -40.21418519

 Adding F12 terms to K(Cij), methodcc=6,  factor= 1.0

 ITER.      SQ.NORM     CORR.ENERGY   TOTAL ENERGY   ENERGY CHANGE        DEN1      VAR(S)    VAR(P)  DIIS     TIME  TIME/IT
   1      1.06945910    -0.21556569   -40.42975088    -0.01505876    -0.00938255  0.67D-03  0.94D-03  1  1    33.16     3.92
   2      1.07448663    -0.21613348   -40.43031867    -0.00056779    -0.00524379  0.17D-04  0.83D-04  2  2    37.01     3.99
   3      1.07589367    -0.21628845   -40.43047363    -0.00015496    -0.00097872  0.20D-05  0.51D-05  3  3    40.83     4.00
   4      1.07623180    -0.21630080   -40.43048599    -0.00001235    -0.00017401  0.10D-06  0.25D-06  4  4    44.64     4.02
   5      1.07627648    -0.21629953   -40.43048471     0.00000127    -0.00000980  0.77D-08  0.16D-07  5  5    48.40     4.02
   6      1.07628232    -0.21629854   -40.43048372     0.00000099    -0.00000186  0.56D-09  0.12D-08  6  6    52.20     4.03
   7      1.07628346    -0.21629822   -40.43048341     0.00000031    -0.00000072  0.38D-10  0.94D-10  6  1    56.13     4.03
   8      1.07628347    -0.21629833   -40.43048352    -0.00000011     0.00000013  0.36D-11  0.53D-11  6  3    59.96     4.03
   9      1.07628357    -0.21629832   -40.43048350     0.00000002    -0.00000007  0.30D-12  0.45D-12  6  2    63.84     4.05
  10      1.07628358    -0.21629831   -40.43048350     0.00000000     0.00000000  0.35D-13  0.46D-13  6  4    67.66     4.05
  11      1.07628358    -0.21629831   -40.43048350     0.00000000     0.00000000  0.27D-14  0.47D-14  6  5    71.54     4.05
  12      1.07628358    -0.21629831   -40.43048350     0.00000000     0.00000000  0.55D-16  0.57D-15  6  6    75.44     4.05
  13      1.07628358    -0.21629831   -40.43048350    -0.00000000     0.00000000  0.75D-17  0.63D-16  6  1    79.33     4.06
  14      1.07628358    -0.21629831   -40.43048350    -0.00000000     0.00000000  0.14D-17  0.79D-17  6  3    83.23     4.06

 Norm of t1 vector:      0.03361776      S-energy:     0.00000000      T1 diagnostic:  0.00840444
                                                                       D1 diagnostic:  0.01339565

 Adding energy correction from Wij-K(Fij), methodcc=6  factor= 1.0

  CCSD correlation energy              -0.216298310498
  MP2-F12 correction (uncoupled)       -0.017251589229
  C*T doubles correction               -0.000192791101
  f12b correction                       0.003656320589

 Total CPU time for triples:     34.31 sec

  Ecorr(MP2)                           -0.200506936608
  Ecorr(MP2-F12)                       -0.217744797385
  Scale factor for triples energy       1.085971393649


 RESULTS
 =======

  Reference energy                    -40.213275576229
  F12 singles correction               -0.000909609875

 F12 singles corrections added to reference energy

  New reference energy                -40.214185186104

  F12a singlet correction              -0.015640986076
  F12a triplet correction              -0.001803394253
  F12a total correction                -0.017444380330

 F12a corrections for ansatz F12/3C(FIX) added to CCSD energy

  CCSD-F12a singlet pair energy        -0.178526296140
  CCSD-F12a triplet pair energy        -0.055216394711
  CCSD-F12a correlation energy         -0.233742690827

  Triples (T) contribution (scaled)    -0.006800720691
  Total correlation energy             -0.240543411519

  CCSD-F12a total energy              -40.447927876932
  CCSD[T]-F12a energy                 -40.454967780455
  CCSD-T-F12a energy                  -40.454653820127
 !CCSD(T)-F12a total energy           -40.454728597623

 F12b corrections for ansatz F12/3C(FIX) added to CCSD(T)-F12a energy

  CCSD-F12b singlet pair energy        -0.175041052454
  CCSD-F12b triplet pair energy        -0.055045317809
  CCSD-F12b correlation energy         -0.230086370238

  Triples (T) contribution (scaled)    -0.006800720691
  Total correlation energy             -0.236887090929

  CCSD-F12b total energy              -40.444271556342
  CCSD[T]-F12b energy                 -40.451311459866
  CCSD-T-F12b energy                  -40.450997499538
 !CCSD(T)-F12b total energy           -40.451072277034

 Timing summary (sec):

 STEP                 CPU(USER)    SYS     CPU(TOT)    WALL
 Transformation         12.18      0.51     12.69     12.78
 CCSD iterations        53.89      2.49     56.38     56.87
 Triples                34.31      0.13     34.44     34.68
 MP2-F12                17.18      0.57     17.75     17.86
 F12b energy             3.28      0.12      3.40      3.43

 Program statistics:

 Available memory in ccsd:              1999999866
 Min. memory needed in ccsd:               1862772
 Max. memory used in ccsd:                 2158322
 Max. memory used in cckext:               1445635 (15 integral passes)



 **********************************************************************************************************************************
 DATASETS  * FILE   NREC   LENGTH (MB)   RECORD NAMES
              1      19      222.31       500      610      700      900      950      970     1000      129      960     1100   
                                          VAR    BASINP    GEOM    SYMINP    ZMAT    AOBASIS   BASIS     P2S    ABASIS      S 
                                         1400     1410     1200     1210     1080     1600     1650     1700     1380   
                                           T        V       H0       H01     AOSYM     SMH    MOLCAS    OPER     JKOP   

              2       9       13.71       700     1000      520     2100     7360     7350      200     2101     2102   
                                         GEOM     BASIS   MCVARS     RHF    F12ABS    EF12    OPTIONS    RHF      RHF  

 PROGRAMS   *        TOTAL   CCSD(T)    HF-SCF       INT   CCSD(T)    HF-SCF       INT   CCSD(T)    HF-SCF       INT
 CPU TIMES  *       820.89    121.06     12.11      0.24    130.31     12.85      0.24    515.77     14.20     13.80
 REAL TIME  *       851.19 SEC
 DISK USED  *       570.60 MB (local),        7.69 GB (total)
 SF USED    *         1.36 GB
 GA USED    *         4.87 MB       (max)       0.00 MB       (current)
 **********************************************************************************************************************************
 Molecular orbitals read from record     2102.2  Type=RHF/CANONICAL (state 1.1)
 Occupation numbers read from record     2102.2  Type=RHF/RHF (state 1.1)
 Orbital energies read from record       2102.2  Type=RHF/CANONICAL (state 1.1)
 Redundancy group numbers read from rec  2102.2  Type=RHF/RHF (state 1.1)

 CCSD(T)-F12/aug-cc-pVTZ energy=    -40.451072277034

     CCSD(T)-F12          HF-SCF     CCSD(T)-F12          HF-SCF     CCSD(T)-F12          HF-SCF
    -40.45107228    -40.21327558    -76.36092729    -76.05580035   -116.81242839   -116.26896977
 **********************************************************************************************************************************
 Molpro calculation terminated
