
 Primary working directories    : /scratch/klimes/383170/molpro.3HY2Th9cGK
 Secondary working directories  : /scratch/klimes/383170/molpro.3HY2Th9cGK
 Wavefunction directory         : /scratch/klimes/383170/
 Main file repository           : /scratch/klimes/383170/molpro.3HY2Th9cGK/

 id        : karlovklimes

 Nodes                      nprocs
 nc-01.cc.karlov.mff.cuni.cz    4

 Using customized tuning parameters: mindgm=1; mindgv=20; mindgc=4; mindgr=1; noblas=0; minvec=7
 default implementation of scratch files=sf  


 Variables initialized (930), CPU time= 0.01 sec
                                                                                 !gdirect
 memory,2000,m
 gthresh,orbital=1d-10,energy=1d-10,grid=1d-8
 
 symmetry,nosym
 angstrom
 geometry={
 O20        -6.561800000000      3.004400000000      2.437800000000
 H39        -6.427800000000      2.081100000000      2.759600000000
 H40        -5.876000000000      3.542400000000      2.882400000000
 C1        -3.277200000000      1.482500000000      1.271900000000
 H41        -2.464000000000      0.899600000000      1.651000000000
 H42        -3.160800000000      2.501000000000      1.578500000000
 H43        -4.201800000000      1.099200000000      1.650100000000
 H44        -3.268500000000      1.421000000000      0.203700000000
 }
 
 nkerna=1
 nkernb=1
 
 gf=0
 sing=1
 thrdum=1d-4
 gridthr=1d-8
 
 basis={
 set,orbital
 default,avtz
 set,jkfit
 default,avqz/jkfit
 set,mp2fit
 default,avqz/mp2fit
 set,ri
 default,avqz/optri
 set,tddft
 default,avqz/mp2fit
 }
 
 proc set_monomer1
 dummy,4,5,6,7,8
 endproc
 
 proc set_monomer2
 dummy,1,2,3
 endproc
 
                                                                                 !12 energy
 {hf,accu=1.d-16}
 {ccsd(t)-f12,df_basis=mp2fit,df_basis_exch=jkfit,ri_basis=ri,scale_trip=1,THRAOF12=1d-10}
 
 set_monomer1
 {hf,accu=1.d-16}
 {ccsd(t)-f12,df_basis=mp2fit,df_basis_exch=jkfit,ri_basis=ri,scale_trip=1,THRAOF12=1d-10}
 
 set_monomer2
 {hf,accu=1.d-16}
 {ccsd(t)-f12,df_basis=mp2fit,df_basis_exch=jkfit,ri_basis=ri,scale_trip=1,THRAOF12=1d-10}
 
 Commands  initialized (760), CPU time= 0.01 sec, 617 directives.
 Default parameters read. Elapsed time= 0.19 sec

 Checking input...
 Passed
1


                                         ***  PROGRAM SYSTEM MOLPRO  ***
                                       Copyright, TTI GmbH Stuttgart, 2015
                                    Version 2019.1 linked Jan 14 2019 13:09:19


 **********************************************************************************************************************************
 LABEL *                                                                                 
  64 bit mpp version                                                                     DATE: 11-Mar-20          TIME: 16:30:09  
 **********************************************************************************************************************************

 SHA1:             d688ac825633d238f2093ded1675ba87ccd55965
 **********************************************************************************************************************************

 THRESHOLDS:

 ZERO    =  1.00D-12  ONEINT  =  1.00D-12  TWOINT  =  1.00D-11  PREFAC  =  1.00D-14  XXXXXX  =  1.00D-09  EORDER  =  1.00D-04
 ENERGY  =  1.00D-10  ETEST   =  0.00D+00  EDENS   =  0.00D+00  THRDEDEF=  1.00D-06  GRADIENT=  1.00D-02  STEP    =  1.00D-03
 ORBITAL =  1.00D-10  CIVEC   =  1.00D-05  COEFF   =  1.00D-04  PRINTCI =  5.00D-02  PUNCHCI =  9.90D+01  OPTGRAD =  3.00D-04
 OPTENERG=  1.00D-06  OPTSTEP =  3.00D-04  THRGRAD =  1.00D-10  COMPRESS=  1.00D-11  VARMIN  =  1.00D-07  VARMAX  =  1.00D-03
 THRDOUB =  0.00D+00  THRDIV  =  1.00D-05  THRRED  =  1.00D-07  THRPSP  =  1.00D+00  THRDC   =  1.00D-10  THRCS   =  1.00D-10
 THRNRM  =  1.00D-08  THREQ   =  0.00D+00  THRDE   =  1.00D+00  THRREF  =  1.00D-05  SPARFAC =  1.00D+00  THRDLP  =  1.00D-07
 THRDIA  =  1.00D-10  THRDLS  =  1.00D-07  THRGPS  =  0.00D+00  THRKEX  =  0.00D+00  THRDIS  =  2.00D-01  THRVAR  =  1.00D-10
 THRLOC  =  1.00D-06  THRGAP  =  1.00D-06  THRLOCT = -1.00D+00  THRGAPT = -1.00D+00  THRORB  =  1.00D-06  THRMLTP =  0.00D+00
 THRCPQCI=  1.00D-10  KEXTA   =  0.00D+00  THRCOARS=  0.00D+00  SYMTOL  =  1.00D-06  GRADTOL =  1.00D-06  THROVL  =  1.00D-08
 THRORTH =  1.00D-08  GRID    =  1.00D-08  GRIDMAX =  1.00D-03  DTMAX   =  0.00D+00  THROCCDE=  1.00D-01  THROCCDE=  1.00D-01
 THRPRINT=  2.50D-01


 Variable memory set to 2000000000 words,  buffer space 

 ZSYMEL=NOSYM
 ZUNIT=ANG


Geometry recognized as XYZ

 SETTING NKERNA         =         1.00000000                                  
 SETTING NKERNB         =         1.00000000                                  
 SETTING GF             =     0.00000000D+00                                  
 SETTING SING           =         1.00000000                                  
 SETTING THRDUM         =     1.00000000D-04                                  
 SETTING GRIDTHR        =     1.00000000D-08                                  
 SETTING BASIS          =    AVTZ


 Recomputing integrals since basis changed


 Using spherical harmonics

 Library entry O      S aug-cc-pVTZ          selected for orbital group  1
 Library entry O      P aug-cc-pVTZ          selected for orbital group  1
 Library entry O      D aug-cc-pVTZ          selected for orbital group  1
 Library entry O      F aug-cc-pVTZ          selected for orbital group  1
 Library entry H      S aug-cc-pVTZ          selected for orbital group  2
 Library entry H      P aug-cc-pVTZ          selected for orbital group  2
 Library entry H      D aug-cc-pVTZ          selected for orbital group  2
 Library entry C      S aug-cc-pVTZ          selected for orbital group  3
 Library entry C      P aug-cc-pVTZ          selected for orbital group  3
 Library entry C      D aug-cc-pVTZ          selected for orbital group  3
 Library entry C      F aug-cc-pVTZ          selected for orbital group  3


 PROGRAM * SEWARD (Integral evaluation for generally contracted gaussian basis sets)     Author: Roland Lindh, 1990

 Geometry written to block  1 of record 700


 Point group  C1  



 ATOMIC COORDINATES

 NR  ATOM    CHARGE       X              Y              Z

   1  O20     8.00  -12.400004884    5.677493169    4.606774346
   2  H39     1.00  -12.146781583    3.932709038    5.214888213
   3  H40     1.00  -11.104030708    6.694165824    5.446946581
   4  C1      6.00   -6.193010455    2.801518980    2.403542658
   5  H41     1.00   -4.656285171    1.699997622    3.119937832
   6  H42     1.00   -5.973046335    4.726205038    2.982932688
   7  H43     1.00   -7.940251230    2.077186956    3.118237078
   8  H44     1.00   -6.176569838    2.685300823    0.384937212

 Bond lengths in Bohr (Angstrom)

 1-2  1.864992273  1-3  1.849070506  4-5  2.021904040  4-6  2.022002335  4-7  2.021953343
     ( 0.986911409)     ( 0.978485973)     ( 1.069945541)     ( 1.069997556)     ( 1.069971630)

 4-8  2.022015060
     ( 1.070004290)

 Bond angles

  2-1-3  105.72790617   5-4-6  109.53398059   5-4-7  109.65604535   5-4-8  108.43490854

  6-4-7  109.49436728   6-4-8  109.86987750   7-4-8  109.83468330

 NUCLEAR CHARGE:                   20
 NUMBER OF PRIMITIVE AOS:         296
 NUMBER OF SYMMETRY AOS:          266
 NUMBER OF CONTRACTIONS:          230   (  230A   )
 NUMBER OF CORE ORBITALS:           2   (    2A   )
 NUMBER OF VALENCE ORBITALS:       14   (   14A   )


 NUCLEAR REPULSION ENERGY   36.69183171


 Basis set:  JKFIT                   
 Basis size:   740
 Attributes:
 Sphericals:   T
 Basis set:  MP2FIT                  
 Basis size:   816
 Attributes:
 Sphericals:   T
 Basis set:  RI                      
 Basis size:   556
 Attributes:
 Sphericals:   T
 Basis set:  TDDFT                   
 Basis size:   816
 Attributes:
 Sphericals:   T

 **********************************************************************************************************************************


 Eigenvalues of metric

         1 0.657E-04 0.803E-04 0.967E-04 0.101E-03 0.342E-03 0.381E-03 0.656E-03 0.698E-03


 Contracted 2-electron integrals neglected if value below      1.0D-14
 AO integral compression algorithm  1   Integral accuracy      1.0D-14

     2280.653 MB (compressed) written to integral file ( 71.1%)

     Node minimum: 532.939 MB, node maximum: 597.688 MB


 NUMBER OF SORTED TWO-ELECTRON INTEGRALS:   88219044.     BUFFER LENGTH:  32768
 NUMBER OF SEGMENTS:   6  SEGMENT LENGTH:   15998348      RECORD LENGTH: 524288

 Memory used in sort:      16.56 MW

 SORT1 READ   400769927. AND WROTE    83144267. INTEGRALS IN    241 RECORDS. CPU TIME:     7.58 SEC, REAL TIME:     8.43 SEC
 SORT2 READ   332329507. AND WROTE   352862895. INTEGRALS IN   8688 RECORDS. CPU TIME:     2.08 SEC, REAL TIME:     2.70 SEC

 Node minimum:    88205762.  Node maximum:    88225686. integrals

 OPERATOR DM      FOR CENTER  0  COORDINATES:    0.000000    0.000000    0.000000


 **********************************************************************************************************************************
 DATASETS  * FILE   NREC   LENGTH (MB)   RECORD NAMES
              1      18       32.04       500      610      700      900      950      970     1000      129      960     1100   
                                          VAR    BASINP    GEOM    SYMINP    ZMAT    AOBASIS   BASIS     P2S    ABASIS      S 
                                         1400     1410     1200     1210     1080     1600     1650     1700   
                                           T        V       H0       H01     AOSYM     SMH    MOLCAS    OPER   

 PROGRAMS   *        TOTAL       INT
 CPU TIMES  *        14.50     14.28
 REAL TIME  *        19.33 SEC
 DISK USED  *        32.49 MB (local),        6.35 GB (total)
 GA USED    *         0.00 MB       (max)       0.00 MB       (current)
 **********************************************************************************************************************************


 PROGRAM * RHF-SCF (CLOSED SHELL)       Authors: W. Meyer, H.-J. Werner


 NUMBER OF ELECTRONS:      10+   10-    SPACE SYMMETRY=1    SPIN SYMMETRY: Singlet 
 CONVERGENCE THRESHOLDS:    1.00E-08 (Density)    1.00E-11 (Energy)
 MAX. NUMBER OF ITERATIONS:       60
 INTERPOLATION TYPE:            DIIS
 INTERPOLATION STEPS:              2 (START)      1 (STEP)
 LEVEL SHIFTS:                  0.00 (CLOSED)  0.00 (OPEN) 



 Orbital guess generated from atomic densities. Full valence occupancy:   16

 Molecular orbital dump at record        2100.2

 Initial occupancy:  10

 ITERATION    DDIFF          GRAD             ENERGY        2-EL.EN.            DIPOLE MOMENTS         DIIS   ORB.
    1      0.000D+00      0.000D+00      -116.21217435    158.771666    0.79888   -0.37774    0.74022    0    start
    2      0.000D+00      0.522D-02      -116.25609610    153.956346    0.47262   -0.21047    0.38406    1    diag
    3      0.551D-02      0.307D-02      -116.26955882    155.970588    0.55485   -0.25190    0.47597    2    diag
    4      0.183D-02      0.456D-03      -116.27021929    155.859734    0.54679   -0.24801    0.47009    3    diag
    5      0.399D-03      0.134D-03      -116.27028716    155.853919    0.54669   -0.24794    0.46957    4    diag
    6      0.146D-03      0.326D-04      -116.27029096    155.859862    0.54619   -0.24777    0.46903    5    diag
    7      0.419D-04      0.630D-05      -116.27029118    155.858285    0.54620   -0.24779    0.46905    6    diag
    8      0.117D-04      0.161D-05      -116.27029120    155.858438    0.54616   -0.24778    0.46900    7    diag
    9      0.240D-05      0.363D-06      -116.27029120    155.858411    0.54615   -0.24777    0.46898    8    diag
   10      0.780D-06      0.434D-07      -116.27029120    155.858413    0.54615   -0.24777    0.46898    9    orth
   11      0.574D-07      0.116D-07      -116.27029120    155.858414    0.54615   -0.24777    0.46898    9    diag
   12      0.246D-07      0.320D-08      -116.27029120    155.858413    0.54615   -0.24777    0.46898    9    diag
   13      0.490D-08      0.852D-09      -116.27029120    155.858414    0.54615   -0.24777    0.46898    0    orth

 Final occupancy:  10

 !RHF STATE  1.1 Energy              -116.270291200766
 Nuclear energy                        36.69183171
 One-electron energy                 -230.89132981
 Two-electron energy                   77.92920689
 Virial quotient                       -1.00121533
 !RHF STATE  1.1 Dipole moment          0.54614669    -0.24776695     0.46897995
 Dipole moment /Debye                   1.38807550    -0.62971952     1.19195007

 Orbital energies:

         1.1          2.1          3.1          4.1          5.1          6.1          7.1          8.1          9.1         10.1
    -20.570079   -11.201234    -1.339338    -0.954651    -0.705746    -0.577799    -0.555921    -0.554117    -0.551007    -0.506566

        11.1         12.1
      0.026462     0.042590


 HOMO     10.1    -0.506566 =     -13.7844eV
 LUMO     11.1     0.026462 =       0.7201eV
 LUMO-HOMO         0.533028 =      14.5044eV


 **********************************************************************************************************************************
 DATASETS  * FILE   NREC   LENGTH (MB)   RECORD NAMES
              1      18       32.04       500      610      700      900      950      970     1000      129      960     1100   
                                          VAR    BASINP    GEOM    SYMINP    ZMAT    AOBASIS   BASIS     P2S    ABASIS      S 
                                         1400     1410     1200     1210     1080     1600     1650     1700   
                                           T        V       H0       H01     AOSYM     SMH    MOLCAS    OPER   

              2       4        3.96       700     1000      520     2100   
                                         GEOM     BASIS   MCVARS     RHF  

 PROGRAMS   *        TOTAL    HF-SCF       INT
 CPU TIMES  *        29.33     14.83     14.28
 REAL TIME  *        35.54 SEC
 DISK USED  *        39.90 MB (local),        6.38 GB (total)
 SF USED    *         0.21 MB
 GA USED    *         0.00 MB       (max)       0.00 MB       (current)
 **********************************************************************************************************************************

 Basis set:  JKFIT                   
 Basis size:   740
 Attributes:
 Sphericals:   T
 Basis set:  MP2FIT                  
 Basis size:   816
 Attributes:
 Sphericals:   T
 Basis set:  RI                      
 Basis size:   556
 Attributes:
 Sphericals:   T
 Basis set:  TDDFT                   
 Basis size:   816
 Attributes:
 Sphericals:   T

 PROGRAM * CCSD (Closed-shell coupled cluster)     Authors: C. Hampel, H.-J. Werner, 1991, M. Deegan, P.J. Knowles, 1992

                                  CCSD-F12 implementation by  H.-J. Werner, 2007

                   Density fitting integral evaluation by F.R. Manby, 2003,2007, G. Knizia, 2010



 Convergence thresholds:  THRVAR = 1.00D-08  THRDEN = 1.00D-10

 CCSD(T)     terms to be evaluated (factor= 1.000)


 Number of core orbitals:           2 (   2 )
 Number of closed-shell orbitals:   8 (   8 )
 Number of external orbitals:     220 ( 220 )

 Molecular orbitals read from record     2100.2  Type=RHF/CANONICAL (state 1.1)

 MP2-F12 correlation treatment (H.-J. Werner, 2006)
 ==================================================

 Using MP2-F12 with ansatz 3C(FIX)

 Using projected zeroth-order Hamiltonian (+Z)

 FOCKRIB=T FOCKRIC=T FOCKRIP=T CABSP=T CABSA=T CABSK=T CABSF=T GBC=F EBC=F DMAT=T NOFIK=T NOPAO=1 SOLVE=-1  USEPAO=0
 EXCH_A= T EXCH_B= F EXCH_C= F EXCH_P= F

 Geminal basis:    OPTFULL  GEM_TYPE=SLATER  BETA=1.0  NGEM=6

 Optimizing Gaussian exponents for each gem_beta

 Geminal optimization for beta= 1.0000
 Weight function:   m=0, omega= 1.4646

 Augmented Hessian optimization of geminal fit. Trust ratio= 0.40000
 Convergence reached after   2 iterations. Final gradient= 7.85D-16, Step= 4.26D-06, Delta= 1.28D-09

 Alpha:                 0.19532     0.81920     2.85917     9.50073    35.69989   197.79328
 Coeff:                 0.27070     0.30552     0.18297     0.10986     0.06810     0.04224


 All pairs explicitly correlated. Number of r12-pairs:           36

 Excluding core orbitals from MO domains

 AO(A)-basis ORBITAL           loaded. Number of functions:     230
 RI(R)-basis RI                loaded. Number of functions:     556
 DF-basis JKFIT                loaded. Number of functions:     740

 Screening thresholds:   THRAO=  1.00D-10  THRMO=  1.00D-09  THRPROD=  1.00D-09
                         THRSW=  1.00D-05  THROV=  1.00D-12  THRAOF12= 1.00D-10

 CPU time for Fock operators                      3.73 sec

 Construction of ABS:
 Smallest eigenvalue of S          1.17E-04  (threshold= 1.00E-08)
 Ratio eigmin/eigmax               1.66E-05  (threshold= 1.00E-09)
 Smallest eigenvalue of S kept     1.17E-04  (threshold= 1.17E-04, 0 functions deleted, 556 kept)

 Construction of CABS:
 Smallest eigenvalue of S          6.55E-07  (threshold= 1.00E-08)
 Ratio eigmin/eigmax               6.55E-07  (threshold= 1.00E-09)
 Smallest eigenvalue of S kept     6.55E-07  (threshold= 6.55E-07, 0 functions deleted, 556 kept)

 CPU time for CABS singles                        0.69 sec

 CABS-singles contribution of  -0.00236518 patched into reference energy.
 New reference energy        -116.27265639

 AO(A)-basis ORBITAL           loaded. Number of functions:     230
 RI(R)-basis RI                loaded. Number of functions:     556
 DF-basis MP2FIT               loaded. Number of functions:     816

 Screening thresholds:   THRAO=  1.00D-10  THRMO=  1.00D-09  THRPROD=  1.00D-09
                         THRSW=  1.00D-05  THROV=  1.00D-12  THRAOF12= 1.00D-10

 CPU time for 3-index integral evaluation         5.55 sec
 CPU time for first  half transformation          1.10 sec ( 2640.5 MFLOP/sec)
 CPU time for second half transformation          0.06 sec (  956.8 MFLOP/sec)
 CPU time for sorting                             0.07 sec
 CPU time for fitting                             0.54 sec ( 4024.7 MFLOP/sec)
 CPU time for tilde quantities                    0.63 sec ( 4379.9 MFLOP/sec)
 CPU time for assembly                            4.56 sec ( 4343.4 MFLOP/sec)
 CPU time for tranop_f12                          4.44 sec ( 4299.5 MFLOP/sec)
 CPU time for f12 integrals (total)              23.77 sec, Elapsed time:     24.77 sec
 F12-matrices built in  4 passes.
 F12-matrices built in  4 passes.
 F12-matrices built in  4 passes.
 F12-matrices built in  4 passes.
 FC-matrix built in  4 passes.
 CPU time for f12 matrices (total)                1.31 sec, Elapsed time:      1.38 sec

 Diagonal F12 approximation with fixed coefficients:  TSING= 0.500,  TTRIP= 0.250 (scaled by -1/beta)

 DF-MP2-F12 energy corrections:
 ==============================
 Approx.                                    Singlet             Triplet             Total
 DF-MP2-F12/3*C(DX,FIX)                -0.046188429146     -0.006800071408     -0.052988500554
 DF-MP2-F12/3*C(FIX)                   -0.039883465972     -0.005611327426     -0.045494793397
 DF-MP2-F12/3C(FIX)                    -0.040003624631     -0.005577462133     -0.045581086765

 DF-MP2-F12 correlation energies:
 ================================
 Approx.                                    Singlet             Triplet             Ecorr            Total Energy
 DF-MP2                                -0.317684050140     -0.154005695776     -0.471689745917   -116.744346131101
 DF-MP2-F12/3*C(DX,FIX)                -0.363872479287     -0.160805767184     -0.524678246471   -116.797334631655
 DF-MP2-F12/3*C(FIX)                   -0.357567516112     -0.159617023202     -0.517184539314   -116.789840924498
 DF-MP2-F12/3C(FIX)                    -0.357687674772     -0.159583157910     -0.517270832681   -116.789927217865

 SCS-DF-MP2 energies (F_SING= 1.20000  F_TRIP= 0.62222  F_PARALLEL= 0.33333):
 ============================================================================
 SCS-DF-MP2                            -0.477046626429   -116.749703011613
 SCS-DF-MP2-F12/3*C(DX,FIX)            -0.536703896947   -116.809360282131
 SCS-DF-MP2-F12/3*C(FIX)               -0.528398278216   -116.801054663399
 SCS-DF-MP2-F12/3C(FIX)                -0.528521396870   -116.801177782054
 Symmetry transformation completed.

 Number of N-1 electron functions:               8
 Number of N-2 electron functions:              36
 Number of singly external CSFs:              1760
 Number of doubly external CSFs:           1549680
 Total number of CSFs:                     1551441

 Pair and operator lists are different

 Length of J-op  integral file:             315.61 MB
 Length of K-op  integral file:             368.50 MB
 Length of 3-ext integral record:             0.00 MB

 Memory could be reduced to 116.32 Mwords without degradation in triples

 Integral transformation finished. Total CPU:  25.90 sec, npass=  1  Memory used:  59.34 MW

 Reference energy:                   -116.27265639

 Adding F12 terms to K(Cij), methodcc=6,  factor= 1.0

 ITER.      SQ.NORM     CORR.ENERGY   TOTAL ENERGY   ENERGY CHANGE        DEN1      VAR(S)    VAR(P)  DIIS     TIME  TIME/IT
   1      1.13237253    -0.48632000  -116.75897638    -0.01461290    -0.00292913  0.15D-02  0.20D-02  1  1    72.45    15.01
   2      1.14067130    -0.48659127  -116.75924766    -0.00027127    -0.00974886  0.28D-04  0.23D-03  2  2    87.76    15.32
   3      1.14357520    -0.48685157  -116.75950796    -0.00026030    -0.00197845  0.13D-04  0.12D-04  3  3   102.94    15.35
   4      1.14445893    -0.48690694  -116.75956332    -0.00005537    -0.00048541  0.53D-06  0.11D-05  4  4   118.19    15.37
   5      1.14460635    -0.48690159  -116.75955797     0.00000535    -0.00003989  0.21D-06  0.78D-07  5  5   133.44    15.40
   6      1.14464755    -0.48689860  -116.75955498     0.00000299    -0.00000628  0.19D-07  0.62D-08  6  6   148.75    15.42
   7      1.14465735    -0.48689788  -116.75955426     0.00000072    -0.00000258  0.19D-08  0.10D-08  6  2   164.05    15.43
   8      1.14465956    -0.48689775  -116.75955414     0.00000012    -0.00000030  0.37D-09  0.11D-09  6  1   179.33    15.45
   9      1.14466038    -0.48689783  -116.75955422    -0.00000008     0.00000000  0.35D-10  0.17D-10  6  3   194.45    15.46
  10      1.14466057    -0.48689782  -116.75955421     0.00000001     0.00000003  0.43D-11  0.23D-11  6  4   209.53    15.45
  11      1.14466051    -0.48689783  -116.75955422    -0.00000001     0.00000008  0.78D-12  0.33D-12  6  5   224.54    15.51
  12      1.14466048    -0.48689783  -116.75955422    -0.00000000     0.00000002  0.15D-12  0.48D-13  6  6   240.12    15.54
  13      1.14466046    -0.48689783  -116.75955422    -0.00000000     0.00000001  0.23D-13  0.74D-14  6  2   255.18    15.52
  14      1.14466045    -0.48689783  -116.75955422    -0.00000000     0.00000000  0.29D-14  0.14D-14  6  1   270.90    15.60
  15      1.14466045    -0.48689783  -116.75955422    -0.00000000    -0.00000000  0.29D-15  0.17D-15  6  3   286.01    15.59
  16      1.14466045    -0.48689783  -116.75955422     0.00000000    -0.00000000  0.43D-16  0.23D-16  6  4   301.62    15.62
  17      1.14466045    -0.48689783  -116.75955422     0.00000000    -0.00000000  0.95D-17  0.39D-17  6  5   318.42    15.71

 Norm of t1 vector:      0.05081950      S-energy:     0.00000000      T1 diagnostic:  0.00898370
                                                                       D1 diagnostic:  0.01917300

 Adding energy correction from Wij-K(Fij), methodcc=6  factor= 1.0

  CCSD correlation energy              -0.486897831715
  MP2-F12 correction (uncoupled)       -0.045318370533
  C*T doubles correction               -0.000609426750
  f12b correction                       0.008423061338


 Total CPU time for triples:    243.69 sec

  Ecorr(MP2)                           -0.471707098289
  Ecorr(MP2-F12)                       -0.517288185054
  Scale factor for triples energy       1.096630063295


 RESULTS
 =======

  Reference energy                   -116.270291200763
  F12 singles correction               -0.002365184421

 F12 singles corrections added to reference energy

  New reference energy               -116.272656385184

  F12a singlet correction              -0.040255410423
  F12a triplet correction              -0.005672386860
  F12a total correction                -0.045927797283

 F12a corrections for ansatz F12/3C(FIX) added to CCSD energy

  CCSD-F12a singlet pair energy        -0.386358865287
  CCSD-F12a triplet pair energy        -0.146466763829
  CCSD-F12a correlation energy         -0.532825628999

  Triples (T) contribution (scaled)    -0.016550247190
  Total correlation energy             -0.549375876189

  CCSD-F12a total energy             -116.805482014183
  CCSD[T]-F12a energy                -116.822628992777
  CCSD-T-F12a energy                 -116.821809757069
 !CCSD(T)-F12a total energy          -116.822032261372

 F12b corrections for ansatz F12/3C(FIX) added to CCSD(T)-F12a energy

  CCSD-F12b singlet pair energy        -0.378466809003
  CCSD-F12b triplet pair energy        -0.145935758774
  CCSD-F12b correlation energy         -0.524402567660

  Triples (T) contribution (scaled)    -0.016550247190
  Total correlation energy             -0.540952814850

  CCSD-F12b total energy             -116.797058952844
  CCSD[T]-F12b energy                -116.814205931439
  CCSD-T-F12b energy                 -116.813386695731
 !CCSD(T)-F12b total energy          -116.813609200034

 Timing summary (sec):

 STEP                 CPU(USER)    SYS     CPU(TOT)    WALL
 Transformation         26.10      0.88     26.98     27.01
 CCSD iterations       260.88      4.64    265.52    267.11
 Triples               243.69      2.08    245.77    247.48
 MP2-F12                31.46      1.31     32.77     32.83
 F12b energy            12.25      0.09     12.34     12.36

 Program statistics:

 Available memory in ccsd:              1999999554
 Min. memory needed in ccsd:               4597329
 Max. memory used in ccsd:                 5918289
 Max. memory used in cckext:               4231061 (18 integral passes)



 **********************************************************************************************************************************
 DATASETS  * FILE   NREC   LENGTH (MB)   RECORD NAMES
              1      19      398.06       500      610      700      900      950      970     1000      129      960     1100   
                                          VAR    BASINP    GEOM    SYMINP    ZMAT    AOBASIS   BASIS     P2S    ABASIS      S 
                                         1400     1410     1200     1210     1080     1600     1650     1700     1380   
                                           T        V       H0       H01     AOSYM     SMH    MOLCAS    OPER     JKOP   

              2       6        5.03       700     1000      520     2100     7360     7350   
                                         GEOM     BASIS   MCVARS     RHF    F12ABS    EF12   

 PROGRAMS   *        TOTAL   CCSD(T)    HF-SCF       INT
 CPU TIMES  *       603.92    574.58     14.83     14.28
 REAL TIME  *       623.20 SEC
 DISK USED  *       570.60 MB (local),        8.00 GB (total)
 SF USED    *         1.35 GB
 GA USED    *         4.87 MB       (max)       0.00 MB       (current)
 **********************************************************************************************************************************

 Running procedure: SET_MONOMER1

 Dummy atoms: C1  H41  H42  H43  H44


 Recomputing one-electron integrals since nuclear charges changed


 PROGRAM * SEWARD (Integral evaluation for generally contracted gaussian basis sets)     Author: Roland Lindh, 1990

 Geometry written to block  1 of record 700


 Point group  C1  



 ATOMIC COORDINATES

 NR  ATOM    CHARGE       X              Y              Z

   1  O20     8.00  -12.400004884    5.677493169    4.606774346
   2  H39     1.00  -12.146781583    3.932709038    5.214888213
   3  H40     1.00  -11.104030708    6.694165824    5.446946581
   4  C1      0.00   -6.193010455    2.801518980    2.403542658
   5  H41     0.00   -4.656285171    1.699997622    3.119937832
   6  H42     0.00   -5.973046335    4.726205038    2.982932688
   7  H43     0.00   -7.940251230    2.077186956    3.118237078
   8  H44     0.00   -6.176569838    2.685300823    0.384937212

 Bond lengths in Bohr (Angstrom)

 1-2  1.864992273  1-3  1.849070506  4-5  2.021904040  4-6  2.022002335  4-7  2.021953343
     ( 0.986911409)     ( 0.978485973)     ( 1.069945541)     ( 1.069997556)     ( 1.069971630)

 4-8  2.022015060
     ( 1.070004290)

 Bond angles

  2-1-3  105.72790617   5-4-6  109.53398059   5-4-7  109.65604535   5-4-8  108.43490854

  6-4-7  109.49436728   6-4-8  109.86987750   7-4-8  109.83468330

 NUCLEAR CHARGE:                   10
 NUMBER OF PRIMITIVE AOS:         296
 NUMBER OF SYMMETRY AOS:          266
 NUMBER OF CONTRACTIONS:          230   (  230A   )
 NUMBER OF CORE ORBITALS:           1   (    1A   )
 NUMBER OF VALENCE ORBITALS:        6   (    6A   )

 MOLECULE CHANGED: INITIALIZING OCCUPATION AND DUMP RECORDS


 NUCLEAR REPULSION ENERGY    8.95379726

 Basis set:  JKFIT                   
 Basis size:   740
 Attributes:
 Sphericals:   T
 Basis set:  MP2FIT                  
 Basis size:   816
 Attributes:
 Sphericals:   T
 Basis set:  RI                      
 Basis size:   556
 Attributes:
 Sphericals:   T
 Basis set:  TDDFT                   
 Basis size:   816
 Attributes:
 Sphericals:   T

 Eigenvalues of metric

         1 0.657E-04 0.803E-04 0.967E-04 0.101E-03 0.342E-03 0.381E-03 0.656E-03 0.698E-03


 Contracted 2-electron integrals neglected if value below      1.0D-14

 OPERATOR DM      FOR CENTER  0  COORDINATES:    0.000000    0.000000    0.000000


 **********************************************************************************************************************************
 DATASETS  * FILE   NREC   LENGTH (MB)   RECORD NAMES
              1      18       32.04       500      610      700      900      950      970     1000      129      960     1100   
                                          VAR    BASINP    GEOM    SYMINP    ZMAT    AOBASIS   BASIS     P2S    ABASIS      S 
                                         1400     1410     1200     1210     1080     1600     1650     1700   
                                           T        V       H0       H01     AOSYM     SMH    MOLCAS    OPER   

              2       7        5.05       700     1000      520     2100     7360     7350      200   
                                         GEOM     BASIS   MCVARS     RHF    F12ABS    EF12    OPTIONS    

 PROGRAMS   *        TOTAL       INT   CCSD(T)    HF-SCF       INT
 CPU TIMES  *       604.21      0.28    574.58     14.83     14.28
 REAL TIME  *       624.04 SEC
 DISK USED  *       570.60 MB (local),        8.00 GB (total)
 SF USED    *         1.35 GB
 GA USED    *         4.87 MB       (max)       0.00 MB       (current)
 **********************************************************************************************************************************


 PROGRAM * RHF-SCF (CLOSED SHELL)       Authors: W. Meyer, H.-J. Werner


 NUMBER OF ELECTRONS:       5+    5-    SPACE SYMMETRY=1    SPIN SYMMETRY: Singlet 
 CONVERGENCE THRESHOLDS:    1.00E-08 (Density)    1.00E-11 (Energy)
 MAX. NUMBER OF ITERATIONS:       60
 INTERPOLATION TYPE:            DIIS
 INTERPOLATION STEPS:              2 (START)      1 (STEP)
 LEVEL SHIFTS:                  0.00 (CLOSED)  0.00 (OPEN) 



 Orbital guess generated from atomic densities. Full valence occupancy:    7

 Molecular orbital dump at record        2101.2

 Initial occupancy:   5

 ITERATION    DDIFF          GRAD             ENERGY        2-EL.EN.            DIPOLE MOMENTS         DIIS   ORB.
    1      0.000D+00      0.000D+00       -76.01944025     77.318368    0.79410   -0.37647    0.74338    0    start
    2      0.000D+00      0.639D-02       -76.04602040     73.672697    0.46127   -0.21593    0.43149    1    diag
    3      0.444D-02      0.410D-02       -76.05750630     75.287310    0.54393   -0.25518    0.50878    2    diag
    4      0.162D-02      0.377D-03       -76.05769974     75.197787    0.54076   -0.25311    0.50569    3    diag
    5      0.205D-03      0.106D-03       -76.05772036     75.212019    0.53955   -0.25231    0.50451    4    diag
    6      0.645D-04      0.208D-04       -76.05772166     75.211104    0.53932   -0.25212    0.50427    5    diag
    7      0.172D-04      0.413D-05       -76.05772173     75.211236    0.53923   -0.25206    0.50418    6    diag
    8      0.476D-05      0.760D-06       -76.05772173     75.211219    0.53920   -0.25204    0.50416    7    diag
    9      0.767D-06      0.989D-07       -76.05772173     75.211210    0.53920   -0.25204    0.50415    8    diag
   10      0.854D-07      0.247D-07       -76.05772173     75.211214    0.53920   -0.25204    0.50415    9    orth
   11      0.229D-07      0.444D-08       -76.05772173     75.211213    0.53920   -0.25204    0.50415    9    diag
   12      0.490D-08      0.699D-09       -76.05772173     75.211213    0.53920   -0.25204    0.50415    0    orth

 Final occupancy:   5

 !RHF STATE  1.1 Energy               -76.057721729057
 Nuclear energy                         8.95379726
 One-electron energy                 -122.61712555
 Two-electron energy                   37.60560656
 Virial quotient                       -1.00261009
 !RHF STATE  1.1 Dipole moment          0.53919626    -0.25203885     0.50415317
 Dipole moment /Debye                   1.37041042    -0.64057691     1.28134561

 Orbital energies:

         1.1          2.1          3.1          4.1          5.1          6.1          7.1
    -20.571020    -1.339999    -0.706310    -0.577688    -0.507940     0.019735     0.040212


 HOMO      5.1    -0.507940 =     -13.8218eV
 LUMO      6.1     0.019735 =       0.5370eV
 LUMO-HOMO         0.527675 =      14.3588eV


 **********************************************************************************************************************************
 DATASETS  * FILE   NREC   LENGTH (MB)   RECORD NAMES
              1      18       32.04       500      610      700      900      950      970     1000      129      960     1100   
                                          VAR    BASINP    GEOM    SYMINP    ZMAT    AOBASIS   BASIS     P2S    ABASIS      S 
                                         1400     1410     1200     1210     1080     1600     1650     1700   
                                           T        V       H0       H01     AOSYM     SMH    MOLCAS    OPER   

              2       8        9.09       700     1000      520     2100     7360     7350      200     2101   
                                         GEOM     BASIS   MCVARS     RHF    F12ABS    EF12    OPTIONS    RHF  

 PROGRAMS   *        TOTAL    HF-SCF       INT   CCSD(T)    HF-SCF       INT
 CPU TIMES  *       618.27     14.06      0.28    574.58     14.83     14.28
 REAL TIME  *       639.60 SEC
 DISK USED  *       570.60 MB (local),        8.00 GB (total)
 SF USED    *         1.35 GB
 GA USED    *         4.87 MB       (max)       0.00 MB       (current)
 **********************************************************************************************************************************

 Basis set:  JKFIT                   
 Basis size:   740
 Attributes:
 Sphericals:   T
 Basis set:  MP2FIT                  
 Basis size:   816
 Attributes:
 Sphericals:   T
 Basis set:  RI                      
 Basis size:   556
 Attributes:
 Sphericals:   T
 Basis set:  TDDFT                   
 Basis size:   816
 Attributes:
 Sphericals:   T

 PROGRAM * CCSD (Closed-shell coupled cluster)     Authors: C. Hampel, H.-J. Werner, 1991, M. Deegan, P.J. Knowles, 1992

                                  CCSD-F12 implementation by  H.-J. Werner, 2007

                   Density fitting integral evaluation by F.R. Manby, 2003,2007, G. Knizia, 2010



 Convergence thresholds:  THRVAR = 1.00D-08  THRDEN = 1.00D-10

 CCSD(T)     terms to be evaluated (factor= 1.000)


 Number of core orbitals:           1 (   1 )
 Number of closed-shell orbitals:   4 (   4 )
 Number of external orbitals:     225 ( 225 )

 Molecular orbitals read from record     2101.2  Type=RHF/CANONICAL (state 1.1)

 MP2-F12 correlation treatment (H.-J. Werner, 2006)
 ==================================================

 Using MP2-F12 with ansatz 3C(FIX)

 Using projected zeroth-order Hamiltonian (+Z)

 FOCKRIB=T FOCKRIC=T FOCKRIP=T CABSP=T CABSA=T CABSK=T CABSF=T GBC=F EBC=F DMAT=T NOFIK=T NOPAO=1 SOLVE=-1  USEPAO=0
 EXCH_A= T EXCH_B= F EXCH_C= F EXCH_P= F

 Geminal basis:    OPTFULL  GEM_TYPE=SLATER  BETA=1.0  NGEM=6

 Optimizing Gaussian exponents for each gem_beta

 Geminal optimization for beta= 1.0000
 Weight function:   m=0, omega= 1.4646

 Augmented Hessian optimization of geminal fit. Trust ratio= 0.40000
 Convergence reached after   2 iterations. Final gradient= 8.31D-16, Step= 4.24D-06, Delta= 1.28D-09

 Alpha:                 0.19532     0.81920     2.85917     9.50073    35.69989   197.79328
 Coeff:                 0.27070     0.30552     0.18297     0.10986     0.06810     0.04224


 All pairs explicitly correlated. Number of r12-pairs:           10

 Excluding core orbitals from MO domains

 AO(A)-basis ORBITAL           loaded. Number of functions:     230
 RI(R)-basis RI                loaded. Number of functions:     556
 DF-basis JKFIT                loaded. Number of functions:     740

 Screening thresholds:   THRAO=  1.00D-10  THRMO=  1.00D-09  THRPROD=  1.00D-09
                         THRSW=  1.00D-05  THROV=  1.00D-12  THRAOF12= 1.00D-10

 CPU time for Fock operators                      3.22 sec

 Construction of ABS:
 Smallest eigenvalue of S          1.17E-04  (threshold= 1.00E-08)
 Ratio eigmin/eigmax               1.66E-05  (threshold= 1.00E-09)
 Smallest eigenvalue of S kept     1.17E-04  (threshold= 1.17E-04, 0 functions deleted, 556 kept)

 Construction of CABS:
 Smallest eigenvalue of S          6.55E-07  (threshold= 1.00E-08)
 Ratio eigmin/eigmax               6.55E-07  (threshold= 1.00E-09)
 Smallest eigenvalue of S kept     6.55E-07  (threshold= 6.55E-07, 0 functions deleted, 556 kept)

 CPU time for CABS singles                        0.73 sec

 CABS-singles contribution of  -0.00145186 patched into reference energy.
 New reference energy         -76.05917359

 AO(A)-basis ORBITAL           loaded. Number of functions:     230
 RI(R)-basis RI                loaded. Number of functions:     556
 DF-basis MP2FIT               loaded. Number of functions:     816

 Screening thresholds:   THRAO=  1.00D-10  THRMO=  1.00D-09  THRPROD=  1.00D-09
                         THRSW=  1.00D-05  THROV=  1.00D-12  THRAOF12= 1.00D-10

 CPU time for 3-index integral evaluation         5.70 sec
 CPU time for first  half transformation          1.01 sec ( 1373.2 MFLOP/sec)
 CPU time for sorting                             0.04 sec
 CPU time for fitting                             0.41 sec ( 3644.3 MFLOP/sec)
 CPU time for tilde quantities                    0.50 sec ( 1851.1 MFLOP/sec)
 CPU time for assembly                            1.35 sec ( 3385.4 MFLOP/sec)
 CPU time for tranop_f12                          1.28 sec ( 3901.3 MFLOP/sec)
 CPU time for f12 integrals (total)              12.71 sec, Elapsed time:     13.17 sec
 F12-matrices built in  4 passes.
 F12-matrices built in  4 passes.
 F12-matrices built in  4 passes.
 F12-matrices built in  4 passes.
 FC-matrix built in  4 passes.
 CPU time for f12 matrices (total)                0.37 sec, Elapsed time:      0.38 sec

 Diagonal F12 approximation with fixed coefficients:  TSING= 0.500,  TTRIP= 0.250 (scaled by -1/beta)

 DF-MP2-F12 energy corrections:
 ==============================
 Approx.                                    Singlet             Triplet             Total
 DF-MP2-F12/3*C(DX,FIX)                -0.029469514350     -0.004860160346     -0.034329674696
 DF-MP2-F12/3*C(FIX)                   -0.024405929622     -0.003809313870     -0.028215243492
 DF-MP2-F12/3C(FIX)                    -0.024539084516     -0.003782767785     -0.028321852300

 DF-MP2-F12 correlation energies:
 ================================
 Approx.                                    Singlet             Triplet             Ecorr            Total Energy
 DF-MP2                                -0.172025312006     -0.098387563035     -0.270412875041    -76.329586467751
 DF-MP2-F12/3*C(DX,FIX)                -0.201494826356     -0.103247723381     -0.304742549737    -76.363916142447
 DF-MP2-F12/3*C(FIX)                   -0.196431241629     -0.102196876904     -0.298628118533    -76.357801711243
 DF-MP2-F12/3C(FIX)                    -0.196564396522     -0.102170330820     -0.298734727341    -76.357908320052

 SCS-DF-MP2 energies (F_SING= 1.20000  F_TRIP= 0.62222  F_PARALLEL= 0.33333):
 ============================================================================
 SCS-DF-MP2                            -0.267649302518    -76.326822895228
 SCS-DF-MP2-F12/3*C(DX,FIX)            -0.306036819509    -76.365210412219
 SCS-DF-MP2-F12/3*C(FIX)               -0.299306657806    -76.358480250516
 SCS-DF-MP2-F12/3C(FIX)                -0.299449926114    -76.358623518824
 Symmetry transformation completed.

 Number of N-1 electron functions:               4
 Number of N-2 electron functions:              10
 Number of singly external CSFs:               900
 Number of doubly external CSFs:            405450
 Total number of CSFs:                      406351

 Pair and operator lists are different

 Length of J-op  integral file:              81.60 MB
 Length of K-op  integral file:             128.10 MB
 Length of 3-ext integral record:             0.00 MB

 Memory could be reduced to 75.63 Mwords without degradation in triples

 Integral transformation finished. Total CPU:  13.97 sec, npass=  1  Memory used:  32.52 MW

 Reference energy:                    -76.05917359

 Adding F12 terms to K(Cij), methodcc=6,  factor= 1.0

 ITER.      SQ.NORM     CORR.ENERGY   TOTAL ENERGY   ENERGY CHANGE        DEN1      VAR(S)    VAR(P)  DIIS     TIME  TIME/IT
   1      1.06260798    -0.26997950   -76.32915309     0.00044092     0.00643503  0.80D-03  0.10D-02  1  1    36.64     3.98
   2      1.06608063    -0.26966011   -76.32883370     0.00031939    -0.00467295  0.14D-04  0.11D-03  2  2    40.58     4.05
   3      1.06734794    -0.26978434   -76.32895793    -0.00012422    -0.00084169  0.95D-05  0.61D-05  3  3    44.52     4.07
   4      1.06785010    -0.26982195   -76.32899554    -0.00003761    -0.00028126  0.43D-06  0.68D-06  4  4    48.47     4.08
   5      1.06794497    -0.26981905   -76.32899264     0.00000290    -0.00002919  0.17D-06  0.48D-07  5  5    52.49     4.09
   6      1.06797720    -0.26981690   -76.32899049     0.00000215    -0.00000453  0.17D-07  0.39D-08  6  6    56.53     4.11
   7      1.06798518    -0.26981658   -76.32899017     0.00000032    -0.00000149  0.15D-08  0.78D-09  6  1    60.75     4.14
   8      1.06798649    -0.26981656   -76.32899015     0.00000002     0.00000018  0.35D-09  0.10D-09  6  3    64.71     4.14
   9      1.06798757    -0.26981656   -76.32899015    -0.00000000    -0.00000027  0.22D-10  0.90D-11  6  2    68.74     4.14
  10      1.06798773    -0.26981655   -76.32899014     0.00000001    -0.00000001  0.33D-11  0.13D-11  6  4    72.73     4.13
  11      1.06798772    -0.26981655   -76.32899014     0.00000000     0.00000003  0.78D-12  0.23D-12  6  5    76.77     4.13
  12      1.06798771    -0.26981655   -76.32899014    -0.00000000     0.00000001  0.13D-12  0.36D-13  6  6    80.76     4.13
  13      1.06798769    -0.26981655   -76.32899014    -0.00000000     0.00000000  0.17D-13  0.64D-14  6  1    84.74     4.13
  14      1.06798769    -0.26981655   -76.32899014    -0.00000000     0.00000000  0.18D-14  0.94D-15  6  3    88.72     4.13
  15      1.06798769    -0.26981655   -76.32899014    -0.00000000     0.00000000  0.18D-15  0.13D-15  6  2    92.74     4.13
  16      1.06798769    -0.26981655   -76.32899014     0.00000000    -0.00000000  0.31D-16  0.19D-16  6  4    96.74     4.13
  17      1.06798769    -0.26981655   -76.32899014     0.00000000    -0.00000000  0.35D-17  0.22D-17  6  5   100.71     4.13

 Norm of t1 vector:      0.03732681      S-energy:    -0.00000000      T1 diagnostic:  0.00933170
                                                                       D1 diagnostic:  0.01857270

 Adding energy correction from Wij-K(Fij), methodcc=6  factor= 1.0

  CCSD correlation energy              -0.269816549039
  MP2-F12 correction (uncoupled)       -0.028050629932
  C*T doubles correction               -0.000414118145
  f12b correction                       0.004760226827


 Total CPU time for triples:     37.82 sec

  Ecorr(MP2)                           -0.270420412441
  Ecorr(MP2-F12)                       -0.298742264741
  Scale factor for triples energy       1.104732671785


 RESULTS
 =======

  Reference energy                    -76.057721729057
  F12 singles correction               -0.001451863653

 F12 singles corrections added to reference energy

  New reference energy                -76.059173592710

  F12a singlet correction              -0.024612020878
  F12a triplet correction              -0.003852727200
  F12a total correction                -0.028464748077

 F12a corrections for ansatz F12/3C(FIX) added to CCSD energy

  CCSD-F12a singlet pair energy        -0.207656240139
  CCSD-F12a triplet pair energy        -0.090625056954
  CCSD-F12a correlation energy         -0.298281297116

  Triples (T) contribution (scaled)    -0.009592782497
  Total correlation energy             -0.307874079613

  CCSD-F12a total energy              -76.357454889826
  CCSD[T]-F12a energy                 -76.367399757002
  CCSD-T-F12a energy                  -76.366902712523
 !CCSD(T)-F12a total energy           -76.367047672323

 F12b corrections for ansatz F12/3C(FIX) added to CCSD(T)-F12a energy

  CCSD-F12b singlet pair energy        -0.203254317938
  CCSD-F12b triplet pair energy        -0.090266752328
  CCSD-F12b correlation energy         -0.293521070288

  Triples (T) contribution (scaled)    -0.009592782497
  Total correlation energy             -0.303113852785

  CCSD-F12b total energy              -76.352694662998
  CCSD[T]-F12b energy                 -76.362639530174
  CCSD-T-F12b energy                  -76.362142485695
 !CCSD(T)-F12b total energy           -76.362287445495

 Timing summary (sec):

 STEP                 CPU(USER)    SYS     CPU(TOT)    WALL
 Transformation         14.04      0.62     14.66     14.67
 CCSD iterations        68.00      2.25     70.25     70.32
 Triples                37.82      0.31     38.13     38.18
 MP2-F12                18.70      0.65     19.35     19.40
 F12b energy             3.43      0.07      3.50      3.51

 Program statistics:

 Available memory in ccsd:              1999999871
 Min. memory needed in ccsd:               1862772
 Max. memory used in ccsd:                 2158322
 Max. memory used in cckext:               1445635 (18 integral passes)



 **********************************************************************************************************************************
 DATASETS  * FILE   NREC   LENGTH (MB)   RECORD NAMES
              1      19      222.31       500      610      700      900      950      970     1000      129      960     1100   
                                          VAR    BASINP    GEOM    SYMINP    ZMAT    AOBASIS   BASIS     P2S    ABASIS      S 
                                         1400     1410     1200     1210     1080     1600     1650     1700     1380   
                                           T        V       H0       H01     AOSYM     SMH    MOLCAS    OPER     JKOP   

              2       8        9.09       700     1000      520     2100     7360     7350      200     2101   
                                         GEOM     BASIS   MCVARS     RHF    F12ABS    EF12    OPTIONS    RHF  

 PROGRAMS   *        TOTAL   CCSD(T)    HF-SCF       INT   CCSD(T)    HF-SCF       INT
 CPU TIMES  *       760.50    142.22     14.06      0.28    574.58     14.83     14.28
 REAL TIME  *       786.48 SEC
 DISK USED  *       570.60 MB (local),        8.00 GB (total)
 SF USED    *         1.35 GB
 GA USED    *         4.87 MB       (max)       0.00 MB       (current)
 **********************************************************************************************************************************

 Running procedure: SET_MONOMER2

 Dummy atoms: O20  H39  H40


 Recomputing one-electron integrals since nuclear charges changed


 PROGRAM * SEWARD (Integral evaluation for generally contracted gaussian basis sets)     Author: Roland Lindh, 1990

 Geometry written to block  1 of record 700


 Point group  C1  



 ATOMIC COORDINATES

 NR  ATOM    CHARGE       X              Y              Z

   1  O20     0.00  -12.400004884    5.677493169    4.606774346
   2  H39     0.00  -12.146781583    3.932709038    5.214888213
   3  H40     0.00  -11.104030708    6.694165824    5.446946581
   4  C1      6.00   -6.193010455    2.801518980    2.403542658
   5  H41     1.00   -4.656285171    1.699997622    3.119937832
   6  H42     1.00   -5.973046335    4.726205038    2.982932688
   7  H43     1.00   -7.940251230    2.077186956    3.118237078
   8  H44     1.00   -6.176569838    2.685300823    0.384937212

 Bond lengths in Bohr (Angstrom)

 1-2  1.864992273  1-3  1.849070506  4-5  2.021904040  4-6  2.022002335  4-7  2.021953343
     ( 0.986911409)     ( 0.978485973)     ( 1.069945541)     ( 1.069997556)     ( 1.069971630)

 4-8  2.022015060
     ( 1.070004290)

 Bond angles

  2-1-3  105.72790617   5-4-6  109.53398059   5-4-7  109.65604535   5-4-8  108.43490854

  6-4-7  109.49436728   6-4-8  109.86987750   7-4-8  109.83468330

 NUCLEAR CHARGE:                   10
 NUMBER OF PRIMITIVE AOS:         296
 NUMBER OF SYMMETRY AOS:          266
 NUMBER OF CONTRACTIONS:          230   (  230A   )
 NUMBER OF CORE ORBITALS:           1   (    1A   )
 NUMBER OF VALENCE ORBITALS:        8   (    8A   )

 MOLECULE CHANGED: INITIALIZING OCCUPATION AND DUMP RECORDS


 NUCLEAR REPULSION ENERGY   13.68681606

 Basis set:  JKFIT                   
 Basis size:   740
 Attributes:
 Sphericals:   T
 Basis set:  MP2FIT                  
 Basis size:   816
 Attributes:
 Sphericals:   T
 Basis set:  RI                      
 Basis size:   556
 Attributes:
 Sphericals:   T
 Basis set:  TDDFT                   
 Basis size:   816
 Attributes:
 Sphericals:   T

 Eigenvalues of metric

         1 0.657E-04 0.803E-04 0.967E-04 0.101E-03 0.342E-03 0.381E-03 0.656E-03 0.698E-03


 Contracted 2-electron integrals neglected if value below      1.0D-14

 OPERATOR DM      FOR CENTER  0  COORDINATES:    0.000000    0.000000    0.000000


 **********************************************************************************************************************************
 DATASETS  * FILE   NREC   LENGTH (MB)   RECORD NAMES
              1      18       32.04       500      610      700      900      950      970     1000      129      960     1100   
                                          VAR    BASINP    GEOM    SYMINP    ZMAT    AOBASIS   BASIS     P2S    ABASIS      S 
                                         1400     1410     1200     1210     1080     1600     1650     1700   
                                           T        V       H0       H01     AOSYM     SMH    MOLCAS    OPER   

              2       8        9.09       700     1000      520     2100     7360     7350      200     2101   
                                         GEOM     BASIS   MCVARS     RHF    F12ABS    EF12    OPTIONS    RHF  

 PROGRAMS   *        TOTAL       INT   CCSD(T)    HF-SCF       INT   CCSD(T)    HF-SCF       INT
 CPU TIMES  *       760.77      0.25    142.22     14.06      0.28    574.58     14.83     14.28
 REAL TIME  *       787.26 SEC
 DISK USED  *       570.60 MB (local),        8.00 GB (total)
 SF USED    *         1.35 GB
 GA USED    *         4.87 MB       (max)       0.00 MB       (current)
 **********************************************************************************************************************************


 PROGRAM * RHF-SCF (CLOSED SHELL)       Authors: W. Meyer, H.-J. Werner


 NUMBER OF ELECTRONS:       5+    5-    SPACE SYMMETRY=1    SPIN SYMMETRY: Singlet 
 CONVERGENCE THRESHOLDS:    1.00E-08 (Density)    1.00E-11 (Energy)
 MAX. NUMBER OF ITERATIONS:       60
 INTERPOLATION TYPE:            DIIS
 INTERPOLATION STEPS:              2 (START)      1 (STEP)
 LEVEL SHIFTS:                  0.00 (CLOSED)  0.00 (OPEN) 



 Orbital guess generated from atomic densities. Full valence occupancy:    9

 Molecular orbital dump at record        2102.2

 Initial occupancy:   5

 ITERATION    DDIFF          GRAD             ENERGY        2-EL.EN.            DIPOLE MOMENTS         DIIS   ORB.
    1      0.000D+00      0.000D+00       -40.19358733     53.494044    0.00411   -0.00277   -0.00132    0    start
    2      0.000D+00      0.353D-02       -40.21070467     52.213687    0.00129   -0.00089   -0.00040    1    diag
    3      0.323D-02      0.137D-02       -40.21295310     52.664858    0.00182   -0.00124   -0.00057    2    diag
    4      0.900D-03      0.342D-03       -40.21326854     52.609831    0.00162   -0.00111   -0.00050    3    diag
    5      0.297D-03      0.444D-04       -40.21327394     52.612170    0.00160   -0.00109   -0.00050    4    diag
    6      0.832D-04      0.345D-05       -40.21327398     52.612267    0.00160   -0.00109   -0.00050    5    diag
    7      0.684D-05      0.264D-06       -40.21327398     52.612233    0.00159   -0.00109   -0.00050    6    diag
    8      0.101D-05      0.222D-07       -40.21327398     52.612234    0.00159   -0.00109   -0.00050    7    diag
    9      0.188D-06      0.287D-08       -40.21327398     52.612234    0.00159   -0.00109   -0.00050    8    diag
   10      0.104D-07      0.804D-09       -40.21327398     52.612234    0.00159   -0.00109   -0.00049    9    orth
   11      0.119D-08      0.107D-09       -40.21327398     52.612234    0.00159   -0.00109   -0.00049    0    orth

 Final occupancy:   5

 !RHF STATE  1.1 Energy               -40.213273975886
 Nuclear energy                        13.68681606
 One-electron energy                  -80.20620680
 Two-electron energy                   26.30611677
 Virial quotient                       -0.99870197
 !RHF STATE  1.1 Dipole moment          0.00159431    -0.00108939    -0.00049500
 Dipole moment /Debye                   0.00405208    -0.00276876    -0.00125807

 Orbital energies:

         1.1          2.1          3.1          4.1          5.1          6.1          7.1
    -11.197209    -0.950741    -0.551695    -0.549760    -0.547581     0.027661     0.042262


 HOMO      5.1    -0.547581 =     -14.9004eV
 LUMO      6.1     0.027661 =       0.7527eV
 LUMO-HOMO         0.575242 =      15.6531eV


 **********************************************************************************************************************************
 DATASETS  * FILE   NREC   LENGTH (MB)   RECORD NAMES
              1      18       32.04       500      610      700      900      950      970     1000      129      960     1100   
                                          VAR    BASINP    GEOM    SYMINP    ZMAT    AOBASIS   BASIS     P2S    ABASIS      S 
                                         1400     1410     1200     1210     1080     1600     1650     1700   
                                           T        V       H0       H01     AOSYM     SMH    MOLCAS    OPER   

              2       9       13.71       700     1000      520     2100     7360     7350      200     2101     2102   
                                         GEOM     BASIS   MCVARS     RHF    F12ABS    EF12    OPTIONS    RHF      RHF  

 PROGRAMS   *        TOTAL    HF-SCF       INT   CCSD(T)    HF-SCF       INT   CCSD(T)    HF-SCF       INT
 CPU TIMES  *       774.16     13.39      0.25    142.22     14.06      0.28    574.58     14.83     14.28
 REAL TIME  *       801.92 SEC
 DISK USED  *       570.60 MB (local),        8.00 GB (total)
 SF USED    *         1.35 GB
 GA USED    *         4.87 MB       (max)       0.00 MB       (current)
 **********************************************************************************************************************************

 Basis set:  JKFIT                   
 Basis size:   740
 Attributes:
 Sphericals:   T
 Basis set:  MP2FIT                  
 Basis size:   816
 Attributes:
 Sphericals:   T
 Basis set:  RI                      
 Basis size:   556
 Attributes:
 Sphericals:   T
 Basis set:  TDDFT                   
 Basis size:   816
 Attributes:
 Sphericals:   T

 PROGRAM * CCSD (Closed-shell coupled cluster)     Authors: C. Hampel, H.-J. Werner, 1991, M. Deegan, P.J. Knowles, 1992

                                  CCSD-F12 implementation by  H.-J. Werner, 2007

                   Density fitting integral evaluation by F.R. Manby, 2003,2007, G. Knizia, 2010



 Convergence thresholds:  THRVAR = 1.00D-08  THRDEN = 1.00D-10

 CCSD(T)     terms to be evaluated (factor= 1.000)


 Number of core orbitals:           1 (   1 )
 Number of closed-shell orbitals:   4 (   4 )
 Number of external orbitals:     225 ( 225 )

 Molecular orbitals read from record     2102.2  Type=RHF/CANONICAL (state 1.1)

 MP2-F12 correlation treatment (H.-J. Werner, 2006)
 ==================================================

 Using MP2-F12 with ansatz 3C(FIX)

 Using projected zeroth-order Hamiltonian (+Z)

 FOCKRIB=T FOCKRIC=T FOCKRIP=T CABSP=T CABSA=T CABSK=T CABSF=T GBC=F EBC=F DMAT=T NOFIK=T NOPAO=1 SOLVE=-1  USEPAO=0
 EXCH_A= T EXCH_B= F EXCH_C= F EXCH_P= F

 Geminal basis:    OPTFULL  GEM_TYPE=SLATER  BETA=1.0  NGEM=6

 Optimizing Gaussian exponents for each gem_beta

 Geminal optimization for beta= 1.0000
 Weight function:   m=0, omega= 1.4646

 Augmented Hessian optimization of geminal fit. Trust ratio= 0.40000
 Convergence reached after   2 iterations. Final gradient= 7.85D-16, Step= 4.26D-06, Delta= 1.28D-09

 Alpha:                 0.19532     0.81920     2.85917     9.50073    35.69989   197.79328
 Coeff:                 0.27070     0.30552     0.18297     0.10986     0.06810     0.04224


 All pairs explicitly correlated. Number of r12-pairs:           10

 Excluding core orbitals from MO domains

 AO(A)-basis ORBITAL           loaded. Number of functions:     230
 RI(R)-basis RI                loaded. Number of functions:     556
 DF-basis JKFIT                loaded. Number of functions:     740

 Screening thresholds:   THRAO=  1.00D-10  THRMO=  1.00D-09  THRPROD=  1.00D-09
                         THRSW=  1.00D-05  THROV=  1.00D-12  THRAOF12= 1.00D-10

 CPU time for Fock operators                      3.28 sec

 Construction of ABS:
 Smallest eigenvalue of S          1.17E-04  (threshold= 1.00E-08)
 Ratio eigmin/eigmax               1.66E-05  (threshold= 1.00E-09)
 Smallest eigenvalue of S kept     1.17E-04  (threshold= 1.17E-04, 0 functions deleted, 556 kept)

 Construction of CABS:
 Smallest eigenvalue of S          6.55E-07  (threshold= 1.00E-08)
 Ratio eigmin/eigmax               6.55E-07  (threshold= 1.00E-09)
 Smallest eigenvalue of S kept     6.55E-07  (threshold= 6.55E-07, 0 functions deleted, 556 kept)

 CPU time for CABS singles                        0.72 sec

 CABS-singles contribution of  -0.00091121 patched into reference energy.
 New reference energy         -40.21418519

 AO(A)-basis ORBITAL           loaded. Number of functions:     230
 RI(R)-basis RI                loaded. Number of functions:     556
 DF-basis MP2FIT               loaded. Number of functions:     816

 Screening thresholds:   THRAO=  1.00D-10  THRMO=  1.00D-09  THRPROD=  1.00D-09
                         THRSW=  1.00D-05  THROV=  1.00D-12  THRAOF12= 1.00D-10

 CPU time for 3-index integral evaluation         5.72 sec
 CPU time for first  half transformation          1.20 sec ( 1232.7 MFLOP/sec)
 CPU time for second half transformation          0.02 sec (  707.5 MFLOP/sec)
 CPU time for sorting                             0.02 sec
 CPU time for fitting                             0.37 sec ( 1673.6 MFLOP/sec)
 CPU time for tilde quantities                    0.39 sec ( 4305.9 MFLOP/sec)
 CPU time for assembly                            1.42 sec ( 4050.7 MFLOP/sec)
 CPU time for tranop_f12                          1.26 sec ( 3230.8 MFLOP/sec)
 CPU time for f12 integrals (total)              12.95 sec, Elapsed time:     13.50 sec
 F12-matrices built in  4 passes.
 F12-matrices built in  4 passes.
 F12-matrices built in  4 passes.
 F12-matrices built in  4 passes.
 FC-matrix built in  4 passes.
 CPU time for f12 matrices (total)                0.36 sec, Elapsed time:      0.38 sec

 Diagonal F12 approximation with fixed coefficients:  TSING= 0.500,  TTRIP= 0.250 (scaled by -1/beta)

 DF-MP2-F12 energy corrections:
 ==============================
 Approx.                                    Singlet             Triplet             Total
 DF-MP2-F12/3*C(DX,FIX)                -0.016698297197     -0.001927080474     -0.018625377671
 DF-MP2-F12/3*C(FIX)                   -0.015457589643     -0.001784714513     -0.017242304156
 DF-MP2-F12/3C(FIX)                    -0.015444317790     -0.001776034630     -0.017220352420

 DF-MP2-F12 correlation energies:
 ================================
 Approx.                                    Singlet             Triplet             Ecorr            Total Energy
 DF-MP2                                -0.145450014198     -0.055067208460     -0.200517222658    -40.414702412456
 DF-MP2-F12/3*C(DX,FIX)                -0.162148311395     -0.056994288934     -0.219142600329    -40.433327790127
 DF-MP2-F12/3*C(FIX)                   -0.160907603840     -0.056851922973     -0.217759526813    -40.431944716612
 DF-MP2-F12/3C(FIX)                    -0.160894331988     -0.056843243090     -0.217737575078    -40.431922764876

 SCS-DF-MP2 energies (F_SING= 1.20000  F_TRIP= 0.62222  F_PARALLEL= 0.33333):
 ============================================================================
 SCS-DF-MP2                            -0.208804057857    -40.422989247655
 SCS-DF-MP2-F12/3*C(DX,FIX)            -0.230041086788    -40.444226276587
 SCS-DF-MP2-F12/3*C(FIX)               -0.228463654458    -40.442648844257
 SCS-DF-MP2-F12/3C(FIX)                -0.228442327419    -40.442627517218
 Symmetry transformation completed.

 Number of N-1 electron functions:               4
 Number of N-2 electron functions:              10
 Number of singly external CSFs:               900
 Number of doubly external CSFs:            405450
 Total number of CSFs:                      406351

 Pair and operator lists are different

 Length of J-op  integral file:              81.60 MB
 Length of K-op  integral file:             128.10 MB
 Length of 3-ext integral record:             0.00 MB

 Memory could be reduced to 75.63 Mwords without degradation in triples

 Integral transformation finished. Total CPU:  14.54 sec, npass=  1  Memory used:  32.52 MW

 Reference energy:                    -40.21418519

 Adding F12 terms to K(Cij), methodcc=6,  factor= 1.0

 ITER.      SQ.NORM     CORR.ENERGY   TOTAL ENERGY   ENERGY CHANGE        DEN1      VAR(S)    VAR(P)  DIIS     TIME  TIME/IT
   1      1.06946361    -0.21558600   -40.42977119    -0.01505893    -0.00938199  0.67D-03  0.94D-03  1  1    37.59     4.07
   2      1.07449054    -0.21615367   -40.43033886    -0.00056768    -0.00524326  0.16D-04  0.83D-04  2  2    41.56     4.09
   3      1.07589856    -0.21630862   -40.43049381    -0.00015495    -0.00097976  0.20D-05  0.51D-05  3  3    45.57     4.10
   4      1.07623671    -0.21632097   -40.43050616    -0.00001234    -0.00017407  0.10D-06  0.25D-06  4  4    49.54     4.11
   5      1.07628146    -0.21631970   -40.43050489     0.00000126    -0.00000984  0.77D-08  0.17D-07  5  5    53.47     4.12
   6      1.07628733    -0.21631872   -40.43050391     0.00000098    -0.00000185  0.59D-09  0.12D-08  6  6    57.47     4.13
   7      1.07628848    -0.21631840   -40.43050359     0.00000032    -0.00000073  0.40D-10  0.99D-10  6  1    61.44     4.13
   8      1.07628851    -0.21631851   -40.43050370    -0.00000010     0.00000012  0.40D-11  0.60D-11  6  3    65.43     4.13
   9      1.07628862    -0.21631849   -40.43050368     0.00000001    -0.00000007  0.33D-12  0.50D-12  6  2    69.44     4.13
  10      1.07628862    -0.21631849   -40.43050368     0.00000000     0.00000001  0.36D-13  0.49D-13  6  4    73.46     4.13
  11      1.07628862    -0.21631849   -40.43050368     0.00000000     0.00000000  0.27D-14  0.51D-14  6  5    77.45     4.13
  12      1.07628862    -0.21631849   -40.43050368     0.00000000     0.00000000  0.56D-16  0.60D-15  6  6    81.45     4.13
  13      1.07628862    -0.21631849   -40.43050368    -0.00000000     0.00000000  0.79D-17  0.65D-16  6  1    85.42     4.13
  14      1.07628862    -0.21631849   -40.43050368    -0.00000000     0.00000000  0.15D-17  0.78D-17  6  3    89.38     4.13

 Norm of t1 vector:      0.03361860      S-energy:     0.00000000      T1 diagnostic:  0.00840465
                                                                       D1 diagnostic:  0.01339563

 Adding energy correction from Wij-K(Fij), methodcc=6  factor= 1.0

  CCSD correlation energy              -0.216318488194
  MP2-F12 correction (uncoupled)       -0.017231804057
  C*T doubles correction               -0.000193422221
  f12b correction                       0.003653129505

 Total CPU time for triples:     36.57 sec

  Ecorr(MP2)                           -0.200527063180
  Ecorr(MP2-F12)                       -0.217747415600
  Scale factor for triples energy       1.085875453154


 RESULTS
 =======

  Reference energy                    -40.213273975885
  F12 singles correction               -0.000911213913

 F12 singles corrections added to reference energy

  New reference energy                -40.214185189798

  F12a singlet correction              -0.015623386980
  F12a triplet correction              -0.001801839298
  F12a total correction                -0.017425226278

 F12a corrections for ansatz F12/3C(FIX) added to CCSD energy

  CCSD-F12a singlet pair energy        -0.178526159790
  CCSD-F12a triplet pair energy        -0.055217554709
  CCSD-F12a correlation energy         -0.233743714472

  Triples (T) contribution (scaled)    -0.006802070323
  Total correlation energy             -0.240545784795

  CCSD-F12a total energy              -40.447928904271
  CCSD[T]-F12a energy                 -40.454970123543
  CCSD-T-F12a energy                  -40.454656220961
 !CCSD(T)-F12a total energy           -40.454730974593

 F12b corrections for ansatz F12/3C(FIX) added to CCSD(T)-F12a energy

  CCSD-F12b singlet pair energy        -0.175043770122
  CCSD-F12b triplet pair energy        -0.055046814873
  CCSD-F12b correlation energy         -0.230090584968

  Triples (T) contribution (scaled)    -0.006802070323
  Total correlation energy             -0.236892655290

  CCSD-F12b total energy              -40.444275774766
  CCSD[T]-F12b energy                 -40.451316994038
  CCSD-T-F12b energy                  -40.451003091456
 !CCSD(T)-F12b total energy           -40.451077845089

 Timing summary (sec):

 STEP                 CPU(USER)    SYS     CPU(TOT)    WALL
 Transformation         14.61      0.62     15.23     15.24
 CCSD iterations        55.78      1.99     57.77     57.82
 Triples                36.57      0.26     36.83     36.87
 MP2-F12                19.01      0.69     19.70     19.73
 F12b energy             3.37      0.07      3.44      3.45

 Program statistics:

 Available memory in ccsd:              1999999866
 Min. memory needed in ccsd:               1862772
 Max. memory used in ccsd:                 2158322
 Max. memory used in cckext:               1445635 (15 integral passes)



 **********************************************************************************************************************************
 DATASETS  * FILE   NREC   LENGTH (MB)   RECORD NAMES
              1      19      222.31       500      610      700      900      950      970     1000      129      960     1100   
                                          VAR    BASINP    GEOM    SYMINP    ZMAT    AOBASIS   BASIS     P2S    ABASIS      S 
                                         1400     1410     1200     1210     1080     1600     1650     1700     1380   
                                           T        V       H0       H01     AOSYM     SMH    MOLCAS    OPER     JKOP   

              2       9       13.71       700     1000      520     2100     7360     7350      200     2101     2102   
                                         GEOM     BASIS   MCVARS     RHF    F12ABS    EF12    OPTIONS    RHF      RHF  

 PROGRAMS   *        TOTAL   CCSD(T)    HF-SCF       INT   CCSD(T)    HF-SCF       INT   CCSD(T)    HF-SCF       INT
 CPU TIMES  *       903.74    129.57     13.39      0.25    142.22     14.06      0.28    574.58     14.83     14.28
 REAL TIME  *       935.83 SEC
 DISK USED  *       570.60 MB (local),        8.00 GB (total)
 SF USED    *         1.35 GB
 GA USED    *         4.87 MB       (max)       0.00 MB       (current)
 **********************************************************************************************************************************
 Molecular orbitals read from record     2102.2  Type=RHF/CANONICAL (state 1.1)
 Occupation numbers read from record     2102.2  Type=RHF/RHF (state 1.1)
 Orbital energies read from record       2102.2  Type=RHF/CANONICAL (state 1.1)
 Redundancy group numbers read from rec  2102.2  Type=RHF/RHF (state 1.1)

 CCSD(T)-F12/aug-cc-pVTZ energy=    -40.451077845089

     CCSD(T)-F12          HF-SCF     CCSD(T)-F12          HF-SCF     CCSD(T)-F12          HF-SCF
    -40.45107785    -40.21327398    -76.36228745    -76.05772173   -116.81360920   -116.27029120
 **********************************************************************************************************************************
 Molpro calculation terminated
