
 Primary working directories    : /scratch.ssd/kelum/job_380612.cerit-pbs.cerit-sc.cz/molpro.rFzilBBquK
 Secondary working directories  : /scratch.ssd/kelum/job_380612.cerit-pbs.cerit-sc.cz/molpro.rFzilBBquK
 Wavefunction directory         : /scratch.ssd/kelum/job_380612.cerit-pbs.cerit-sc.cz/
 Main file repository           : /scratch.ssd/kelum/job_380612.cerit-pbs.cerit-sc.cz/molpro.rFzilBBquK/

 id        : karlovklimes

 Nodes            nprocs
 elan4.cerit-sc.cz    4

 Using customized tuning parameters: mindgm=1; mindgv=20; mindgc=4; mindgr=1; noblas=0; minvec=7
 default implementation of scratch files=sf  


 Variables initialized (934), CPU time= 0.00 sec
                                                                                 !gdirect
 memory,4000,m
 gthresh,orbital=1d-10,energy=1d-10
 
 symmetry,nosym
 angstrom
 geometry={
 O14        -4.369600000000      4.555200000000     -0.937800000000
 H27        -4.635300000000      5.332600000000     -1.445500000000
 H28        -5.213600000000      4.102600000000     -0.695700000000
 C1        -3.277200000000      1.482500000000      1.271900000000
 H41        -2.464000000000      0.899600000000      1.651000000000
 H42        -3.160800000000      2.501000000000      1.578500000000
 H43        -4.201800000000      1.099200000000      1.650100000000
 H44        -3.268500000000      1.421000000000      0.203700000000
 }
 
 nkerna=1
 nkernb=1
 
 gf=0
 sing=1
 thrdum=1d-4
 gridthr=1d-8
 
 basis={
 set,orbital
 default,av5z
 set,jkfit
 default,av5z/jkfit
 set,mp2fit
 default,av5z/mp2fit
 set,ri
 default,av5z/optri
 set,tddft
 default,av5z/mp2fit
 }
 
 proc set_monomer1
 dummy,4,5,6,7,8
 endproc
 
 proc set_monomer2
 dummy,1,2,3
 endproc
 
                                                                                 !12 energy
 {hf,accu=1.d-16}
 {ccsd(t)-f12,df_basis=mp2fit,df_basis_exch=jkfit,ri_basis=ri,scale_trip=1,THRAOF12=1d-10}
 
 set_monomer1
 {hf,accu=1.d-16}
 {ccsd(t)-f12,df_basis=mp2fit,df_basis_exch=jkfit,ri_basis=ri,scale_trip=1,THRAOF12=1d-10}
 
 set_monomer2
 {hf,accu=1.d-16}
 {ccsd(t)-f12,df_basis=mp2fit,df_basis_exch=jkfit,ri_basis=ri,scale_trip=1,THRAOF12=1d-10}
 
 Commands  initialized (763), CPU time= 0.01 sec, 617 directives.
 Default parameters read. Elapsed time= 0.20 sec

 Checking input...
 Passed
1


                                         ***  PROGRAM SYSTEM MOLPRO  ***
                                       Copyright, TTI GmbH Stuttgart, 2015
                                    Version 2019.2 linked Jun  8 2019 11:26:33


 **********************************************************************************************************************************
 LABEL *                                                                                 
  64 bit mpp version                                                                     DATE: 24-Mar-20          TIME: 16:50:03  
 **********************************************************************************************************************************

 SHA1:             8135a10abc80eafa5b3ae28ffc55be4890dc4c84
 **********************************************************************************************************************************

 THRESHOLDS:

 ZERO    =  1.00D-12  ONEINT  =  1.00D-12  TWOINT  =  1.00D-11  PREFAC  =  1.00D-14  XXXXXX  =  1.00D-09  EORDER  =  1.00D-04
 ENERGY  =  1.00D-10  ETEST   =  0.00D+00  EDENS   =  0.00D+00  THRDEDEF=  1.00D-06  GRADIENT=  1.00D-02  STEP    =  1.00D-03
 ORBITAL =  1.00D-10  CIVEC   =  1.00D-05  COEFF   =  1.00D-04  PRINTCI =  5.00D-02  PUNCHCI =  9.90D+01  OPTGRAD =  3.00D-04
 OPTENERG=  1.00D-06  OPTSTEP =  3.00D-04  THRGRAD =  1.00D-10  COMPRESS=  1.00D-11  VARMIN  =  1.00D-07  VARMAX  =  1.00D-03
 THRDOUB =  0.00D+00  THRDIV  =  1.00D-05  THRRED  =  1.00D-07  THRPSP  =  1.00D+00  THRDC   =  1.00D-10  THRCS   =  1.00D-10
 THRNRM  =  1.00D-08  THREQ   =  0.00D+00  THRDE   =  1.00D+00  THRREF  =  1.00D-05  SPARFAC =  1.00D+00  THRDLP  =  1.00D-07
 THRDIA  =  1.00D-10  THRDLS  =  1.00D-07  THRGPS  =  0.00D+00  THRKEX  =  0.00D+00  THRDIS  =  2.00D-01  THRVAR  =  1.00D-10
 THRLOC  =  1.00D-06  THRGAP  =  1.00D-06  THRLOCT = -1.00D+00  THRGAPT = -1.00D+00  THRORB  =  1.00D-06  THRMLTP =  0.00D+00
 THRCPQCI=  1.00D-10  KEXTA   =  0.00D+00  THRCOARS=  0.00D+00  SYMTOL  =  1.00D-06  GRADTOL =  1.00D-06  THROVL  =  1.00D-08
 THRORTH =  1.00D-08  GRID    =  1.00D-06  GRIDMAX =  1.00D-03  DTMAX   =  0.00D+00  THROCCDE=  1.00D-01  THROCCDE=  1.00D-01
 THRPRINT=  2.50D-01


 Variable memory set to 4000000000 words,  buffer space 

 ZSYMEL=NOSYM
 ZUNIT=ANG


Geometry recognized as XYZ

 SETTING NKERNA         =         1.00000000                                  
 SETTING NKERNB         =         1.00000000                                  
 SETTING GF             =     0.00000000D+00                                  
 SETTING SING           =         1.00000000                                  
 SETTING THRDUM         =     1.00000000D-04                                  
 SETTING GRIDTHR        =     1.00000000D-08                                  
 SETTING BASIS          =    AV5Z


 Recomputing integrals since basis changed


 Using spherical harmonics

 Library entry O      S aug-cc-pV5Z          selected for orbital group  1
 Library entry O      P aug-cc-pV5Z          selected for orbital group  1
 Library entry O      D aug-cc-pV5Z          selected for orbital group  1
 Library entry O      F aug-cc-pV5Z          selected for orbital group  1
 Library entry O      G aug-cc-pV5Z          selected for orbital group  1
 Library entry O      H aug-cc-pV5Z          selected for orbital group  1
 Library entry H      S aug-cc-pV5Z          selected for orbital group  2
 Library entry H      P aug-cc-pV5Z          selected for orbital group  2
 Library entry H      D aug-cc-pV5Z          selected for orbital group  2
 Library entry H      F aug-cc-pV5Z          selected for orbital group  2
 Library entry H      G aug-cc-pV5Z          selected for orbital group  2
 Library entry C      S aug-cc-pV5Z          selected for orbital group  3
 Library entry C      P aug-cc-pV5Z          selected for orbital group  3
 Library entry C      D aug-cc-pV5Z          selected for orbital group  3
 Library entry C      F aug-cc-pV5Z          selected for orbital group  3
 Library entry C      G aug-cc-pV5Z          selected for orbital group  3
 Library entry C      H aug-cc-pV5Z          selected for orbital group  3


 PROGRAM * SEWARD (Integral evaluation for generally contracted gaussian basis sets)     Author: Roland Lindh, 1990

 Geometry written to block  1 of record 700


 Point group  C1  



 ATOMIC COORDINATES

 NR  ATOM    CHARGE       X              Y              Z

   1  O14     8.00   -8.257347274    8.608080443   -1.772185160
   2  H27     1.00   -8.759447505   10.077153532   -2.731599113
   3  H28     1.00   -9.852276123    7.752790399   -1.314682465
   4  C1      6.00   -6.193010455    2.801518980    2.403542658
   5  H41     1.00   -4.656285171    1.699997622    3.119937832
   6  H42     1.00   -5.973046335    4.726205038    2.982932688
   7  H43     1.00   -7.940251230    2.077186956    3.118237078
   8  H44     1.00   -6.176569838    2.685300823    0.384937212

 Bond lengths in Bohr (Angstrom)

 1-2  1.825035758  1-3  1.866715781  4-5  2.021904040  4-6  2.022002335  4-7  2.021953343
     ( 0.965767332)     ( 0.987823451)     ( 1.069945541)     ( 1.069997556)     ( 1.069971630)

 4-8  2.022015060
     ( 1.070004290)

 Bond angles

  2-1-3  105.22390814   5-4-6  109.53398059   5-4-7  109.65604535   5-4-8  108.43490854

  6-4-7  109.49436728   6-4-8  109.86987750   7-4-8  109.83468330

 NUCLEAR CHARGE:                   20
 NUMBER OF PRIMITIVE AOS:        1046
 NUMBER OF SYMMETRY AOS:          786
 NUMBER OF CONTRACTIONS:          734   (  734A   )
 NUMBER OF CORE ORBITALS:           2   (    2A   )
 NUMBER OF VALENCE ORBITALS:       14   (   14A   )


 NUCLEAR REPULSION ENERGY   35.88393783


 Basis set:  JKFIT                   
 Basis size:  1104
 Attributes:
 Sphericals:   T
 Basis set:  MP2FIT                  
 Basis size:  1246
 Attributes:
 Sphericals:   T
 Basis set:  RI                      
 Basis size:   730
 Attributes:
 Sphericals:   T
 Basis set:  TDDFT                   
 Basis size:  1246
 Attributes:
 Sphericals:   T

 **********************************************************************************************************************************


 Eigenvalues of metric

         1 0.191E-05 0.250E-05 0.362E-05 0.494E-05 0.549E-05 0.825E-05 0.854E-05 0.889E-05


 Contracted 2-electron integrals neglected if value below      1.0D-14
 AO integral compression algorithm  1   Integral accuracy      1.0D-14

     144585.523 MB (compressed) written to integral file ( 45.8%)

     Node minimum: 34295.775 MB, node maximum: 37515.952 MB


 NUMBER OF SORTED TWO-ELECTRON INTEGRALS: 9095363064.     BUFFER LENGTH:  32768
 NUMBER OF SEGMENTS: 190  SEGMENT LENGTH:   47999780      RECORD LENGTH: 131072

 Memory used in sort:      48.16 MW

 SORT1 READ 39467284725. AND WROTE  6574945168. INTEGRALS IN  75342 RECORDS. CPU TIME:   913.38 SEC, REAL TIME:  1030.88 SEC
 SORT2 READ 26304265744. AND WROTE 36381317385. INTEGRALS IN 572448 RECORDS. CPU TIME:   122.56 SEC, REAL TIME:   655.70 SEC

 Node minimum:  9095228192.  Node maximum:  9095430501. integrals

 OPERATOR DM      FOR CENTER  0  COORDINATES:    0.000000    0.000000    0.000000


 **********************************************************************************************************************************
 DATASETS  * FILE   NREC   LENGTH (MB)   RECORD NAMES
              1      18       49.80       500      610      700      900      950      970     1000      129      960     1100   
                                          VAR    BASINP    GEOM    SYMINP    ZMAT    AOBASIS   BASIS     P2S    ABASIS      S 
                                         1400     1410     1200     1210     1080     1600     1650     1700   
                                           T        V       H0       H01     AOSYM     SMH    MOLCAS    OPER   

 PROGRAMS   *        TOTAL       INT
 CPU TIMES  *      1720.62   1720.40
 REAL TIME  *      2410.65 SEC
 DISK USED  *        50.44 MB (local),      460.09 GB (total)
 GA USED    *         0.00 MB       (max)       0.00 MB       (current)
 **********************************************************************************************************************************


 PROGRAM * RHF-SCF (CLOSED SHELL)       Authors: W. Meyer, H.-J. Werner


 NUMBER OF ELECTRONS:      10+   10-    SPACE SYMMETRY=1    SPIN SYMMETRY: Singlet 
 CONVERGENCE THRESHOLDS:    1.00E-08 (Density)    1.00E-11 (Energy)
 MAX. NUMBER OF ITERATIONS:       60
 INTERPOLATION TYPE:            DIIS
 INTERPOLATION STEPS:              2 (START)      1 (STEP)
 LEVEL SHIFTS:                  0.00 (CLOSED)  0.00 (OPEN) 



 Orbital guess generated from atomic densities. Full valence occupancy:   16

 Molecular orbital dump at record        2100.2

 Initial occupancy:  10

 ITERATION    DDIFF          GRAD             ENERGY        2-EL.EN.            DIPOLE MOMENTS         DIIS   ORB.
    1      0.000D+00      0.000D+00      -116.22311908    157.541387   -1.07353    0.30735   -0.25595    0    start
    2      0.000D+00      0.292D-02      -116.26725886    152.480480   -0.60122    0.22040   -0.17458    1    diag
    3      0.162D-02      0.171D-02      -116.28093303    154.571103   -0.72149    0.24516   -0.19636    2    diag
    4      0.553D-03      0.253D-03      -116.28158744    154.457726   -0.71091    0.24308   -0.19433    3    diag
    5      0.121D-03      0.742D-04      -116.28165593    154.452647   -0.71032    0.24379   -0.19464    4    diag
    6      0.499D-04      0.180D-04      -116.28165976    154.458190   -0.70946    0.24377   -0.19457    5    diag
    7      0.185D-04      0.363D-05      -116.28165999    154.456527   -0.70945    0.24380   -0.19459    6    diag
    8      0.570D-05      0.922D-06      -116.28166001    154.456695   -0.70937    0.24380   -0.19459    7    diag
    9      0.132D-05      0.218D-06      -116.28166001    154.456668   -0.70935    0.24380   -0.19458    8    diag
   10      0.271D-06      0.258D-07      -116.28166001    154.456669   -0.70935    0.24380   -0.19458    9    orth
   11      0.622D-07      0.585D-08      -116.28166001    154.456670   -0.70935    0.24380   -0.19458    9    diag
   12      0.481D-08      0.151D-08      -116.28166001    154.456670   -0.70935    0.24380   -0.19458    0    orth

 Final occupancy:  10

 !RHF STATE  1.1 Energy              -116.281660012053
 Nuclear energy                        35.88393783
 One-electron energy                 -229.39393299
 Two-electron energy                   77.22833514
 Virial quotient                       -1.00062192
 !RHF STATE  1.1 Dipole moment         -0.70934621     0.24379781    -0.19458081
 Dipole moment /Debye                  -1.80286014     0.61963164    -0.49454268

 Orbital energies:

         1.1          2.1          3.1          4.1          5.1          6.1          7.1          8.1          9.1         10.1
    -20.567040   -11.189024    -1.342414    -0.943780    -0.708584    -0.580089    -0.545439    -0.542886    -0.540620    -0.508754

        11.1         12.1
      0.020796     0.031230


 HOMO     10.1    -0.508754 =     -13.8439eV
 LUMO     11.1     0.020796 =       0.5659eV
 LUMO-HOMO         0.529551 =      14.4098eV


 **********************************************************************************************************************************
 DATASETS  * FILE   NREC   LENGTH (MB)   RECORD NAMES
              1      18       49.80       500      610      700      900      950      970     1000      129      960     1100   
                                          VAR    BASINP    GEOM    SYMINP    ZMAT    AOBASIS   BASIS     P2S    ABASIS      S 
                                         1400     1410     1200     1210     1080     1600     1650     1700   
                                           T        V       H0       H01     AOSYM     SMH    MOLCAS    OPER   

              2       4       13.79       700     1000      520     2100   
                                         GEOM     BASIS   MCVARS     RHF  

 PROGRAMS   *        TOTAL    HF-SCF       INT
 CPU TIMES  *      3334.20   1613.58   1720.40
 REAL TIME  *      4193.52 SEC
 DISK USED  *       102.61 MB (local),      460.29 GB (total)
 SF USED    *         2.16 MB
 GA USED    *         0.00 MB       (max)       0.00 MB       (current)
 **********************************************************************************************************************************

 Basis set:  JKFIT                   
 Basis size:  1104
 Attributes:
 Sphericals:   T
 Basis set:  MP2FIT                  
 Basis size:  1246
 Attributes:
 Sphericals:   T
 Basis set:  RI                      
 Basis size:   730
 Attributes:
 Sphericals:   T
 Basis set:  TDDFT                   
 Basis size:  1246
 Attributes:
 Sphericals:   T

 PROGRAM * CCSD (Closed-shell coupled cluster)     Authors: C. Hampel, H.-J. Werner, 1991, M. Deegan, P.J. Knowles, 1992

                                  CCSD-F12 implementation by  H.-J. Werner, 2007

                   Density fitting integral evaluation by F.R. Manby, 2003,2007, G. Knizia, 2010



 Convergence thresholds:  THRVAR = 1.00D-08  THRDEN = 1.00D-10

 CCSD(T)     terms to be evaluated (factor= 1.000)


 Number of core orbitals:           2 (   2 )
 Number of closed-shell orbitals:   8 (   8 )
 Number of external orbitals:     724 ( 724 )

 Molecular orbitals read from record     2100.2  Type=RHF/CANONICAL (state 1.1)

 MP2-F12 correlation treatment (H.-J. Werner, 2006)
 ==================================================

 Using MP2-F12 with ansatz 3C(FIX)

 Using projected zeroth-order Hamiltonian (+Z)

 FOCKRIB=T FOCKRIC=T FOCKRIP=T CABSP=T CABSA=T CABSK=T CABSF=T GBC=F EBC=F DMAT=T NOFIK=T NOPAO=1 SOLVE=-1  USEPAO=0
 EXCH_A= T EXCH_B= F EXCH_C= F EXCH_P= F

 Geminal basis:    OPTFULL  GEM_TYPE=SLATER  BETA=1.0  NGEM=6

 Optimizing Gaussian exponents for each gem_beta

 Geminal optimization for beta= 1.0000
 Weight function:   m=0, omega= 1.4646

 Augmented Hessian optimization of geminal fit. Trust ratio= 0.40000
 Convergence reached after   2 iterations. Final gradient= 8.53D-16, Step= 4.26D-06, Delta= 1.28D-09

 Alpha:                 0.19532     0.81920     2.85917     9.50073    35.69989   197.79328
 Coeff:                 0.27070     0.30552     0.18297     0.10986     0.06810     0.04224


 All pairs explicitly correlated. Number of r12-pairs:           36

 Excluding core orbitals from MO domains

 AO(A)-basis ORBITAL           loaded. Number of functions:     734
 RI(R)-basis RI                loaded. Number of functions:     730
 DF-basis JKFIT                loaded. Number of functions:    1104

 Screening thresholds:   THRAO=  1.00D-10  THRMO=  1.00D-09  THRPROD=  1.00D-09
                         THRSW=  1.00D-05  THROV=  1.00D-12  THRAOF12= 1.00D-10

 CPU time for Fock operators                      9.85 sec

 Construction of ABS:
 Smallest eigenvalue of S          2.27E-04  (threshold= 1.00E-08)
 Ratio eigmin/eigmax               3.95E-05  (threshold= 1.00E-09)
 Smallest eigenvalue of S kept     2.27E-04  (threshold= 2.27E-04, 0 functions deleted, 730 kept)

 Construction of CABS:
 Smallest eigenvalue of S          1.00E-08  (threshold= 1.00E-08)
 Ratio eigmin/eigmax               1.00E-08  (threshold= 1.00E-09)
 Smallest eigenvalue of S kept     8.42E-08  (threshold= 8.42E-08, 1 functions deleted, 729 kept)

 CPU time for CABS singles                        1.20 sec

 CABS-singles contribution of  -0.00007996 patched into reference energy.
 New reference energy        -116.28173997

 AO(A)-basis ORBITAL           loaded. Number of functions:     734
 RI(R)-basis RI                loaded. Number of functions:     730
 DF-basis MP2FIT               loaded. Number of functions:    1246

 Screening thresholds:   THRAO=  1.00D-10  THRMO=  1.00D-09  THRPROD=  1.00D-09
                         THRSW=  1.00D-05  THROV=  1.00D-12  THRAOF12= 1.00D-10

 CPU time for 3-index integral evaluation        28.60 sec
 CPU time for first  half transformation          2.89 sec (10235.2 MFLOP/sec)
 CPU time for second half transformation          0.11 sec ( 2336.0 MFLOP/sec)
 CPU time for sorting                             0.32 sec
 CPU time for fitting                             0.37 sec (25075.2 MFLOP/sec)
 CPU time for tilde quantities                    0.51 sec (27007.7 MFLOP/sec)
 CPU time for assembly                            4.62 sec (27568.1 MFLOP/sec)
 CPU time for tranop_f12                          5.89 sec (28319.1 MFLOP/sec)
 CPU time for f12 integrals (total)              51.57 sec, Elapsed time:     56.31 sec
 F12-matrices built in  4 passes.
 F12-matrices built in  4 passes.
 F12-matrices built in  4 passes.
 F12-matrices built in  4 passes.
 FC-matrix built in  4 passes.
 CPU time for f12 matrices (total)                4.61 sec, Elapsed time:      4.88 sec

 Diagonal F12 approximation with fixed coefficients:  TSING= 0.500,  TTRIP= 0.250 (scaled by -1/beta)

 DF-MP2-F12 energy corrections:
 ==============================
 Approx.                                    Singlet             Triplet             Total
 DF-MP2-F12/3*C(DX,FIX)                -0.011205810684     -0.000787257624     -0.011993068309
 DF-MP2-F12/3*C(FIX)                   -0.010397227886     -0.000516256401     -0.010913484287
 DF-MP2-F12/3C(FIX)                    -0.010510248860     -0.000531709141     -0.011041958001

 DF-MP2-F12 correlation energies:
 ================================
 Approx.                                    Singlet             Triplet             Ecorr            Total Energy
 DF-MP2                                -0.350103385705     -0.159462819956     -0.509566205661   -116.791306176918
 DF-MP2-F12/3*C(DX,FIX)                -0.361309196390     -0.160250077580     -0.521559273969   -116.803299245227
 DF-MP2-F12/3*C(FIX)                   -0.360500613592     -0.159979076357     -0.520479689948   -116.802219661205
 DF-MP2-F12/3C(FIX)                    -0.360613634565     -0.159994529096     -0.520608163661   -116.802348134919

 SCS-DF-MP2 energies (F_SING= 1.20000  F_TRIP= 0.62222  F_PARALLEL= 0.33333):
 ============================================================================
 SCS-DF-MP2                            -0.519345373041   -116.801085344298
 SCS-DF-MP2-F12/3*C(DX,FIX)            -0.533282195050   -116.815022166308
 SCS-DF-MP2-F12/3*C(FIX)               -0.532143272710   -116.813883243967
 SCS-DF-MP2-F12/3C(FIX)                -0.532288512916   -116.814028484173
 Symmetry transformation completed.

 Number of N-1 electron functions:               8
 Number of N-2 electron functions:              36
 Number of singly external CSFs:              5792
 Number of doubly external CSFs:          16776528
 Total number of CSFs:                    16782321

 Pair and operator lists are different

 Length of J-op  integral file:               1.47 GB
 Length of K-op  integral file:               2.18 GB
 Length of 3-ext integral record:             0.00 MB

 For full I/O caching in triples, increase memory by 34.16 Mwords to 4034.21 Mwords.

 Integral transformation finished. Total CPU:1078.24 sec, npass=  1  Memory used:1826.21 MW

 Reference energy:                   -116.28173997

 Adding F12 terms to K(Cij), methodcc=6,  factor= 1.0

 ITER.      SQ.NORM     CORR.ENERGY   TOTAL ENERGY   ENERGY CHANGE        DEN1      VAR(S)    VAR(P)  DIIS     TIME  TIME/IT
   1      1.13411673    -0.52155910  -116.80329907    -0.01198004    -0.00007874  0.14D-02  0.20D-02  1  1  1435.20   298.62
   2      1.14234084    -0.52260483  -116.80434480    -0.00104573    -0.01019026  0.32D-04  0.25D-03  2  2  1723.46   301.70
   3      1.14556280    -0.52276974  -116.80450971    -0.00016491    -0.00234542  0.11D-04  0.14D-04  3  3  2010.65   302.66
   4      1.14651556    -0.52277530  -116.80451527    -0.00000556    -0.00052744  0.68D-06  0.13D-05  4  4  2298.95   303.25
   5      1.14668156    -0.52277714  -116.80451712    -0.00000185    -0.00004141  0.20D-06  0.91D-07  5  5  2588.87   303.89
   6      1.14672648    -0.52277444  -116.80451441     0.00000270    -0.00000792  0.22D-07  0.78D-08  6  6  2876.47   304.05
   7      1.14673702    -0.52277325  -116.80451322     0.00000119    -0.00000260  0.22D-08  0.95D-09  6  2  3164.69   304.25
   8      1.14673975    -0.52277303  -116.80451300     0.00000022    -0.00000034  0.29D-09  0.92D-10  6  1  3452.02   304.28
   9      1.14674058    -0.52277299  -116.80451296     0.00000004    -0.00000003  0.23D-10  0.15D-10  6  3  3739.00   304.27
  10      1.14674070    -0.52277300  -116.80451297    -0.00000001     0.00000010  0.24D-11  0.17D-11  6  4  4025.29   304.22
  11      1.14674067    -0.52277300  -116.80451297    -0.00000001     0.00000007  0.33D-12  0.22D-12  6  5  4312.66   304.28
  12      1.14674065    -0.52277300  -116.80451298    -0.00000000     0.00000002  0.66D-13  0.28D-13  6  6  4599.78   304.25
  13      1.14674063    -0.52277301  -116.80451298    -0.00000000     0.00000001  0.13D-13  0.37D-14  6  2  4885.37   304.15
  14      1.14674063    -0.52277301  -116.80451298    -0.00000000     0.00000000  0.22D-14  0.77D-15  6  1  5168.67   303.88
  15      1.14674062    -0.52277301  -116.80451298    -0.00000000     0.00000000  0.27D-15  0.12D-15  6  3  5455.11   303.87
  16      1.14674062    -0.52277301  -116.80451298    -0.00000000    -0.00000000  0.35D-16  0.19D-16  6  4  5741.30   303.86
  17      1.14674062    -0.52277301  -116.80451298    -0.00000000    -0.00000000  0.78D-17  0.40D-17  6  5  6027.25   303.84

 Norm of t1 vector:      0.04939818      S-energy:    -0.00000000      T1 diagnostic:  0.00873245
                                                                       D1 diagnostic:  0.01887675

 Adding energy correction from Wij-K(Fij), methodcc=6  factor= 1.0

  CCSD correlation energy              -0.522773006140
  MP2-F12 correction (uncoupled)       -0.010858616081
  C*T doubles correction               -0.000162839463
  f12b correction                       0.002685954918

   CPU time for triples:   1981.72 sec for i =  1 -  6 /  8 (~  44.6 % done)
   CPU time for triples:   2613.32 sec for i =  7 -  8 /  8 (  100.0 % done)

 Total CPU time for triples:   4596.26 sec

  Ecorr(MP2)                           -0.509579057182
  Ecorr(MP2-F12)                       -0.520621015182
  Scale factor for triples energy       1.021668782979


 RESULTS
 =======

  Reference energy                   -116.281660012060
  F12 singles correction               -0.000079959197

 F12 singles corrections added to reference energy

  New reference energy               -116.281739971257

  F12a singlet correction              -0.010449198033
  F12a triplet correction              -0.000572257511
  F12a total correction                -0.011021455544

 F12a corrections for ansatz F12/3C(FIX) added to CCSD energy

  CCSD-F12a singlet pair energy        -0.387454155449
  CCSD-F12a triplet pair energy        -0.146340306035
  CCSD-F12a correlation energy         -0.533794461683

  Triples (T) contribution (scaled)    -0.017228789604
  Total correlation energy             -0.551023251287

  CCSD-F12a total energy             -116.815534432940
  CCSD[T]-F12a energy                -116.833317538714
  CCSD-T-F12a energy                 -116.832555480804
 !CCSD(T)-F12a total energy          -116.832763222544

 F12b corrections for ansatz F12/3C(FIX) added to CCSD(T)-F12a energy

  CCSD-F12b singlet pair energy        -0.384860976289
  CCSD-F12b triplet pair energy        -0.146247530278
  CCSD-F12b correlation energy         -0.531108506765

  Triples (T) contribution (scaled)    -0.017228789604
  Total correlation energy             -0.548337296369

  CCSD-F12b total energy             -116.812848478023
  CCSD[T]-F12b energy                -116.830631583796
  CCSD-T-F12b energy                 -116.829869525886
 !CCSD(T)-F12b total energy          -116.830077267626

 Timing summary (sec):

 STEP                 CPU(USER)    SYS     CPU(TOT)    WALL
 Transformation       1079.86     49.72   1129.58   1136.51
 CCSD iterations      4876.21    268.39   5144.60   5165.77
 Triples              4596.26     33.14   4629.40   4652.93
 MP2-F12                71.41      5.45     76.86     77.63
 F12b energy           263.08     13.11    276.19    277.24

 Program statistics:

 Available memory in ccsd:              3999999554
 Min. memory needed in ccsd:              48689265
 Max. memory used in ccsd:                63255345
 Max. memory used in cckext:              42753482 (18 integral passes)



 **********************************************************************************************************************************
 DATASETS  * FILE   NREC   LENGTH (MB)   RECORD NAMES
              1      19    12452.16       500      610      700      900      950      970     1000      129      960     1100   
                                          VAR    BASINP    GEOM    SYMINP    ZMAT    AOBASIS   BASIS     P2S    ABASIS      S 
                                         1400     1410     1200     1210     1080     1600     1650     1700     1380   
                                           T        V       H0       H01     AOSYM     SMH    MOLCAS    OPER     JKOP   

              2       6       24.60       700     1000      520     2100     7360     7350   
                                         GEOM     BASIS   MCVARS     RHF    F12ABS    EF12   

 PROGRAMS   *        TOTAL   CCSD(T)    HF-SCF       INT
 CPU TIMES  *     14221.19  10886.98   1613.58   1720.40
 REAL TIME  *     15506.23 SEC
 DISK USED  *        14.29 GB (local),      511.60 GB (total)
 SF USED    *        17.68 GB
 GA USED    *         4.87 MB       (max)       0.00 MB       (current)
 **********************************************************************************************************************************

 Running procedure: SET_MONOMER1

 Dummy atoms: C1  H41  H42  H43  H44


 Recomputing one-electron integrals since nuclear charges changed


 PROGRAM * SEWARD (Integral evaluation for generally contracted gaussian basis sets)     Author: Roland Lindh, 1990

 Geometry written to block  1 of record 700


 Point group  C1  



 ATOMIC COORDINATES

 NR  ATOM    CHARGE       X              Y              Z

   1  O14     8.00   -8.257347274    8.608080443   -1.772185160
   2  H27     1.00   -8.759447505   10.077153532   -2.731599113
   3  H28     1.00   -9.852276123    7.752790399   -1.314682465
   4  C1      0.00   -6.193010455    2.801518980    2.403542658
   5  H41     0.00   -4.656285171    1.699997622    3.119937832
   6  H42     0.00   -5.973046335    4.726205038    2.982932688
   7  H43     0.00   -7.940251230    2.077186956    3.118237078
   8  H44     0.00   -6.176569838    2.685300823    0.384937212

 Bond lengths in Bohr (Angstrom)

 1-2  1.825035758  1-3  1.866715781  4-5  2.021904040  4-6  2.022002335  4-7  2.021953343
     ( 0.965767332)     ( 0.987823451)     ( 1.069945541)     ( 1.069997556)     ( 1.069971630)

 4-8  2.022015060
     ( 1.070004290)

 Bond angles

  2-1-3  105.22390814   5-4-6  109.53398059   5-4-7  109.65604535   5-4-8  108.43490854

  6-4-7  109.49436728   6-4-8  109.86987750   7-4-8  109.83468330

 NUCLEAR CHARGE:                   10
 NUMBER OF PRIMITIVE AOS:        1046
 NUMBER OF SYMMETRY AOS:          786
 NUMBER OF CONTRACTIONS:          734   (  734A   )
 NUMBER OF CORE ORBITALS:           1   (    1A   )
 NUMBER OF VALENCE ORBITALS:        6   (    6A   )

 MOLECULE CHANGED: INITIALIZING OCCUPATION AND DUMP RECORDS


 NUCLEAR REPULSION ENERGY    9.00998347

 Basis set:  JKFIT                   
 Basis size:  1104
 Attributes:
 Sphericals:   T
 Basis set:  MP2FIT                  
 Basis size:  1246
 Attributes:
 Sphericals:   T
 Basis set:  RI                      
 Basis size:   730
 Attributes:
 Sphericals:   T
 Basis set:  TDDFT                   
 Basis size:  1246
 Attributes:
 Sphericals:   T

 Eigenvalues of metric

         1 0.191E-05 0.250E-05 0.362E-05 0.494E-05 0.549E-05 0.825E-05 0.854E-05 0.889E-05


 Contracted 2-electron integrals neglected if value below      1.0D-14

 OPERATOR DM      FOR CENTER  0  COORDINATES:    0.000000    0.000000    0.000000


 **********************************************************************************************************************************
 DATASETS  * FILE   NREC   LENGTH (MB)   RECORD NAMES
              1      18       49.80       500      610      700      900      950      970     1000      129      960     1100   
                                          VAR    BASINP    GEOM    SYMINP    ZMAT    AOBASIS   BASIS     P2S    ABASIS      S 
                                         1400     1410     1200     1210     1080     1600     1650     1700   
                                           T        V       H0       H01     AOSYM     SMH    MOLCAS    OPER   

              2       7       24.63       700     1000      520     2100     7360     7350      200   
                                         GEOM     BASIS   MCVARS     RHF    F12ABS    EF12    OPTIONS    

 PROGRAMS   *        TOTAL       INT   CCSD(T)    HF-SCF       INT
 CPU TIMES  *     14221.69      0.49  10886.98   1613.58   1720.40
 REAL TIME  *     15508.95 SEC
 DISK USED  *        14.29 GB (local),      511.60 GB (total)
 SF USED    *        17.68 GB
 GA USED    *         4.87 MB       (max)       0.00 MB       (current)
 **********************************************************************************************************************************


 PROGRAM * RHF-SCF (CLOSED SHELL)       Authors: W. Meyer, H.-J. Werner


 NUMBER OF ELECTRONS:       5+    5-    SPACE SYMMETRY=1    SPIN SYMMETRY: Singlet 
 CONVERGENCE THRESHOLDS:    1.00E-08 (Density)    1.00E-11 (Energy)
 MAX. NUMBER OF ITERATIONS:       60
 INTERPOLATION TYPE:            DIIS
 INTERPOLATION STEPS:              2 (START)      1 (STEP)
 LEVEL SHIFTS:                  0.00 (CLOSED)  0.00 (OPEN) 



 Orbital guess generated from atomic densities. Full valence occupancy:    7

 Molecular orbital dump at record        2101.2

 Initial occupancy:   5

 ITERATION    DDIFF          GRAD             ENERGY        2-EL.EN.            DIPOLE MOMENTS         DIIS   ORB.
    1      0.000D+00      0.000D+00       -76.02637162     77.434589   -1.07772    0.30879   -0.25373    0    start
    2      0.000D+00      0.360D-02       -76.05321227     73.778094   -0.62374    0.18492   -0.15079    1    diag
    3      0.130D-02      0.229D-02       -76.06478972     75.401804   -0.73650    0.21698   -0.17717    2    diag
    4      0.491D-03      0.215D-03       -76.06498459     75.310341   -0.73151    0.21674   -0.17676    3    diag
    5      0.626D-04      0.602D-04       -76.06500561     75.324872   -0.72965    0.21671   -0.17663    4    diag
    6      0.196D-04      0.120D-04       -76.06500698     75.323801   -0.72921    0.21674   -0.17664    5    diag
    7      0.511D-05      0.246D-05       -76.06500705     75.323945   -0.72907    0.21675   -0.17663    6    diag
    8      0.135D-05      0.467D-06       -76.06500705     75.323933   -0.72903    0.21674   -0.17662    7    diag
    9      0.252D-06      0.637D-07       -76.06500705     75.323924   -0.72902    0.21674   -0.17662    8    diag
   10      0.369D-07      0.143D-07       -76.06500705     75.323927   -0.72902    0.21674   -0.17662    9    orth
   11      0.813D-08      0.293D-08       -76.06500705     75.323926   -0.72902    0.21674   -0.17662    0    orth

 Final occupancy:   5

 !RHF STATE  1.1 Energy               -76.065007054276
 Nuclear energy                         9.00998347
 One-electron energy                 -122.73695373
 Two-electron energy                   37.66196321
 Virial quotient                       -1.00185521
 !RHF STATE  1.1 Dipole moment         -0.72902127     0.21674037    -0.17662309
 Dipole moment /Debye                  -1.85286588     0.55086299    -0.44890173

 Orbital energies:

         1.1          2.1          3.1          4.1          5.1          6.1          7.1
    -20.567051    -1.342373    -0.708545    -0.579806    -0.508738     0.018399     0.028800


 HOMO      5.1    -0.508738 =     -13.8435eV
 LUMO      6.1     0.018399 =       0.5007eV
 LUMO-HOMO         0.527137 =      14.3441eV


 **********************************************************************************************************************************
 DATASETS  * FILE   NREC   LENGTH (MB)   RECORD NAMES
              1      18       49.80       500      610      700      900      950      970     1000      129      960     1100   
                                          VAR    BASINP    GEOM    SYMINP    ZMAT    AOBASIS   BASIS     P2S    ABASIS      S 
                                         1400     1410     1200     1210     1080     1600     1650     1700   
                                           T        V       H0       H01     AOSYM     SMH    MOLCAS    OPER   

              2       8       38.40       700     1000      520     2100     7360     7350      200     2101   
                                         GEOM     BASIS   MCVARS     RHF    F12ABS    EF12    OPTIONS    RHF  

 PROGRAMS   *        TOTAL    HF-SCF       INT   CCSD(T)    HF-SCF       INT
 CPU TIMES  *     15649.61   1427.91      0.49  10886.98   1613.58   1720.40
 REAL TIME  *     17095.23 SEC
 DISK USED  *        14.29 GB (local),      511.60 GB (total)
 SF USED    *        17.68 GB
 GA USED    *         4.87 MB       (max)       0.00 MB       (current)
 **********************************************************************************************************************************

 Basis set:  JKFIT                   
 Basis size:  1104
 Attributes:
 Sphericals:   T
 Basis set:  MP2FIT                  
 Basis size:  1246
 Attributes:
 Sphericals:   T
 Basis set:  RI                      
 Basis size:   730
 Attributes:
 Sphericals:   T
 Basis set:  TDDFT                   
 Basis size:  1246
 Attributes:
 Sphericals:   T

 PROGRAM * CCSD (Closed-shell coupled cluster)     Authors: C. Hampel, H.-J. Werner, 1991, M. Deegan, P.J. Knowles, 1992

                                  CCSD-F12 implementation by  H.-J. Werner, 2007

                   Density fitting integral evaluation by F.R. Manby, 2003,2007, G. Knizia, 2010



 Convergence thresholds:  THRVAR = 1.00D-08  THRDEN = 1.00D-10

 CCSD(T)     terms to be evaluated (factor= 1.000)


 Number of core orbitals:           1 (   1 )
 Number of closed-shell orbitals:   4 (   4 )
 Number of external orbitals:     729 ( 729 )

 Molecular orbitals read from record     2101.2  Type=RHF/CANONICAL (state 1.1)

 MP2-F12 correlation treatment (H.-J. Werner, 2006)
 ==================================================

 Using MP2-F12 with ansatz 3C(FIX)

 Using projected zeroth-order Hamiltonian (+Z)

 FOCKRIB=T FOCKRIC=T FOCKRIP=T CABSP=T CABSA=T CABSK=T CABSF=T GBC=F EBC=F DMAT=T NOFIK=T NOPAO=1 SOLVE=-1  USEPAO=0
 EXCH_A= T EXCH_B= F EXCH_C= F EXCH_P= F

 Geminal basis:    OPTFULL  GEM_TYPE=SLATER  BETA=1.0  NGEM=6

 Optimizing Gaussian exponents for each gem_beta

 Geminal optimization for beta= 1.0000
 Weight function:   m=0, omega= 1.4646

 Augmented Hessian optimization of geminal fit. Trust ratio= 0.40000
 Convergence reached after   2 iterations. Final gradient= 8.53D-16, Step= 4.26D-06, Delta= 1.28D-09

 Alpha:                 0.19532     0.81920     2.85917     9.50073    35.69989   197.79328
 Coeff:                 0.27070     0.30552     0.18297     0.10986     0.06810     0.04224


 All pairs explicitly correlated. Number of r12-pairs:           10

 Excluding core orbitals from MO domains

 AO(A)-basis ORBITAL           loaded. Number of functions:     734
 RI(R)-basis RI                loaded. Number of functions:     730
 DF-basis JKFIT                loaded. Number of functions:    1104

 Screening thresholds:   THRAO=  1.00D-10  THRMO=  1.00D-09  THRPROD=  1.00D-09
                         THRSW=  1.00D-05  THROV=  1.00D-12  THRAOF12= 1.00D-10

 CPU time for Fock operators                      9.02 sec

 Construction of ABS:
 Smallest eigenvalue of S          2.27E-04  (threshold= 1.00E-08)
 Ratio eigmin/eigmax               3.95E-05  (threshold= 1.00E-09)
 Smallest eigenvalue of S kept     2.27E-04  (threshold= 2.27E-04, 0 functions deleted, 730 kept)

 Construction of CABS:
 Smallest eigenvalue of S          1.00E-08  (threshold= 1.00E-08)
 Ratio eigmin/eigmax               1.00E-08  (threshold= 1.00E-09)
 Smallest eigenvalue of S kept     8.42E-08  (threshold= 8.42E-08, 1 functions deleted, 729 kept)

 CPU time for CABS singles                        1.21 sec

 CABS-singles contribution of  -0.00003917 patched into reference energy.
 New reference energy         -76.06504622

 AO(A)-basis ORBITAL           loaded. Number of functions:     734
 RI(R)-basis RI                loaded. Number of functions:     730
 DF-basis MP2FIT               loaded. Number of functions:    1246

 Screening thresholds:   THRAO=  1.00D-10  THRMO=  1.00D-09  THRPROD=  1.00D-09
                         THRSW=  1.00D-05  THROV=  1.00D-12  THRAOF12= 1.00D-10

 CPU time for 3-index integral evaluation        27.79 sec
 CPU time for first  half transformation          2.42 sec ( 5981.1 MFLOP/sec)
 CPU time for second half transformation          0.04 sec ( 1641.0 MFLOP/sec)
 CPU time for sorting                             0.17 sec
 CPU time for fitting                             0.35 sec (26020.2 MFLOP/sec)
 CPU time for tilde quantities                    0.54 sec (   28.8 MFLOP/sec)
 CPU time for assembly                            1.44 sec (26963.0 MFLOP/sec)
 CPU time for tranop_f12                          1.79 sec (21217.7 MFLOP/sec)
 CPU time for f12 integrals (total)              37.42 sec, Elapsed time:     39.17 sec
 F12-matrices built in  4 passes.
 F12-matrices built in  4 passes.
 F12-matrices built in  4 passes.
 F12-matrices built in  4 passes.
 FC-matrix built in  4 passes.
 CPU time for f12 matrices (total)                1.37 sec, Elapsed time:      1.39 sec

 Diagonal F12 approximation with fixed coefficients:  TSING= 0.500,  TTRIP= 0.250 (scaled by -1/beta)

 DF-MP2-F12 energy corrections:
 ==============================
 Approx.                                    Singlet             Triplet             Total
 DF-MP2-F12/3*C(DX,FIX)                -0.007266220391     -0.000572820836     -0.007839041227
 DF-MP2-F12/3*C(FIX)                   -0.006620813037     -0.000353690690     -0.006974503728
 DF-MP2-F12/3C(FIX)                    -0.006686554115     -0.000365887235     -0.007052441350

 DF-MP2-F12 correlation energies:
 ================================
 Approx.                                    Singlet             Triplet             Ecorr            Total Energy
 DF-MP2                                -0.192101672815     -0.102239723987     -0.294341396802    -76.359387620800
 DF-MP2-F12/3*C(DX,FIX)                -0.199367893206     -0.102812544823     -0.302180438028    -76.367226662027
 DF-MP2-F12/3*C(FIX)                   -0.198722485852     -0.102593414678     -0.301315900530    -76.366362124528
 DF-MP2-F12/3C(FIX)                    -0.198788226929     -0.102605611222     -0.301393838152    -76.366440062150

 SCS-DF-MP2 energies (F_SING= 1.20000  F_TRIP= 0.62222  F_PARALLEL= 0.33333):
 ============================================================================
 SCS-DF-MP2                            -0.294137835636    -76.359184059635
 SCS-DF-MP2-F12/3*C(DX,FIX)            -0.303213721959    -76.368259945957
 SCS-DF-MP2-F12/3*C(FIX)               -0.302302885489    -76.367349109487
 SCS-DF-MP2-F12/3C(FIX)                -0.302389363743    -76.367435587741
 Symmetry transformation completed.

 Number of N-1 electron functions:               4
 Number of N-2 electron functions:              10
 Number of singly external CSFs:              2916
 Number of doubly external CSFs:           4252986
 Total number of CSFs:                     4255903

 Pair and operator lists are different

 Length of J-op  integral file:             411.24 MB
 Length of K-op  integral file:             721.80 MB
 Length of 3-ext integral record:             0.00 MB

 Memory could be reduced to 2535.14 Mwords without degradation in triples

 Integral transformation finished. Total CPU: 560.91 sec, npass=  1  Memory used:1009.99 MW

 Reference energy:                    -76.06504622

 Adding F12 terms to K(Cij), methodcc=6,  factor= 1.0

 ITER.      SQ.NORM     CORR.ENERGY   TOTAL ENERGY   ENERGY CHANGE        DEN1      VAR(S)    VAR(P)  DIIS     TIME  TIME/IT
   1      1.06359041    -0.29280590   -76.35785213     0.00154168     0.00758591  0.78D-03  0.10D-02  1  1   752.77   153.56
   2      1.06710488    -0.29290003   -76.35794625    -0.00009413    -0.00496975  0.15D-04  0.12D-03  2  2   895.38   155.01
   3      1.06843544    -0.29299197   -76.35803819    -0.00009194    -0.00094579  0.82D-05  0.72D-05  3  3  1037.45   155.50
   4      1.06894672    -0.29299743   -76.35804366    -0.00000546    -0.00027912  0.52D-06  0.72D-06  4  4  1180.00   155.79
   5      1.06904936    -0.29299617   -76.35804239     0.00000126    -0.00002993  0.16D-06  0.52D-07  5  5  1321.89   155.83
   6      1.06908314    -0.29299391   -76.35804014     0.00000226    -0.00000581  0.17D-07  0.43D-08  6  6  1465.11   156.14
   7      1.06909128    -0.29299339   -76.35803961     0.00000053    -0.00000125  0.12D-08  0.64D-09  6  2  1607.28   156.18
   8      1.06909303    -0.29299328   -76.35803951     0.00000010    -0.00000001  0.17D-09  0.65D-10  6  1  1749.79   156.27
   9      1.06909361    -0.29299325   -76.35803948     0.00000003     0.00000000  0.13D-10  0.78D-11  6  3  1891.11   156.13
  10      1.06909371    -0.29299325   -76.35803947     0.00000001     0.00000003  0.17D-11  0.82D-12  6  4  2034.01   156.26
  11      1.06909370    -0.29299325   -76.35803947    -0.00000000     0.00000003  0.33D-12  0.12D-12  6  5  2176.46   156.30
  12      1.06909369    -0.29299325   -76.35803947    -0.00000000     0.00000001  0.67D-13  0.18D-13  6  6  2318.68   156.36
  13      1.06909368    -0.29299325   -76.35803947    -0.00000000     0.00000000  0.11D-13  0.28D-14  6  2  2461.43   156.40
  14      1.06909368    -0.29299325   -76.35803947    -0.00000000     0.00000000  0.13D-14  0.61D-15  6  1  2600.61   156.18
  15      1.06909368    -0.29299325   -76.35803947    -0.00000000    -0.00000000  0.15D-15  0.87D-16  6  3  2738.41   155.89
  16      1.06909368    -0.29299325   -76.35803947    -0.00000000    -0.00000000  0.19D-16  0.11D-16  6  4  2875.70   155.59

 Norm of t1 vector:      0.03663185      S-energy:    -0.00000000      T1 diagnostic:  0.00915796
                                                                       D1 diagnostic:  0.01866100

 Adding energy correction from Wij-K(Fij), methodcc=6  factor= 1.0

  CCSD correlation energy              -0.292993250507
  MP2-F12 correction (uncoupled)       -0.006967698286
  C*T doubles correction               -0.000092960855
  f12b correction                       0.001583247752


 Total CPU time for triples:    639.40 sec

  Ecorr(MP2)                           -0.294347578618
  Ecorr(MP2-F12)                       -0.301400019968
  Scale factor for triples energy       1.023959569781


 RESULTS
 =======

  Reference energy                    -76.065007054275
  F12 singles correction               -0.000039169723

 F12 singles corrections added to reference energy

  New reference energy                -76.065046223999

  F12a singlet correction              -0.006661370695
  F12a triplet correction              -0.000399288446
  F12a total correction                -0.007060659141

 F12a corrections for ansatz F12/3C(FIX) added to CCSD energy

  CCSD-F12a singlet pair energy        -0.209275072424
  CCSD-F12a triplet pair energy        -0.090778836657
  CCSD-F12a correlation energy         -0.300053909648

  Triples (T) contribution (scaled)    -0.010031167724
  Total correlation energy             -0.310085077372

  CCSD-F12a total energy              -76.365100133647
  CCSD[T]-F12a energy                 -76.375447796712
  CCSD-T-F12a energy                  -76.374992581863
 !CCSD(T)-F12a total energy           -76.375131301371

 F12b corrections for ansatz F12/3C(FIX) added to CCSD(T)-F12a energy

  CCSD-F12b singlet pair energy        -0.207755181923
  CCSD-F12b triplet pair energy        -0.090715479406
  CCSD-F12b correlation energy         -0.298470661896

  Triples (T) contribution (scaled)    -0.010031167724
  Total correlation energy             -0.308501829620

  CCSD-F12b total energy              -76.363516885895
  CCSD[T]-F12b energy                 -76.373864548960
  CCSD-T-F12b energy                  -76.373409334111
 !CCSD(T)-F12b total energy           -76.373548053619

 Timing summary (sec):

 STEP                 CPU(USER)    SYS     CPU(TOT)    WALL
 Transformation        561.43     26.78    588.21    591.12
 CCSD iterations      2263.16    218.45   2481.61   2489.81
 Triples               639.40      5.46    644.86    646.49
 MP2-F12                51.27      2.17     53.44     53.68
 F12b energy           131.85     12.41    144.26    144.65

 Program statistics:

 Available memory in ccsd:              3999999871
 Min. memory needed in ccsd:              19260852
 Max. memory used in ccsd:                22423154
 Max. memory used in cckext:              14628952 (17 integral passes)



 **********************************************************************************************************************************
 DATASETS  * FILE   NREC   LENGTH (MB)   RECORD NAMES
              1      19     6330.34       500      610      700      900      950      970     1000      129      960     1100   
                                          VAR    BASINP    GEOM    SYMINP    ZMAT    AOBASIS   BASIS     P2S    ABASIS      S 
                                         1400     1410     1200     1210     1080     1600     1650     1700     1380   
                                           T        V       H0       H01     AOSYM     SMH    MOLCAS    OPER     JKOP   

              2       8       38.40       700     1000      520     2100     7360     7350      200     2101   
                                         GEOM     BASIS   MCVARS     RHF    F12ABS    EF12    OPTIONS    RHF  

 PROGRAMS   *        TOTAL   CCSD(T)    HF-SCF       INT   CCSD(T)    HF-SCF       INT
 CPU TIMES  *     19296.93   3647.32   1427.91      0.49  10886.98   1613.58   1720.40
 REAL TIME  *     21022.45 SEC
 DISK USED  *        14.29 GB (local),      511.60 GB (total)
 SF USED    *        17.68 GB
 GA USED    *         4.87 MB       (max)       0.00 MB       (current)
 **********************************************************************************************************************************

 Running procedure: SET_MONOMER2

 Dummy atoms: O14  H27  H28


 Recomputing one-electron integrals since nuclear charges changed


 PROGRAM * SEWARD (Integral evaluation for generally contracted gaussian basis sets)     Author: Roland Lindh, 1990

 Geometry written to block  1 of record 700


 Point group  C1  



 ATOMIC COORDINATES

 NR  ATOM    CHARGE       X              Y              Z

   1  O14     0.00   -8.257347274    8.608080443   -1.772185160
   2  H27     0.00   -8.759447505   10.077153532   -2.731599113
   3  H28     0.00   -9.852276123    7.752790399   -1.314682465
   4  C1      6.00   -6.193010455    2.801518980    2.403542658
   5  H41     1.00   -4.656285171    1.699997622    3.119937832
   6  H42     1.00   -5.973046335    4.726205038    2.982932688
   7  H43     1.00   -7.940251230    2.077186956    3.118237078
   8  H44     1.00   -6.176569838    2.685300823    0.384937212

 Bond lengths in Bohr (Angstrom)

 1-2  1.825035758  1-3  1.866715781  4-5  2.021904040  4-6  2.022002335  4-7  2.021953343
     ( 0.965767332)     ( 0.987823451)     ( 1.069945541)     ( 1.069997556)     ( 1.069971630)

 4-8  2.022015060
     ( 1.070004290)

 Bond angles

  2-1-3  105.22390814   5-4-6  109.53398059   5-4-7  109.65604535   5-4-8  108.43490854

  6-4-7  109.49436728   6-4-8  109.86987750   7-4-8  109.83468330

 NUCLEAR CHARGE:                   10
 NUMBER OF PRIMITIVE AOS:        1046
 NUMBER OF SYMMETRY AOS:          786
 NUMBER OF CONTRACTIONS:          734   (  734A   )
 NUMBER OF CORE ORBITALS:           1   (    1A   )
 NUMBER OF VALENCE ORBITALS:        8   (    8A   )

 MOLECULE CHANGED: INITIALIZING OCCUPATION AND DUMP RECORDS


 NUCLEAR REPULSION ENERGY   13.68681606

 Basis set:  JKFIT                   
 Basis size:  1104
 Attributes:
 Sphericals:   T
 Basis set:  MP2FIT                  
 Basis size:  1246
 Attributes:
 Sphericals:   T
 Basis set:  RI                      
 Basis size:   730
 Attributes:
 Sphericals:   T
 Basis set:  TDDFT                   
 Basis size:  1246
 Attributes:
 Sphericals:   T

 Eigenvalues of metric

         1 0.191E-05 0.250E-05 0.362E-05 0.494E-05 0.549E-05 0.825E-05 0.854E-05 0.889E-05


 Contracted 2-electron integrals neglected if value below      1.0D-14

 OPERATOR DM      FOR CENTER  0  COORDINATES:    0.000000    0.000000    0.000000


 **********************************************************************************************************************************
 DATASETS  * FILE   NREC   LENGTH (MB)   RECORD NAMES
              1      18       49.80       500      610      700      900      950      970     1000      129      960     1100   
                                          VAR    BASINP    GEOM    SYMINP    ZMAT    AOBASIS   BASIS     P2S    ABASIS      S 
                                         1400     1410     1200     1210     1080     1600     1650     1700   
                                           T        V       H0       H01     AOSYM     SMH    MOLCAS    OPER   

              2       8       38.40       700     1000      520     2100     7360     7350      200     2101   
                                         GEOM     BASIS   MCVARS     RHF    F12ABS    EF12    OPTIONS    RHF  

 PROGRAMS   *        TOTAL       INT   CCSD(T)    HF-SCF       INT   CCSD(T)    HF-SCF       INT
 CPU TIMES  *     19297.40      0.47   3647.32   1427.91      0.49  10886.98   1613.58   1720.40
 REAL TIME  *     21023.97 SEC
 DISK USED  *        14.29 GB (local),      511.60 GB (total)
 SF USED    *        17.68 GB
 GA USED    *         4.87 MB       (max)       0.00 MB       (current)
 **********************************************************************************************************************************


 PROGRAM * RHF-SCF (CLOSED SHELL)       Authors: W. Meyer, H.-J. Werner


 NUMBER OF ELECTRONS:       5+    5-    SPACE SYMMETRY=1    SPIN SYMMETRY: Singlet 
 CONVERGENCE THRESHOLDS:    1.00E-08 (Density)    1.00E-11 (Energy)
 MAX. NUMBER OF ITERATIONS:       60
 INTERPOLATION TYPE:            DIIS
 INTERPOLATION STEPS:              2 (START)      1 (STEP)
 LEVEL SHIFTS:                  0.00 (CLOSED)  0.00 (OPEN) 



 Orbital guess generated from atomic densities. Full valence occupancy:    9

 Molecular orbital dump at record        2102.2

 Initial occupancy:   5

 ITERATION    DDIFF          GRAD             ENERGY        2-EL.EN.            DIPOLE MOMENTS         DIIS   ORB.
    1      0.000D+00      0.000D+00       -40.19676524     53.509902    0.00411   -0.00276   -0.00131    0    start
    2      0.000D+00      0.198D-02       -40.21405744     52.218478    0.00128   -0.00087   -0.00039    1    diag
    3      0.949D-03      0.769D-03       -40.21634087     52.673984    0.00182   -0.00123   -0.00055    2    diag
    4      0.258D-03      0.192D-03       -40.21666119     52.619247    0.00162   -0.00110   -0.00049    3    diag
    5      0.976D-04      0.248D-04       -40.21666668     52.621405    0.00159   -0.00108   -0.00048    4    diag
    6      0.341D-04      0.204D-05       -40.21666672     52.621533    0.00159   -0.00108   -0.00048    5    diag
    7      0.625D-05      0.166D-06       -40.21666672     52.621496    0.00159   -0.00108   -0.00048    6    diag
    8      0.387D-06      0.136D-07       -40.21666672     52.621496    0.00159   -0.00108   -0.00048    7    diag
    9      0.553D-07      0.167D-08       -40.21666672     52.621496    0.00159   -0.00108   -0.00048    8    diag
   10      0.109D-07      0.465D-09       -40.21666672     52.621496    0.00159   -0.00108   -0.00048    9    orth
   11      0.120D-08      0.666D-10       -40.21666672     52.621496    0.00159   -0.00108   -0.00048    0    orth

 Final occupancy:   5

 !RHF STATE  1.1 Energy               -40.216666718387
 Nuclear energy                        13.68681606
 One-electron energy                  -80.21423091
 Two-electron energy                   26.31074813
 Virial quotient                       -0.99832815
 !RHF STATE  1.1 Dipole moment          0.00158550    -0.00107948    -0.00047616
 Dipole moment /Debye                   0.00402967    -0.00274357    -0.00121021

 Orbital energies:

         1.1          2.1          3.1          4.1          5.1          6.1          7.1
    -11.196017    -0.950605    -0.551931    -0.549996    -0.547818     0.020690     0.031246


 HOMO      5.1    -0.547818 =     -14.9069eV
 LUMO      6.1     0.020690 =       0.5630eV
 LUMO-HOMO         0.568507 =      15.4699eV


 **********************************************************************************************************************************
 DATASETS  * FILE   NREC   LENGTH (MB)   RECORD NAMES
              1      18       49.80       500      610      700      900      950      970     1000      129      960     1100   
                                          VAR    BASINP    GEOM    SYMINP    ZMAT    AOBASIS   BASIS     P2S    ABASIS      S 
                                         1400     1410     1200     1210     1080     1600     1650     1700   
                                           T        V       H0       H01     AOSYM     SMH    MOLCAS    OPER   

              2       9       62.49       700     1000      520     2100     7360     7350      200     2101     2102   
                                         GEOM     BASIS   MCVARS     RHF    F12ABS    EF12    OPTIONS    RHF      RHF  

 PROGRAMS   *        TOTAL    HF-SCF       INT   CCSD(T)    HF-SCF       INT   CCSD(T)    HF-SCF       INT
 CPU TIMES  *     20849.28   1551.87      0.47   3647.32   1427.91      0.49  10886.98   1613.58   1720.40
 REAL TIME  *     22724.29 SEC
 DISK USED  *        14.29 GB (local),      511.60 GB (total)
 SF USED    *        17.68 GB
 GA USED    *         4.87 MB       (max)       0.00 MB       (current)
 **********************************************************************************************************************************

 Basis set:  JKFIT                   
 Basis size:  1104
 Attributes:
 Sphericals:   T
 Basis set:  MP2FIT                  
 Basis size:  1246
 Attributes:
 Sphericals:   T
 Basis set:  RI                      
 Basis size:   730
 Attributes:
 Sphericals:   T
 Basis set:  TDDFT                   
 Basis size:  1246
 Attributes:
 Sphericals:   T

 PROGRAM * CCSD (Closed-shell coupled cluster)     Authors: C. Hampel, H.-J. Werner, 1991, M. Deegan, P.J. Knowles, 1992

                                  CCSD-F12 implementation by  H.-J. Werner, 2007

                   Density fitting integral evaluation by F.R. Manby, 2003,2007, G. Knizia, 2010



 Convergence thresholds:  THRVAR = 1.00D-08  THRDEN = 1.00D-10

 CCSD(T)     terms to be evaluated (factor= 1.000)


 Number of core orbitals:           1 (   1 )
 Number of closed-shell orbitals:   4 (   4 )
 Number of external orbitals:     729 ( 729 )

 Molecular orbitals read from record     2102.2  Type=RHF/CANONICAL (state 1.1)

 MP2-F12 correlation treatment (H.-J. Werner, 2006)
 ==================================================

 Using MP2-F12 with ansatz 3C(FIX)

 Using projected zeroth-order Hamiltonian (+Z)

 FOCKRIB=T FOCKRIC=T FOCKRIP=T CABSP=T CABSA=T CABSK=T CABSF=T GBC=F EBC=F DMAT=T NOFIK=T NOPAO=1 SOLVE=-1  USEPAO=0
 EXCH_A= T EXCH_B= F EXCH_C= F EXCH_P= F

 Geminal basis:    OPTFULL  GEM_TYPE=SLATER  BETA=1.0  NGEM=6

 Optimizing Gaussian exponents for each gem_beta

 Geminal optimization for beta= 1.0000
 Weight function:   m=0, omega= 1.4646

 Augmented Hessian optimization of geminal fit. Trust ratio= 0.40000
 Convergence reached after   2 iterations. Final gradient= 8.53D-16, Step= 4.26D-06, Delta= 1.28D-09

 Alpha:                 0.19532     0.81920     2.85917     9.50073    35.69989   197.79328
 Coeff:                 0.27070     0.30552     0.18297     0.10986     0.06810     0.04224


 All pairs explicitly correlated. Number of r12-pairs:           10

 Excluding core orbitals from MO domains

 AO(A)-basis ORBITAL           loaded. Number of functions:     734
 RI(R)-basis RI                loaded. Number of functions:     730
 DF-basis JKFIT                loaded. Number of functions:    1104

 Screening thresholds:   THRAO=  1.00D-10  THRMO=  1.00D-09  THRPROD=  1.00D-09
                         THRSW=  1.00D-05  THROV=  1.00D-12  THRAOF12= 1.00D-10

 CPU time for Fock operators                      9.13 sec

 Construction of ABS:
 Smallest eigenvalue of S          2.27E-04  (threshold= 1.00E-08)
 Ratio eigmin/eigmax               3.95E-05  (threshold= 1.00E-09)
 Smallest eigenvalue of S kept     2.27E-04  (threshold= 2.27E-04, 0 functions deleted, 730 kept)

 Construction of CABS:
 Smallest eigenvalue of S          1.00E-08  (threshold= 1.00E-08)
 Ratio eigmin/eigmax               1.00E-08  (threshold= 1.00E-09)
 Smallest eigenvalue of S kept     8.42E-08  (threshold= 8.42E-08, 1 functions deleted, 729 kept)

 CPU time for CABS singles                        1.18 sec

 CABS-singles contribution of  -0.00004084 patched into reference energy.
 New reference energy         -40.21670756

 AO(A)-basis ORBITAL           loaded. Number of functions:     734
 RI(R)-basis RI                loaded. Number of functions:     730
 DF-basis MP2FIT               loaded. Number of functions:    1246

 Screening thresholds:   THRAO=  1.00D-10  THRMO=  1.00D-09  THRPROD=  1.00D-09
                         THRSW=  1.00D-05  THROV=  1.00D-12  THRAOF12= 1.00D-10

 CPU time for 3-index integral evaluation        28.13 sec
 CPU time for first  half transformation          2.45 sec ( 5943.4 MFLOP/sec)
 CPU time for second half transformation          0.03 sec ( 2075.6 MFLOP/sec)
 CPU time for sorting                             0.16 sec
 CPU time for fitting                             0.36 sec (25383.6 MFLOP/sec)
 CPU time for tilde quantities                    0.54 sec (12730.6 MFLOP/sec)
 CPU time for assembly                            1.42 sec (25472.3 MFLOP/sec)
 CPU time for tranop_f12                          1.89 sec (20488.0 MFLOP/sec)
 CPU time for f12 integrals (total)              37.87 sec, Elapsed time:     39.62 sec
 F12-matrices built in  4 passes.
 F12-matrices built in  4 passes.
 F12-matrices built in  4 passes.
 F12-matrices built in  4 passes.
 FC-matrix built in  4 passes.
 CPU time for f12 matrices (total)                1.39 sec, Elapsed time:      1.42 sec

 Diagonal F12 approximation with fixed coefficients:  TSING= 0.500,  TTRIP= 0.250 (scaled by -1/beta)

 DF-MP2-F12 energy corrections:
 ==============================
 Approx.                                    Singlet             Triplet             Total
 DF-MP2-F12/3*C(DX,FIX)                -0.003936749430     -0.000213299789     -0.004150049219
 DF-MP2-F12/3*C(FIX)                   -0.003773662696     -0.000161167562     -0.003934830259
 DF-MP2-F12/3C(FIX)                    -0.003820798107     -0.000164212832     -0.003985010940

 DF-MP2-F12 correlation energies:
 ================================
 Approx.                                    Singlet             Triplet             Ecorr            Total Energy
 DF-MP2                                -0.157866216679     -0.056824636541     -0.214690853220    -40.431398415761
 DF-MP2-F12/3*C(DX,FIX)                -0.161802966109     -0.057037936330     -0.218840902439    -40.435548464980
 DF-MP2-F12/3*C(FIX)                   -0.161639879375     -0.056985804104     -0.218625683479    -40.435333246020
 DF-MP2-F12/3C(FIX)                    -0.161687014786     -0.056988849374     -0.218675864160    -40.435383426701

 SCS-DF-MP2 energies (F_SING= 1.20000  F_TRIP= 0.62222  F_PARALLEL= 0.33333):
 ============================================================================
 SCS-DF-MP2                            -0.224797011640    -40.441504574181
 SCS-DF-MP2-F12/3*C(DX,FIX)            -0.229653830825    -40.446361393366
 SCS-DF-MP2-F12/3*C(FIX)               -0.229425688915    -40.446133251456
 SCS-DF-MP2-F12/3C(FIX)                -0.229484146243    -40.446191708784
 Symmetry transformation completed.

 Number of N-1 electron functions:               4
 Number of N-2 electron functions:              10
 Number of singly external CSFs:              2916
 Number of doubly external CSFs:           4252986
 Total number of CSFs:                     4255903

 Pair and operator lists are different

 Length of J-op  integral file:             411.24 MB
 Length of K-op  integral file:             721.80 MB
 Length of 3-ext integral record:             0.00 MB

 Memory could be reduced to 2535.14 Mwords without degradation in triples

 Integral transformation finished. Total CPU: 575.72 sec, npass=  1  Memory used:1009.99 MW

 Reference energy:                    -40.21670756

 Adding F12 terms to K(Cij), methodcc=6,  factor= 1.0

 ITER.      SQ.NORM     CORR.ENERGY   TOTAL ENERGY   ENERGY CHANGE        DEN1      VAR(S)    VAR(P)  DIIS     TIME  TIME/IT
   1      1.07033672    -0.22827014   -40.44497770    -0.01357257    -0.00771835  0.62D-03  0.94D-03  1  1   770.09   154.92
   2      1.07515858    -0.22922700   -40.44593456    -0.00095686    -0.00531218  0.16D-04  0.11D-03  2  2   916.56   157.55
   3      1.07694809    -0.22929436   -40.44600193    -0.00006736    -0.00133758  0.22D-05  0.64D-05  3  3  1061.57   157.94
   4      1.07735088    -0.22929682   -40.44600438    -0.00000246    -0.00021860  0.16D-06  0.39D-06  4  4  1205.87   158.06
   5      1.07740815    -0.22930039   -40.44600795    -0.00000357    -0.00000963  0.14D-07  0.24D-07  5  5  1351.22   158.41
   6      1.07741839    -0.22929904   -40.44600660     0.00000136    -0.00000405  0.88D-09  0.18D-08  6  6  1494.58   158.20
   7      1.07741989    -0.22929865   -40.44600621     0.00000039    -0.00000089  0.55D-10  0.13D-09  6  1  1637.55   158.02
   8      1.07741982    -0.22929871   -40.44600627    -0.00000006     0.00000024  0.58D-11  0.82D-11  6  3  1782.50   158.08
   9      1.07741996    -0.22929869   -40.44600625     0.00000002    -0.00000009  0.38D-12  0.55D-12  6  2  1926.20   158.02
  10      1.07741996    -0.22929869   -40.44600625     0.00000000     0.00000001  0.54D-13  0.60D-13  6  4  2073.99   158.43
  11      1.07741997    -0.22929869   -40.44600625     0.00000000    -0.00000000  0.56D-14  0.65D-14  6  5  2221.78   158.73
  12      1.07741996    -0.22929869   -40.44600625     0.00000000     0.00000000  0.14D-15  0.65D-15  6  6  2370.17   158.99
  13      1.07741996    -0.22929869   -40.44600625    -0.00000000     0.00000000  0.11D-16  0.70D-16  6  1  2516.45   159.11
  14      1.07741996    -0.22929869   -40.44600625    -0.00000000     0.00000000  0.17D-17  0.11D-16  6  3  2658.94   158.93

 Norm of t1 vector:      0.03268919      S-energy:     0.00000000      T1 diagnostic:  0.00817230
                                                                       D1 diagnostic:  0.01311251

 Adding energy correction from Wij-K(Fij), methodcc=6  factor= 1.0

  CCSD correlation energy              -0.229298685881
  MP2-F12 correction (uncoupled)       -0.003887252229
  C*T doubles correction               -0.000069398296
  f12b correction                       0.001101288381

 Total CPU time for triples:    661.81 sec

  Ecorr(MP2)                           -0.214697569429
  Ecorr(MP2-F12)                       -0.218682580369
  Scale factor for triples energy       1.018561043567


 RESULTS
 =======

  Reference energy                    -40.216666718386
  F12 singles correction               -0.000040844155

 F12 singles corrections added to reference energy

  New reference energy                -40.216707562541

  F12a singlet correction              -0.003785129320
  F12a triplet correction              -0.000171521205
  F12a total correction                -0.003956650525

 F12a corrections for ansatz F12/3C(FIX) added to CCSD energy

  CCSD-F12a singlet pair energy        -0.178096762450
  CCSD-F12a triplet pair energy        -0.055158573965
  CCSD-F12a correlation energy         -0.233255336406

  Triples (T) contribution (scaled)    -0.007109187658
  Total correlation energy             -0.240364524064

  CCSD-F12a total energy              -40.449962898947
  CCSD[T]-F12a energy                 -40.457307712784
  CCSD-T-F12a energy                  -40.457004239923
 !CCSD(T)-F12a total energy           -40.457072086605

 F12b corrections for ansatz F12/3C(FIX) added to CCSD(T)-F12a energy

  CCSD-F12b singlet pair energy        -0.177024656918
  CCSD-F12b triplet pair energy        -0.055129391117
  CCSD-F12b correlation energy         -0.232154048026

  Triples (T) contribution (scaled)    -0.007109187658
  Total correlation energy             -0.239263235683

  CCSD-F12b total energy              -40.448861610567
  CCSD[T]-F12b energy                 -40.456206424403
  CCSD-T-F12b energy                  -40.455902951542
 !CCSD(T)-F12b total energy           -40.455970798224

 Timing summary (sec):

 STEP                 CPU(USER)    SYS     CPU(TOT)    WALL
 Transformation        576.20     25.62    601.82    603.07
 CCSD iterations      2031.14    193.57   2224.71   2225.33
 Triples               661.81      5.61    667.42    667.50
 MP2-F12                51.79      2.35     54.14     54.18
 F12b energy           138.38     12.75    151.13    151.14

 Program statistics:

 Available memory in ccsd:              3999999866
 Min. memory needed in ccsd:              19260852
 Max. memory used in ccsd:                22423154
 Max. memory used in cckext:              14628952 (15 integral passes)



 **********************************************************************************************************************************
 DATASETS  * FILE   NREC   LENGTH (MB)   RECORD NAMES
              1      19     6330.34       500      610      700      900      950      970     1000      129      960     1100   
                                          VAR    BASINP    GEOM    SYMINP    ZMAT    AOBASIS   BASIS     P2S    ABASIS      S 
                                         1400     1410     1200     1210     1080     1600     1650     1700     1380   
                                           T        V       H0       H01     AOSYM     SMH    MOLCAS    OPER     JKOP   

              2       9       62.49       700     1000      520     2100     7360     7350      200     2101     2102   
                                         GEOM     BASIS   MCVARS     RHF    F12ABS    EF12    OPTIONS    RHF      RHF  

 PROGRAMS   *        TOTAL   CCSD(T)    HF-SCF       INT   CCSD(T)    HF-SCF       INT   CCSD(T)    HF-SCF       INT
 CPU TIMES  *     24308.74   3459.47   1551.87      0.47   3647.32   1427.91      0.49  10886.98   1613.58   1720.40
 REAL TIME  *     26426.99 SEC
 DISK USED  *        14.29 GB (local),      511.60 GB (total)
 SF USED    *        17.68 GB
 GA USED    *         4.87 MB       (max)       0.00 MB       (current)
 **********************************************************************************************************************************
 Molecular orbitals read from record     2102.2  Type=RHF/CANONICAL (state 1.1)
 Occupation numbers read from record     2102.2  Type=RHF/RHF (state 1.1)
 Orbital energies read from record       2102.2  Type=RHF/CANONICAL (state 1.1)
 Redundancy group numbers read from rec  2102.2  Type=RHF/RHF (state 1.1)

 CCSD(T)-F12/aug-cc-pV5Z energy=    -40.455970798224

     CCSD(T)-F12          HF-SCF     CCSD(T)-F12          HF-SCF     CCSD(T)-F12          HF-SCF
    -40.45597080    -40.21666672    -76.37354805    -76.06500705   -116.83007727   -116.28166001
 **********************************************************************************************************************************
 Molpro calculation terminated
