
 Primary working directories    : /scratch.ssd/kelum/job_380604.cerit-pbs.cerit-sc.cz/molpro.ieIyEyfK4X
 Secondary working directories  : /scratch.ssd/kelum/job_380604.cerit-pbs.cerit-sc.cz/molpro.ieIyEyfK4X
 Wavefunction directory         : /scratch.ssd/kelum/job_380604.cerit-pbs.cerit-sc.cz/
 Main file repository           : /scratch.ssd/kelum/job_380604.cerit-pbs.cerit-sc.cz/molpro.ieIyEyfK4X/

 id        : karlovklimes

 Nodes            nprocs
 elan3.cerit-sc.cz    4

 Using customized tuning parameters: mindgm=1; mindgv=20; mindgc=4; mindgr=1; noblas=0; minvec=7
 default implementation of scratch files=sf  


 Variables initialized (934), CPU time= 0.01 sec
                                                                                 !gdirect
 memory,4000,m
 gthresh,orbital=1d-10,energy=1d-10
 
 symmetry,nosym
 angstrom
 geometry={
 O6        -0.534600000000      4.167800000000      1.543100000000
 H11        -0.433700000000      3.518000000000      2.262500000000
 H12        -0.341300000000      3.668400000000      0.725200000000
 C1        -3.277200000000      1.482500000000      1.271900000000
 H41        -2.464000000000      0.899600000000      1.651000000000
 H42        -3.160800000000      2.501000000000      1.578500000000
 H43        -4.201800000000      1.099200000000      1.650100000000
 H44        -3.268500000000      1.421000000000      0.203700000000
 }
 
 nkerna=1
 nkernb=1
 
 gf=0
 sing=1
 thrdum=1d-4
 gridthr=1d-8
 
 basis={
 set,orbital
 default,av5z
 set,jkfit
 default,av5z/jkfit
 set,mp2fit
 default,av5z/mp2fit
 set,ri
 default,av5z/optri
 set,tddft
 default,av5z/mp2fit
 }
 
 proc set_monomer1
 dummy,4,5,6,7,8
 endproc
 
 proc set_monomer2
 dummy,1,2,3
 endproc
 
                                                                                 !12 energy
 {hf,accu=1.d-16}
 {ccsd(t)-f12,df_basis=mp2fit,df_basis_exch=jkfit,ri_basis=ri,scale_trip=1,THRAOF12=1d-10}
 
 set_monomer1
 {hf,accu=1.d-16}
 {ccsd(t)-f12,df_basis=mp2fit,df_basis_exch=jkfit,ri_basis=ri,scale_trip=1,THRAOF12=1d-10}
 
 set_monomer2
 {hf,accu=1.d-16}
 {ccsd(t)-f12,df_basis=mp2fit,df_basis_exch=jkfit,ri_basis=ri,scale_trip=1,THRAOF12=1d-10}
 
 Commands  initialized (763), CPU time= 0.01 sec, 617 directives.
 Default parameters read. Elapsed time= 0.20 sec

 Checking input...
 Passed
1


                                         ***  PROGRAM SYSTEM MOLPRO  ***
                                       Copyright, TTI GmbH Stuttgart, 2015
                                    Version 2019.2 linked Jun  8 2019 11:26:33


 **********************************************************************************************************************************
 LABEL *                                                                                 
  64 bit mpp version                                                                     DATE: 24-Mar-20          TIME: 09:23:57  
 **********************************************************************************************************************************

 SHA1:             8135a10abc80eafa5b3ae28ffc55be4890dc4c84
 **********************************************************************************************************************************

 THRESHOLDS:

 ZERO    =  1.00D-12  ONEINT  =  1.00D-12  TWOINT  =  1.00D-11  PREFAC  =  1.00D-14  XXXXXX  =  1.00D-09  EORDER  =  1.00D-04
 ENERGY  =  1.00D-10  ETEST   =  0.00D+00  EDENS   =  0.00D+00  THRDEDEF=  1.00D-06  GRADIENT=  1.00D-02  STEP    =  1.00D-03
 ORBITAL =  1.00D-10  CIVEC   =  1.00D-05  COEFF   =  1.00D-04  PRINTCI =  5.00D-02  PUNCHCI =  9.90D+01  OPTGRAD =  3.00D-04
 OPTENERG=  1.00D-06  OPTSTEP =  3.00D-04  THRGRAD =  1.00D-10  COMPRESS=  1.00D-11  VARMIN  =  1.00D-07  VARMAX  =  1.00D-03
 THRDOUB =  0.00D+00  THRDIV  =  1.00D-05  THRRED  =  1.00D-07  THRPSP  =  1.00D+00  THRDC   =  1.00D-10  THRCS   =  1.00D-10
 THRNRM  =  1.00D-08  THREQ   =  0.00D+00  THRDE   =  1.00D+00  THRREF  =  1.00D-05  SPARFAC =  1.00D+00  THRDLP  =  1.00D-07
 THRDIA  =  1.00D-10  THRDLS  =  1.00D-07  THRGPS  =  0.00D+00  THRKEX  =  0.00D+00  THRDIS  =  2.00D-01  THRVAR  =  1.00D-10
 THRLOC  =  1.00D-06  THRGAP  =  1.00D-06  THRLOCT = -1.00D+00  THRGAPT = -1.00D+00  THRORB  =  1.00D-06  THRMLTP =  0.00D+00
 THRCPQCI=  1.00D-10  KEXTA   =  0.00D+00  THRCOARS=  0.00D+00  SYMTOL  =  1.00D-06  GRADTOL =  1.00D-06  THROVL  =  1.00D-08
 THRORTH =  1.00D-08  GRID    =  1.00D-06  GRIDMAX =  1.00D-03  DTMAX   =  0.00D+00  THROCCDE=  1.00D-01  THROCCDE=  1.00D-01
 THRPRINT=  2.50D-01


 Variable memory set to 4000000000 words,  buffer space 

 ZSYMEL=NOSYM
 ZUNIT=ANG


Geometry recognized as XYZ

 SETTING NKERNA         =         1.00000000                                  
 SETTING NKERNB         =         1.00000000                                  
 SETTING GF             =     0.00000000D+00                                  
 SETTING SING           =         1.00000000                                  
 SETTING THRDUM         =     1.00000000D-04                                  
 SETTING GRIDTHR        =     1.00000000D-08                                  
 SETTING BASIS          =    AV5Z


 Recomputing integrals since basis changed


 Using spherical harmonics

 Library entry O      S aug-cc-pV5Z          selected for orbital group  1
 Library entry O      P aug-cc-pV5Z          selected for orbital group  1
 Library entry O      D aug-cc-pV5Z          selected for orbital group  1
 Library entry O      F aug-cc-pV5Z          selected for orbital group  1
 Library entry O      G aug-cc-pV5Z          selected for orbital group  1
 Library entry O      H aug-cc-pV5Z          selected for orbital group  1
 Library entry H      S aug-cc-pV5Z          selected for orbital group  2
 Library entry H      P aug-cc-pV5Z          selected for orbital group  2
 Library entry H      D aug-cc-pV5Z          selected for orbital group  2
 Library entry H      F aug-cc-pV5Z          selected for orbital group  2
 Library entry H      G aug-cc-pV5Z          selected for orbital group  2
 Library entry C      S aug-cc-pV5Z          selected for orbital group  3
 Library entry C      P aug-cc-pV5Z          selected for orbital group  3
 Library entry C      D aug-cc-pV5Z          selected for orbital group  3
 Library entry C      F aug-cc-pV5Z          selected for orbital group  3
 Library entry C      G aug-cc-pV5Z          selected for orbital group  3
 Library entry C      H aug-cc-pV5Z          selected for orbital group  3


 PROGRAM * SEWARD (Integral evaluation for generally contracted gaussian basis sets)     Author: Roland Lindh, 1990

 Geometry written to block  1 of record 700


 Point group  C1  



 ATOMIC COORDINATES

 NR  ATOM    CHARGE       X              Y              Z

   1  O6      8.00   -1.010247586    7.876000542    2.916036383
   2  H11     1.00   -0.819574220    6.648056506    4.275505357
   3  H12     1.00   -0.644963526    6.932271315    1.370429386
   4  C1      6.00   -6.193010455    2.801518980    2.403542658
   5  H41     1.00   -4.656285171    1.699997622    3.119937832
   6  H42     1.00   -5.973046335    4.726205038    2.982932688
   7  H43     1.00   -7.940251230    2.077186956    3.118237078
   8  H44     1.00   -6.176569838    2.685300823    0.384937212

 Bond lengths in Bohr (Angstrom)

 1-2  1.841835709  1-3  1.847419359  4-5  2.021904040  4-6  2.022002335  4-7  2.021953343
     ( 0.974657483)     ( 0.977612224)     ( 1.069945541)     ( 1.069997556)     ( 1.069971630)

 4-8  2.022015060
     ( 1.070004290)

 Bond angles

  2-1-3  104.86126985   5-4-6  109.53398059   5-4-7  109.65604535   5-4-8  108.43490854

  6-4-7  109.49436728   6-4-8  109.86987750   7-4-8  109.83468330

 NUCLEAR CHARGE:                   20
 NUMBER OF PRIMITIVE AOS:        1046
 NUMBER OF SYMMETRY AOS:          786
 NUMBER OF CONTRACTIONS:          734   (  734A   )
 NUMBER OF CORE ORBITALS:           2   (    2A   )
 NUMBER OF VALENCE ORBITALS:       14   (   14A   )


 NUCLEAR REPULSION ENERGY   36.57703656


 Basis set:  JKFIT                   
 Basis size:  1104
 Attributes:
 Sphericals:   T
 Basis set:  MP2FIT                  
 Basis size:  1246
 Attributes:
 Sphericals:   T
 Basis set:  RI                      
 Basis size:   730
 Attributes:
 Sphericals:   T
 Basis set:  TDDFT                   
 Basis size:  1246
 Attributes:
 Sphericals:   T

 **********************************************************************************************************************************


 Eigenvalues of metric

         1 0.183E-05 0.195E-05 0.337E-05 0.392E-05 0.536E-05 0.718E-05 0.824E-05 0.891E-05


 Contracted 2-electron integrals neglected if value below      1.0D-14
 AO integral compression algorithm  1   Integral accuracy      1.0D-14

     155681.554 MB (compressed) written to integral file ( 49.3%)

     Node minimum: 37773.640 MB, node maximum: 41248.621 MB


 NUMBER OF SORTED TWO-ELECTRON INTEGRALS: 9095363064.     BUFFER LENGTH:  32768
 NUMBER OF SEGMENTS: 190  SEGMENT LENGTH:   47999780      RECORD LENGTH: 131072

 Memory used in sort:      48.16 MW

 SORT1 READ 39471791889. AND WROTE  7077948163. INTEGRALS IN  81098 RECORDS. CPU TIME:   938.97 SEC, REAL TIME:  1070.93 SEC
 SORT2 READ 28318392016. AND WROTE 36381317385. INTEGRALS IN 588740 RECORDS. CPU TIME:   124.19 SEC, REAL TIME:   760.62 SEC

 Node minimum:  9095228192.  Node maximum:  9095430501. integrals

 OPERATOR DM      FOR CENTER  0  COORDINATES:    0.000000    0.000000    0.000000


 **********************************************************************************************************************************
 DATASETS  * FILE   NREC   LENGTH (MB)   RECORD NAMES
              1      18       49.80       500      610      700      900      950      970     1000      129      960     1100   
                                          VAR    BASINP    GEOM    SYMINP    ZMAT    AOBASIS   BASIS     P2S    ABASIS      S 
                                         1400     1410     1200     1210     1080     1600     1650     1700   
                                           T        V       H0       H01     AOSYM     SMH    MOLCAS    OPER   

 PROGRAMS   *        TOTAL       INT
 CPU TIMES  *      1733.33   1733.11
 REAL TIME  *      2543.65 SEC
 DISK USED  *        50.44 MB (local),      495.35 GB (total)
 GA USED    *         0.00 MB       (max)       0.00 MB       (current)
 **********************************************************************************************************************************


 PROGRAM * RHF-SCF (CLOSED SHELL)       Authors: W. Meyer, H.-J. Werner


 NUMBER OF ELECTRONS:      10+   10-    SPACE SYMMETRY=1    SPIN SYMMETRY: Singlet 
 CONVERGENCE THRESHOLDS:    1.00E-08 (Density)    1.00E-11 (Energy)
 MAX. NUMBER OF ITERATIONS:       60
 INTERPOLATION TYPE:            DIIS
 INTERPOLATION STEPS:              2 (START)      1 (STEP)
 LEVEL SHIFTS:                  0.00 (CLOSED)  0.00 (OPEN) 



 Orbital guess generated from atomic densities. Full valence occupancy:   16

 Molecular orbital dump at record        2100.2

 Initial occupancy:  10

 ITERATION    DDIFF          GRAD             ENERGY        2-EL.EN.            DIPOLE MOMENTS         DIIS   ORB.
    1      0.000D+00      0.000D+00      -116.22375802    158.578950    0.29083   -1.11242   -0.09785    0    start
    2      0.000D+00      0.291D-02      -116.26771797    153.754504    0.13484   -0.62369   -0.05737    1    diag
    3      0.163D-02      0.170D-02      -116.28115016    155.770346    0.17586   -0.74530   -0.06685    2    diag
    4      0.554D-03      0.254D-03      -116.28180635    155.658232    0.17408   -0.73359   -0.06525    3    diag
    5      0.125D-03      0.742D-04      -116.28187514    155.652842    0.17341   -0.73272   -0.06496    4    diag
    6      0.517D-04      0.181D-04      -116.28187901    155.658521    0.17309   -0.73183   -0.06478    5    diag
    7      0.185D-04      0.366D-05      -116.28187925    155.656783    0.17307   -0.73181   -0.06476    6    diag
    8      0.561D-05      0.929D-06      -116.28187926    155.656960    0.17304   -0.73175   -0.06474    7    diag
    9      0.130D-05      0.217D-06      -116.28187926    155.656934    0.17303   -0.73173   -0.06474    8    diag
   10      0.290D-06      0.259D-07      -116.28187926    155.656936    0.17303   -0.73173   -0.06474    9    orth
   11      0.608D-07      0.604D-08      -116.28187926    155.656937    0.17303   -0.73173   -0.06474    9    diag
   12      0.474D-08      0.159D-08      -116.28187926    155.656937    0.17303   -0.73173   -0.06474    9    diag
   13      0.228D-08      0.417D-09      -116.28187926    155.656937    0.17303   -0.73173   -0.06474    0    orth

 Final occupancy:  10

 !RHF STATE  1.1 Energy              -116.281879264964
 Nuclear energy                        36.57703656
 One-electron energy                 -230.68738441
 Two-electron energy                   77.82846859
 Virial quotient                       -1.00058313
 !RHF STATE  1.1 Dipole moment          0.17303059    -0.73172663    -0.06474192
 Dipole moment /Debye                   0.43977110    -1.85974176    -0.16454677

 Orbital energies:

         1.1          2.1          3.1          4.1          5.1          6.1          7.1          8.1          9.1         10.1
    -20.566514   -11.198290    -1.342491    -0.953337    -0.707819    -0.580560    -0.554665    -0.552685    -0.551108    -0.507755

        11.1         12.1
      0.019530     0.031853


 HOMO     10.1    -0.507755 =     -13.8167eV
 LUMO     11.1     0.019530 =       0.5314eV
 LUMO-HOMO         0.527286 =      14.3482eV


 **********************************************************************************************************************************
 DATASETS  * FILE   NREC   LENGTH (MB)   RECORD NAMES
              1      18       49.80       500      610      700      900      950      970     1000      129      960     1100   
                                          VAR    BASINP    GEOM    SYMINP    ZMAT    AOBASIS   BASIS     P2S    ABASIS      S 
                                         1400     1410     1200     1210     1080     1600     1650     1700   
                                           T        V       H0       H01     AOSYM     SMH    MOLCAS    OPER   

              2       4       13.79       700     1000      520     2100   
                                         GEOM     BASIS   MCVARS     RHF  

 PROGRAMS   *        TOTAL    HF-SCF       INT
 CPU TIMES  *      3552.63   1819.30   1733.11
 REAL TIME  *      4536.56 SEC
 DISK USED  *       102.61 MB (local),      495.56 GB (total)
 SF USED    *         2.16 MB
 GA USED    *         0.00 MB       (max)       0.00 MB       (current)
 **********************************************************************************************************************************

 Basis set:  JKFIT                   
 Basis size:  1104
 Attributes:
 Sphericals:   T
 Basis set:  MP2FIT                  
 Basis size:  1246
 Attributes:
 Sphericals:   T
 Basis set:  RI                      
 Basis size:   730
 Attributes:
 Sphericals:   T
 Basis set:  TDDFT                   
 Basis size:  1246
 Attributes:
 Sphericals:   T

 PROGRAM * CCSD (Closed-shell coupled cluster)     Authors: C. Hampel, H.-J. Werner, 1991, M. Deegan, P.J. Knowles, 1992

                                  CCSD-F12 implementation by  H.-J. Werner, 2007

                   Density fitting integral evaluation by F.R. Manby, 2003,2007, G. Knizia, 2010



 Convergence thresholds:  THRVAR = 1.00D-08  THRDEN = 1.00D-10

 CCSD(T)     terms to be evaluated (factor= 1.000)


 Number of core orbitals:           2 (   2 )
 Number of closed-shell orbitals:   8 (   8 )
 Number of external orbitals:     724 ( 724 )

 Molecular orbitals read from record     2100.2  Type=RHF/CANONICAL (state 1.1)

 MP2-F12 correlation treatment (H.-J. Werner, 2006)
 ==================================================

 Using MP2-F12 with ansatz 3C(FIX)

 Using projected zeroth-order Hamiltonian (+Z)

 FOCKRIB=T FOCKRIC=T FOCKRIP=T CABSP=T CABSA=T CABSK=T CABSF=T GBC=F EBC=F DMAT=T NOFIK=T NOPAO=1 SOLVE=-1  USEPAO=0
 EXCH_A= T EXCH_B= F EXCH_C= F EXCH_P= F

 Geminal basis:    OPTFULL  GEM_TYPE=SLATER  BETA=1.0  NGEM=6

 Optimizing Gaussian exponents for each gem_beta

 Geminal optimization for beta= 1.0000
 Weight function:   m=0, omega= 1.4646

 Augmented Hessian optimization of geminal fit. Trust ratio= 0.40000
 Convergence reached after   2 iterations. Final gradient= 8.53D-16, Step= 4.26D-06, Delta= 1.28D-09

 Alpha:                 0.19532     0.81920     2.85917     9.50073    35.69989   197.79328
 Coeff:                 0.27070     0.30552     0.18297     0.10986     0.06810     0.04224


 All pairs explicitly correlated. Number of r12-pairs:           36

 Excluding core orbitals from MO domains

 AO(A)-basis ORBITAL           loaded. Number of functions:     734
 RI(R)-basis RI                loaded. Number of functions:     730
 DF-basis JKFIT                loaded. Number of functions:    1104

 Screening thresholds:   THRAO=  1.00D-10  THRMO=  1.00D-09  THRPROD=  1.00D-09
                         THRSW=  1.00D-05  THROV=  1.00D-12  THRAOF12= 1.00D-10

 CPU time for Fock operators                      8.77 sec

 Construction of ABS:
 Smallest eigenvalue of S          2.26E-04  (threshold= 1.00E-08)
 Ratio eigmin/eigmax               3.94E-05  (threshold= 1.00E-09)
 Smallest eigenvalue of S kept     2.26E-04  (threshold= 2.26E-04, 0 functions deleted, 730 kept)

 Construction of CABS:
 Smallest eigenvalue of S          9.93E-09  (threshold= 1.00E-08)
 Ratio eigmin/eigmax               9.93E-09  (threshold= 1.00E-09)
 Smallest eigenvalue of S kept     8.22E-08  (threshold= 8.22E-08, 1 functions deleted, 729 kept)

 CPU time for CABS singles                        1.02 sec

 CABS-singles contribution of  -0.00007960 patched into reference energy.
 New reference energy        -116.28195887

 AO(A)-basis ORBITAL           loaded. Number of functions:     734
 RI(R)-basis RI                loaded. Number of functions:     730
 DF-basis MP2FIT               loaded. Number of functions:    1246

 Screening thresholds:   THRAO=  1.00D-10  THRMO=  1.00D-09  THRPROD=  1.00D-09
                         THRSW=  1.00D-05  THROV=  1.00D-12  THRAOF12= 1.00D-10

 CPU time for 3-index integral evaluation        26.16 sec
 CPU time for first  half transformation          3.06 sec ( 9607.2 MFLOP/sec)
 CPU time for second half transformation          0.10 sec ( 2350.0 MFLOP/sec)
 CPU time for sorting                             0.33 sec
 CPU time for fitting                             0.35 sec (26508.1 MFLOP/sec)
 CPU time for tilde quantities                    0.47 sec (29306.2 MFLOP/sec)
 CPU time for assembly                            4.18 sec (29182.8 MFLOP/sec)
 CPU time for tranop_f12                          5.15 sec (33328.0 MFLOP/sec)
 CPU time for f12 integrals (total)              46.94 sec, Elapsed time:     50.83 sec
 F12-matrices built in  4 passes.
 F12-matrices built in  4 passes.
 F12-matrices built in  4 passes.
 F12-matrices built in  4 passes.
 FC-matrix built in  4 passes.
 CPU time for f12 matrices (total)                4.01 sec, Elapsed time:      4.20 sec

 Diagonal F12 approximation with fixed coefficients:  TSING= 0.500,  TTRIP= 0.250 (scaled by -1/beta)

 DF-MP2-F12 energy corrections:
 ==============================
 Approx.                                    Singlet             Triplet             Total
 DF-MP2-F12/3*C(DX,FIX)                -0.011199045984     -0.000787259233     -0.011986305216
 DF-MP2-F12/3*C(FIX)                   -0.010389537634     -0.000516394999     -0.010905932633
 DF-MP2-F12/3C(FIX)                    -0.010501249765     -0.000532039913     -0.011033289677

 DF-MP2-F12 correlation energies:
 ================================
 Approx.                                    Singlet             Triplet             Ecorr            Total Energy
 DF-MP2                                -0.350126618774     -0.159628287679     -0.509754906454   -116.791713775435
 DF-MP2-F12/3*C(DX,FIX)                -0.361325664758     -0.160415546912     -0.521741211670   -116.803700080651
 DF-MP2-F12/3*C(FIX)                   -0.360516156408     -0.160144682679     -0.520660839087   -116.802619708068
 DF-MP2-F12/3C(FIX)                    -0.360627868539     -0.160160327592     -0.520788196131   -116.802747065112

 SCS-DF-MP2 energies (F_SING= 1.20000  F_TRIP= 0.62222  F_PARALLEL= 0.33333):
 ============================================================================
 SCS-DF-MP2                            -0.519476210418   -116.801435079400
 SCS-DF-MP2-F12/3*C(DX,FIX)            -0.533404915788   -116.815363784769
 SCS-DF-MP2-F12/3*C(FIX)               -0.532264968023   -116.814223837004
 SCS-DF-MP2-F12/3C(FIX)                -0.532408757193   -116.814367626174
 Symmetry transformation completed.

 Number of N-1 electron functions:               8
 Number of N-2 electron functions:              36
 Number of singly external CSFs:              5792
 Number of doubly external CSFs:          16776528
 Total number of CSFs:                    16782321

 Pair and operator lists are different

 Length of J-op  integral file:               1.47 GB
 Length of K-op  integral file:               2.18 GB
 Length of 3-ext integral record:             0.00 MB

 For full I/O caching in triples, increase memory by 34.16 Mwords to 4034.21 Mwords.

 Integral transformation finished. Total CPU:1046.56 sec, npass=  1  Memory used:1826.21 MW

 Reference energy:                   -116.28195887

 Adding F12 terms to K(Cij), methodcc=6,  factor= 1.0

 ITER.      SQ.NORM     CORR.ENERGY   TOTAL ENERGY   ENERGY CHANGE        DEN1      VAR(S)    VAR(P)  DIIS     TIME  TIME/IT
   1      1.13414072    -0.52176958  -116.80372845    -0.01200187    -0.00010451  0.14D-02  0.20D-02  1  1  1377.94   279.68
   2      1.14236569    -0.52281798  -116.80477685    -0.00104840    -0.01018603  0.33D-04  0.25D-03  2  2  1656.36   286.78
   3      1.14559211    -0.52298182  -116.80494069    -0.00016383    -0.00234419  0.11D-04  0.14D-04  3  3  1917.35   283.72
   4      1.14654705    -0.52298660  -116.80494547    -0.00000478    -0.00052856  0.67D-06  0.13D-05  4  4  2182.75   283.29
   5      1.14671528    -0.52298836  -116.80494723    -0.00000176    -0.00004237  0.20D-06  0.93D-07  5  5  2455.87   284.37
   6      1.14676081    -0.52298564  -116.80494451     0.00000272    -0.00000797  0.22D-07  0.81D-08  6  6  2740.17   287.03
   7      1.14677131    -0.52298444  -116.80494331     0.00000120    -0.00000258  0.23D-08  0.11D-08  6  2  3012.34   287.22
   8      1.14677405    -0.52298419  -116.80494306     0.00000025    -0.00000041  0.34D-09  0.11D-09  6  1  3271.43   285.86
   9      1.14677489    -0.52298416  -116.80494303     0.00000003     0.00000000  0.33D-10  0.17D-10  6  3  3537.14   285.41
  10      1.14677507    -0.52298416  -116.80494303     0.00000000     0.00000007  0.33D-11  0.23D-11  6  4  3817.35   286.45
  11      1.14677504    -0.52298417  -116.80494304    -0.00000001     0.00000008  0.51D-12  0.29D-12  6  5  4104.33   287.93
  12      1.14677502    -0.52298417  -116.80494304    -0.00000000     0.00000002  0.88D-13  0.38D-13  6  6  4389.76   288.98
  13      1.14677501    -0.52298417  -116.80494304    -0.00000000     0.00000001  0.18D-13  0.50D-14  6  2  4676.92   290.16
  14      1.14677500    -0.52298417  -116.80494304    -0.00000000     0.00000000  0.33D-14  0.11D-14  6  1  4969.15   291.55
  15      1.14677500    -0.52298417  -116.80494304    -0.00000000    -0.00000000  0.47D-15  0.21D-15  6  3  5257.96   292.54
  16      1.14677500    -0.52298417  -116.80494304    -0.00000000    -0.00000000  0.94D-16  0.32D-16  6  4  5547.66   293.47
  17      1.14677500    -0.52298417  -116.80494304     0.00000000    -0.00000000  0.28D-16  0.77D-17  6  5  5838.88   294.35

 Norm of t1 vector:      0.04966138      S-energy:     0.00000000      T1 diagnostic:  0.00877897
                                                                       D1 diagnostic:  0.01933634

 Adding energy correction from Wij-K(Fij), methodcc=6  factor= 1.0

  CCSD correlation energy              -0.522984169272
  MP2-F12 correction (uncoupled)       -0.010853898213
  C*T doubles correction               -0.000160777472
  f12b correction                       0.002683909394

   CPU time for triples:   2204.48 sec for i =  1 -  6 /  8 (~  44.6 % done)
   CPU time for triples:   2201.78 sec for i =  7 -  8 /  8 (  100.0 % done)

 Total CPU time for triples:   4448.39 sec

  Ecorr(MP2)                           -0.509767715612
  Ecorr(MP2-F12)                       -0.520801005290
  Scale factor for triples energy       1.021643759186


 RESULTS
 =======

  Reference energy                   -116.281879264960
  F12 singles correction               -0.000079604022

 F12 singles corrections added to reference energy

  New reference energy               -116.281958868981

  F12a singlet correction              -0.010442270090
  F12a triplet correction              -0.000572405595
  F12a total correction                -0.011014675685

 F12a corrections for ansatz F12/3C(FIX) added to CCSD energy

  CCSD-F12a singlet pair energy        -0.387436517044
  CCSD-F12a triplet pair energy        -0.146562327942
  CCSD-F12a correlation energy         -0.533998844957

  Triples (T) contribution (scaled)    -0.017275977630
  Total correlation energy             -0.551274822586

  CCSD-F12a total energy             -116.815957713938
  CCSD[T]-F12a energy                -116.833789585975
  CCSD-T-F12a energy                 -116.833024898567
 !CCSD(T)-F12a total energy          -116.833233691568

 F12b corrections for ansatz F12/3C(FIX) added to CCSD(T)-F12a energy

  CCSD-F12b singlet pair energy        -0.384845420825
  CCSD-F12b triplet pair energy        -0.146469514767
  CCSD-F12b correlation energy         -0.531314935563

  Triples (T) contribution (scaled)    -0.017275977630
  Total correlation energy             -0.548590913192

  CCSD-F12b total energy             -116.813273804544
  CCSD[T]-F12b energy                -116.831105676581
  CCSD-T-F12b energy                 -116.830340989173
 !CCSD(T)-F12b total energy          -116.830549782174

 Timing summary (sec):

 STEP                 CPU(USER)    SYS     CPU(TOT)    WALL
 Transformation       1048.10     44.99   1093.09   1093.76
 CCSD iterations      4726.79    273.03   4999.82   5004.52
 Triples              4448.39     28.65   4477.04   4506.20
 MP2-F12                64.22      4.77     68.99     69.42
 F12b energy           265.36     13.33    278.69    279.59

 Program statistics:

 Available memory in ccsd:              3999999554
 Min. memory needed in ccsd:              48689265
 Max. memory used in ccsd:                63255345
 Max. memory used in cckext:              42753482 (18 integral passes)



 **********************************************************************************************************************************
 DATASETS  * FILE   NREC   LENGTH (MB)   RECORD NAMES
              1      19    12452.16       500      610      700      900      950      970     1000      129      960     1100   
                                          VAR    BASINP    GEOM    SYMINP    ZMAT    AOBASIS   BASIS     P2S    ABASIS      S 
                                         1400     1410     1200     1210     1080     1600     1650     1700     1380   
                                           T        V       H0       H01     AOSYM     SMH    MOLCAS    OPER     JKOP   

              2       6       24.60       700     1000      520     2100     7360     7350   
                                         GEOM     BASIS   MCVARS     RHF    F12ABS    EF12   

 PROGRAMS   *        TOTAL   CCSD(T)    HF-SCF       INT
 CPU TIMES  *     14105.65  10553.02   1819.30   1733.11
 REAL TIME  *     15492.64 SEC
 DISK USED  *        14.29 GB (local),      546.87 GB (total)
 SF USED    *        17.68 GB
 GA USED    *         4.87 MB       (max)       0.00 MB       (current)
 **********************************************************************************************************************************

 Running procedure: SET_MONOMER1

 Dummy atoms: C1  H41  H42  H43  H44


 Recomputing one-electron integrals since nuclear charges changed


 PROGRAM * SEWARD (Integral evaluation for generally contracted gaussian basis sets)     Author: Roland Lindh, 1990

 Geometry written to block  1 of record 700


 Point group  C1  



 ATOMIC COORDINATES

 NR  ATOM    CHARGE       X              Y              Z

   1  O6      8.00   -1.010247586    7.876000542    2.916036383
   2  H11     1.00   -0.819574220    6.648056506    4.275505357
   3  H12     1.00   -0.644963526    6.932271315    1.370429386
   4  C1      0.00   -6.193010455    2.801518980    2.403542658
   5  H41     0.00   -4.656285171    1.699997622    3.119937832
   6  H42     0.00   -5.973046335    4.726205038    2.982932688
   7  H43     0.00   -7.940251230    2.077186956    3.118237078
   8  H44     0.00   -6.176569838    2.685300823    0.384937212

 Bond lengths in Bohr (Angstrom)

 1-2  1.841835709  1-3  1.847419359  4-5  2.021904040  4-6  2.022002335  4-7  2.021953343
     ( 0.974657483)     ( 0.977612224)     ( 1.069945541)     ( 1.069997556)     ( 1.069971630)

 4-8  2.022015060
     ( 1.070004290)

 Bond angles

  2-1-3  104.86126985   5-4-6  109.53398059   5-4-7  109.65604535   5-4-8  108.43490854

  6-4-7  109.49436728   6-4-8  109.86987750   7-4-8  109.83468330

 NUCLEAR CHARGE:                   10
 NUMBER OF PRIMITIVE AOS:        1046
 NUMBER OF SYMMETRY AOS:          786
 NUMBER OF CONTRACTIONS:          734   (  734A   )
 NUMBER OF CORE ORBITALS:           1   (    1A   )
 NUMBER OF VALENCE ORBITALS:        6   (    6A   )

 MOLECULE CHANGED: INITIALIZING OCCUPATION AND DUMP RECORDS


 NUCLEAR REPULSION ENERGY    9.01583577

 Basis set:  JKFIT                   
 Basis size:  1104
 Attributes:
 Sphericals:   T
 Basis set:  MP2FIT                  
 Basis size:  1246
 Attributes:
 Sphericals:   T
 Basis set:  RI                      
 Basis size:   730
 Attributes:
 Sphericals:   T
 Basis set:  TDDFT                   
 Basis size:  1246
 Attributes:
 Sphericals:   T

 Eigenvalues of metric

         1 0.183E-05 0.195E-05 0.337E-05 0.392E-05 0.536E-05 0.718E-05 0.824E-05 0.891E-05


 Contracted 2-electron integrals neglected if value below      1.0D-14

 OPERATOR DM      FOR CENTER  0  COORDINATES:    0.000000    0.000000    0.000000


 **********************************************************************************************************************************
 DATASETS  * FILE   NREC   LENGTH (MB)   RECORD NAMES
              1      18       49.80       500      610      700      900      950      970     1000      129      960     1100   
                                          VAR    BASINP    GEOM    SYMINP    ZMAT    AOBASIS   BASIS     P2S    ABASIS      S 
                                         1400     1410     1200     1210     1080     1600     1650     1700   
                                           T        V       H0       H01     AOSYM     SMH    MOLCAS    OPER   

              2       7       24.63       700     1000      520     2100     7360     7350      200   
                                         GEOM     BASIS   MCVARS     RHF    F12ABS    EF12    OPTIONS    

 PROGRAMS   *        TOTAL       INT   CCSD(T)    HF-SCF       INT
 CPU TIMES  *     14106.14      0.47  10553.02   1819.30   1733.11
 REAL TIME  *     15495.25 SEC
 DISK USED  *        14.29 GB (local),      546.87 GB (total)
 SF USED    *        17.68 GB
 GA USED    *         4.87 MB       (max)       0.00 MB       (current)
 **********************************************************************************************************************************


 PROGRAM * RHF-SCF (CLOSED SHELL)       Authors: W. Meyer, H.-J. Werner


 NUMBER OF ELECTRONS:       5+    5-    SPACE SYMMETRY=1    SPIN SYMMETRY: Singlet 
 CONVERGENCE THRESHOLDS:    1.00E-08 (Density)    1.00E-11 (Energy)
 MAX. NUMBER OF ITERATIONS:       60
 INTERPOLATION TYPE:            DIIS
 INTERPOLATION STEPS:              2 (START)      1 (STEP)
 LEVEL SHIFTS:                  0.00 (CLOSED)  0.00 (OPEN) 



 Orbital guess generated from atomic densities. Full valence occupancy:    7

 Molecular orbital dump at record        2101.2

 Initial occupancy:   5

 ITERATION    DDIFF          GRAD             ENERGY        2-EL.EN.            DIPOLE MOMENTS         DIIS   ORB.
    1      0.000D+00      0.000D+00       -76.02667856     77.438678    0.28481   -1.11218   -0.09631    0    start
    2      0.000D+00      0.360D-02       -76.05353569     73.787431    0.16541   -0.64628   -0.05504    1    diag
    3      0.131D-02      0.229D-02       -76.06509525     75.409357    0.19522   -0.76268   -0.06516    2    diag
    4      0.494D-03      0.215D-03       -76.06528913     75.317805    0.19404   -0.75810   -0.06458    3    diag
    5      0.638D-04      0.600D-04       -76.06530999     75.332387    0.19360   -0.75644   -0.06436    4    diag
    6      0.205D-04      0.120D-04       -76.06531134     75.331327    0.19351   -0.75606   -0.06431    5    diag
    7      0.538D-05      0.244D-05       -76.06531141     75.331471    0.19348   -0.75595   -0.06429    6    diag
    8      0.150D-05      0.461D-06       -76.06531141     75.331459    0.19347   -0.75591   -0.06428    7    diag
    9      0.279D-06      0.621D-07       -76.06531141     75.331450    0.19346   -0.75590   -0.06428    8    diag
   10      0.347D-07      0.135D-07       -76.06531141     75.331453    0.19346   -0.75590   -0.06428    9    orth
   11      0.851D-08      0.239D-08       -76.06531141     75.331452    0.19346   -0.75590   -0.06428    0    orth

 Final occupancy:   5

 !RHF STATE  1.1 Energy               -76.065311409307
 Nuclear energy                         9.01583577
 One-electron energy                 -122.74687331
 Two-electron energy                   37.66572613
 Virial quotient                       -1.00182928
 !RHF STATE  1.1 Dipole moment          0.19346436    -0.75590137    -0.06428435
 Dipole moment /Debye                   0.49170514    -1.92118380    -0.16338382

 Orbital energies:

         1.1          2.1          3.1          4.1          5.1          6.1          7.1
    -20.567129    -1.342835    -0.708181    -0.580675    -0.508891     0.014909     0.030242


 HOMO      5.1    -0.508891 =     -13.8476eV
 LUMO      6.1     0.014909 =       0.4057eV
 LUMO-HOMO         0.523800 =      14.2533eV


 **********************************************************************************************************************************
 DATASETS  * FILE   NREC   LENGTH (MB)   RECORD NAMES
              1      18       49.80       500      610      700      900      950      970     1000      129      960     1100   
                                          VAR    BASINP    GEOM    SYMINP    ZMAT    AOBASIS   BASIS     P2S    ABASIS      S 
                                         1400     1410     1200     1210     1080     1600     1650     1700   
                                           T        V       H0       H01     AOSYM     SMH    MOLCAS    OPER   

              2       8       38.40       700     1000      520     2100     7360     7350      200     2101   
                                         GEOM     BASIS   MCVARS     RHF    F12ABS    EF12    OPTIONS    RHF  

 PROGRAMS   *        TOTAL    HF-SCF       INT   CCSD(T)    HF-SCF       INT
 CPU TIMES  *     15629.33   1523.19      0.47  10553.02   1819.30   1733.11
 REAL TIME  *     17187.97 SEC
 DISK USED  *        14.29 GB (local),      546.87 GB (total)
 SF USED    *        17.68 GB
 GA USED    *         4.87 MB       (max)       0.00 MB       (current)
 **********************************************************************************************************************************

 Basis set:  JKFIT                   
 Basis size:  1104
 Attributes:
 Sphericals:   T
 Basis set:  MP2FIT                  
 Basis size:  1246
 Attributes:
 Sphericals:   T
 Basis set:  RI                      
 Basis size:   730
 Attributes:
 Sphericals:   T
 Basis set:  TDDFT                   
 Basis size:  1246
 Attributes:
 Sphericals:   T

 PROGRAM * CCSD (Closed-shell coupled cluster)     Authors: C. Hampel, H.-J. Werner, 1991, M. Deegan, P.J. Knowles, 1992

                                  CCSD-F12 implementation by  H.-J. Werner, 2007

                   Density fitting integral evaluation by F.R. Manby, 2003,2007, G. Knizia, 2010



 Convergence thresholds:  THRVAR = 1.00D-08  THRDEN = 1.00D-10

 CCSD(T)     terms to be evaluated (factor= 1.000)


 Number of core orbitals:           1 (   1 )
 Number of closed-shell orbitals:   4 (   4 )
 Number of external orbitals:     729 ( 729 )

 Molecular orbitals read from record     2101.2  Type=RHF/CANONICAL (state 1.1)

 MP2-F12 correlation treatment (H.-J. Werner, 2006)
 ==================================================

 Using MP2-F12 with ansatz 3C(FIX)

 Using projected zeroth-order Hamiltonian (+Z)

 FOCKRIB=T FOCKRIC=T FOCKRIP=T CABSP=T CABSA=T CABSK=T CABSF=T GBC=F EBC=F DMAT=T NOFIK=T NOPAO=1 SOLVE=-1  USEPAO=0
 EXCH_A= T EXCH_B= F EXCH_C= F EXCH_P= F

 Geminal basis:    OPTFULL  GEM_TYPE=SLATER  BETA=1.0  NGEM=6

 Optimizing Gaussian exponents for each gem_beta

 Geminal optimization for beta= 1.0000
 Weight function:   m=0, omega= 1.4646

 Augmented Hessian optimization of geminal fit. Trust ratio= 0.40000
 Convergence reached after   2 iterations. Final gradient= 8.53D-16, Step= 4.26D-06, Delta= 1.28D-09

 Alpha:                 0.19532     0.81920     2.85917     9.50073    35.69989   197.79328
 Coeff:                 0.27070     0.30552     0.18297     0.10986     0.06810     0.04224


 All pairs explicitly correlated. Number of r12-pairs:           10

 Excluding core orbitals from MO domains

 AO(A)-basis ORBITAL           loaded. Number of functions:     734
 RI(R)-basis RI                loaded. Number of functions:     730
 DF-basis JKFIT                loaded. Number of functions:    1104

 Screening thresholds:   THRAO=  1.00D-10  THRMO=  1.00D-09  THRPROD=  1.00D-09
                         THRSW=  1.00D-05  THROV=  1.00D-12  THRAOF12= 1.00D-10

 CPU time for Fock operators                      9.38 sec

 Construction of ABS:
 Smallest eigenvalue of S          2.26E-04  (threshold= 1.00E-08)
 Ratio eigmin/eigmax               3.94E-05  (threshold= 1.00E-09)
 Smallest eigenvalue of S kept     2.26E-04  (threshold= 2.26E-04, 0 functions deleted, 730 kept)

 Construction of CABS:
 Smallest eigenvalue of S          9.93E-09  (threshold= 1.00E-08)
 Ratio eigmin/eigmax               9.93E-09  (threshold= 1.00E-09)
 Smallest eigenvalue of S kept     8.22E-08  (threshold= 8.22E-08, 1 functions deleted, 729 kept)

 CPU time for CABS singles                        1.20 sec

 CABS-singles contribution of  -0.00003881 patched into reference energy.
 New reference energy         -76.06535022

 AO(A)-basis ORBITAL           loaded. Number of functions:     734
 RI(R)-basis RI                loaded. Number of functions:     730
 DF-basis MP2FIT               loaded. Number of functions:    1246

 Screening thresholds:   THRAO=  1.00D-10  THRMO=  1.00D-09  THRPROD=  1.00D-09
                         THRSW=  1.00D-05  THROV=  1.00D-12  THRAOF12= 1.00D-10

 CPU time for 3-index integral evaluation        29.57 sec
 CPU time for first  half transformation          2.42 sec ( 6100.7 MFLOP/sec)
 CPU time for second half transformation          0.03 sec ( 2069.9 MFLOP/sec)
 CPU time for sorting                             0.15 sec
 CPU time for fitting                             0.37 sec (18495.9 MFLOP/sec)
 CPU time for tilde quantities                    0.54 sec (12644.4 MFLOP/sec)
 CPU time for assembly                            1.45 sec (23999.3 MFLOP/sec)
 CPU time for tranop_f12                          1.73 sec (25105.9 MFLOP/sec)
 CPU time for f12 integrals (total)              39.07 sec, Elapsed time:     41.18 sec
 F12-matrices built in  4 passes.
 F12-matrices built in  4 passes.
 F12-matrices built in  4 passes.
 F12-matrices built in  4 passes.
 FC-matrix built in  4 passes.
 CPU time for f12 matrices (total)                1.37 sec, Elapsed time:      1.41 sec

 Diagonal F12 approximation with fixed coefficients:  TSING= 0.500,  TTRIP= 0.250 (scaled by -1/beta)

 DF-MP2-F12 energy corrections:
 ==============================
 Approx.                                    Singlet             Triplet             Total
 DF-MP2-F12/3*C(DX,FIX)                -0.007256395166     -0.000572170781     -0.007828565947
 DF-MP2-F12/3*C(FIX)                   -0.006609995381     -0.000353087528     -0.006963082909
 DF-MP2-F12/3C(FIX)                    -0.006674333645     -0.000365331492     -0.007039665136

 DF-MP2-F12 correlation energies:
 ================================
 Approx.                                    Singlet             Triplet             Ecorr            Total Energy
 DF-MP2                                -0.192094086511     -0.102235952066     -0.294330038577    -76.359680260328
 DF-MP2-F12/3*C(DX,FIX)                -0.199350481677     -0.102808122847     -0.302158604524    -76.367508826275
 DF-MP2-F12/3*C(FIX)                   -0.198704081892     -0.102589039594     -0.301293121486    -76.366643343237
 DF-MP2-F12/3C(FIX)                    -0.198768420156     -0.102601283558     -0.301369703714    -76.366719925464

 SCS-DF-MP2 energies (F_SING= 1.20000  F_TRIP= 0.62222  F_PARALLEL= 0.33333):
 ============================================================================
 SCS-DF-MP2                            -0.294126385099    -76.359476606850
 SCS-DF-MP2-F12/3*C(DX,FIX)            -0.303190076673    -76.368540298424
 SCS-DF-MP2-F12/3*C(FIX)               -0.302278078463    -76.367628300213
 SCS-DF-MP2-F12/3C(FIX)                -0.302362902845    -76.367713124596
 Symmetry transformation completed.

 Number of N-1 electron functions:               4
 Number of N-2 electron functions:              10
 Number of singly external CSFs:              2916
 Number of doubly external CSFs:           4252986
 Total number of CSFs:                     4255903

 Pair and operator lists are different

 Length of J-op  integral file:             411.24 MB
 Length of K-op  integral file:             721.80 MB
 Length of 3-ext integral record:             0.00 MB

 Memory could be reduced to 2535.14 Mwords without degradation in triples

 Integral transformation finished. Total CPU: 576.02 sec, npass=  1  Memory used:1009.99 MW

 Reference energy:                    -76.06535022

 Adding F12 terms to K(Cij), methodcc=6,  factor= 1.0

 ITER.      SQ.NORM     CORR.ENERGY   TOTAL ENERGY   ENERGY CHANGE        DEN1      VAR(S)    VAR(P)  DIIS     TIME  TIME/IT
   1      1.06355606    -0.29279213   -76.35814235     0.00154410     0.00758322  0.78D-03  0.10D-02  1  1   780.84   165.45
   2      1.06706441    -0.29288566   -76.35823588    -0.00009353    -0.00496627  0.15D-04  0.11D-03  2  2   931.05   165.25
   3      1.06838949    -0.29297707   -76.35832729    -0.00009141    -0.00094288  0.82D-05  0.72D-05  3  3  1084.64   166.37
   4      1.06889829    -0.29298248   -76.35833270    -0.00000541    -0.00027841  0.52D-06  0.73D-06  4  4  1236.34   166.36
   5      1.06900158    -0.29298121   -76.35833143     0.00000127    -0.00003068  0.16D-06  0.55D-07  5  5  1387.37   166.24
   6      1.06903543    -0.29297900   -76.35832922     0.00000221    -0.00000574  0.19D-07  0.47D-08  6  6  1539.64   166.41
   7      1.06904376    -0.29297845   -76.35832867     0.00000055    -0.00000131  0.17D-08  0.83D-09  6  2  1693.56   166.73
   8      1.06904575    -0.29297832   -76.35832854     0.00000013    -0.00000009  0.23D-09  0.91D-10  6  1  1847.63   167.08
   9      1.06904621    -0.29297830   -76.35832853     0.00000001     0.00000010  0.46D-10  0.22D-10  6  2  1998.38   167.18
  10      1.06904655    -0.29297828   -76.35832850     0.00000002    -0.00000002  0.24D-11  0.14D-11  6  3  2151.65   167.29
  11      1.06904653    -0.29297828   -76.35832850    -0.00000000     0.00000005  0.42D-12  0.19D-12  6  5  2303.95   167.27
  12      1.06904655    -0.29297828   -76.35832850     0.00000000    -0.00000000  0.78D-13  0.22D-13  6  4  2459.40   167.67
  13      1.06904655    -0.29297828   -76.35832850    -0.00000000    -0.00000000  0.14D-13  0.37D-14  6  6  2611.32   167.65
  14      1.06904655    -0.29297828   -76.35832850    -0.00000000     0.00000000  0.23D-14  0.82D-15  6  1  2762.91   167.56
  15      1.06904655    -0.29297828   -76.35832850    -0.00000000    -0.00000000  0.28D-15  0.13D-15  6  2  2914.20   167.46
  16      1.06904654    -0.29297828   -76.35832850    -0.00000000     0.00000000  0.29D-16  0.17D-16  6  3  3068.45   167.56

 Norm of t1 vector:      0.03659821      S-energy:    -0.00000000      T1 diagnostic:  0.00914955
                                                                       D1 diagnostic:  0.01865299

 Adding energy correction from Wij-K(Fij), methodcc=6  factor= 1.0

  CCSD correlation energy              -0.292978283155
  MP2-F12 correction (uncoupled)       -0.006959380881
  C*T doubles correction               -0.000090674491
  f12b correction                       0.001580498040


 Total CPU time for triples:    640.14 sec

  Ecorr(MP2)                           -0.294336233098
  Ecorr(MP2-F12)                       -0.301375898234
  Scale factor for triples energy       1.023917086463


 RESULTS
 =======

  Reference energy                    -76.065311409310
  F12 singles correction               -0.000038812440

 F12 singles corrections added to reference energy

  New reference energy                -76.065350221751

  F12a singlet correction              -0.006651382100
  F12a triplet correction              -0.000398673273
  F12a total correction                -0.007050055373

 F12a corrections for ansatz F12/3C(FIX) added to CCSD energy

  CCSD-F12a singlet pair energy        -0.209245611157
  CCSD-F12a triplet pair energy        -0.090782726896
  CCSD-F12a correlation energy         -0.300028338527

  Triples (T) contribution (scaled)    -0.010026806447
  Total correlation energy             -0.310055144974

  CCSD-F12a total energy              -76.365378560278
  CCSD[T]-F12a energy                 -76.375721442681
  CCSD-T-F12a energy                  -76.375266842046
 !CCSD(T)-F12a total energy           -76.375405366725

 F12b corrections for ansatz F12/3C(FIX) added to CCSD(T)-F12a energy

  CCSD-F12b singlet pair energy        -0.207728370217
  CCSD-F12b triplet pair energy        -0.090719469795
  CCSD-F12b correlation energy         -0.298447840487

  Triples (T) contribution (scaled)    -0.010026806447
  Total correlation energy             -0.308474646934

  CCSD-F12b total energy              -76.363798062238
  CCSD[T]-F12b energy                 -76.374140944641
  CCSD-T-F12b energy                  -76.373686344006
 !CCSD(T)-F12b total energy           -76.373824868685

 Timing summary (sec):

 STEP                 CPU(USER)    SYS     CPU(TOT)    WALL
 Transformation        576.52     29.20    605.72    608.03
 CCSD iterations      2438.91    232.63   2671.54   2681.33
 Triples               640.14      5.38    645.52    649.15
 MP2-F12                53.22      2.48     55.70     55.94
 F12b energy           146.95     13.59    160.54    160.90

 Program statistics:

 Available memory in ccsd:              3999999871
 Min. memory needed in ccsd:              19260852
 Max. memory used in ccsd:                22423154
 Max. memory used in cckext:              14628952 (17 integral passes)



 **********************************************************************************************************************************
 DATASETS  * FILE   NREC   LENGTH (MB)   RECORD NAMES
              1      19     6330.34       500      610      700      900      950      970     1000      129      960     1100   
                                          VAR    BASINP    GEOM    SYMINP    ZMAT    AOBASIS   BASIS     P2S    ABASIS      S 
                                         1400     1410     1200     1210     1080     1600     1650     1700     1380   
                                           T        V       H0       H01     AOSYM     SMH    MOLCAS    OPER     JKOP   

              2       8       38.40       700     1000      520     2100     7360     7350      200     2101   
                                         GEOM     BASIS   MCVARS     RHF    F12ABS    EF12    OPTIONS    RHF  

 PROGRAMS   *        TOTAL   CCSD(T)    HF-SCF       INT   CCSD(T)    HF-SCF       INT
 CPU TIMES  *     19485.27   3855.92   1523.19      0.47  10553.02   1819.30   1733.11
 REAL TIME  *     21344.72 SEC
 DISK USED  *        14.29 GB (local),      546.87 GB (total)
 SF USED    *        17.68 GB
 GA USED    *         4.87 MB       (max)       0.00 MB       (current)
 **********************************************************************************************************************************

 Running procedure: SET_MONOMER2

 Dummy atoms: O6  H11  H12


 Recomputing one-electron integrals since nuclear charges changed


 PROGRAM * SEWARD (Integral evaluation for generally contracted gaussian basis sets)     Author: Roland Lindh, 1990

 Geometry written to block  1 of record 700


 Point group  C1  



 ATOMIC COORDINATES

 NR  ATOM    CHARGE       X              Y              Z

   1  O6      0.00   -1.010247586    7.876000542    2.916036383
   2  H11     0.00   -0.819574220    6.648056506    4.275505357
   3  H12     0.00   -0.644963526    6.932271315    1.370429386
   4  C1      6.00   -6.193010455    2.801518980    2.403542658
   5  H41     1.00   -4.656285171    1.699997622    3.119937832
   6  H42     1.00   -5.973046335    4.726205038    2.982932688
   7  H43     1.00   -7.940251230    2.077186956    3.118237078
   8  H44     1.00   -6.176569838    2.685300823    0.384937212

 Bond lengths in Bohr (Angstrom)

 1-2  1.841835709  1-3  1.847419359  4-5  2.021904040  4-6  2.022002335  4-7  2.021953343
     ( 0.974657483)     ( 0.977612224)     ( 1.069945541)     ( 1.069997556)     ( 1.069971630)

 4-8  2.022015060
     ( 1.070004290)

 Bond angles

  2-1-3  104.86126985   5-4-6  109.53398059   5-4-7  109.65604535   5-4-8  108.43490854

  6-4-7  109.49436728   6-4-8  109.86987750   7-4-8  109.83468330

 NUCLEAR CHARGE:                   10
 NUMBER OF PRIMITIVE AOS:        1046
 NUMBER OF SYMMETRY AOS:          786
 NUMBER OF CONTRACTIONS:          734   (  734A   )
 NUMBER OF CORE ORBITALS:           1   (    1A   )
 NUMBER OF VALENCE ORBITALS:        8   (    8A   )

 MOLECULE CHANGED: INITIALIZING OCCUPATION AND DUMP RECORDS


 NUCLEAR REPULSION ENERGY   13.68681606

 Basis set:  JKFIT                   
 Basis size:  1104
 Attributes:
 Sphericals:   T
 Basis set:  MP2FIT                  
 Basis size:  1246
 Attributes:
 Sphericals:   T
 Basis set:  RI                      
 Basis size:   730
 Attributes:
 Sphericals:   T
 Basis set:  TDDFT                   
 Basis size:  1246
 Attributes:
 Sphericals:   T

 Eigenvalues of metric

         1 0.183E-05 0.195E-05 0.337E-05 0.392E-05 0.536E-05 0.718E-05 0.824E-05 0.891E-05


 Contracted 2-electron integrals neglected if value below      1.0D-14

 OPERATOR DM      FOR CENTER  0  COORDINATES:    0.000000    0.000000    0.000000


 **********************************************************************************************************************************
 DATASETS  * FILE   NREC   LENGTH (MB)   RECORD NAMES
              1      18       49.80       500      610      700      900      950      970     1000      129      960     1100   
                                          VAR    BASINP    GEOM    SYMINP    ZMAT    AOBASIS   BASIS     P2S    ABASIS      S 
                                         1400     1410     1200     1210     1080     1600     1650     1700   
                                           T        V       H0       H01     AOSYM     SMH    MOLCAS    OPER   

              2       8       38.40       700     1000      520     2100     7360     7350      200     2101   
                                         GEOM     BASIS   MCVARS     RHF    F12ABS    EF12    OPTIONS    RHF  

 PROGRAMS   *        TOTAL       INT   CCSD(T)    HF-SCF       INT   CCSD(T)    HF-SCF       INT
 CPU TIMES  *     19485.75      0.48   3855.92   1523.19      0.47  10553.02   1819.30   1733.11
 REAL TIME  *     21346.13 SEC
 DISK USED  *        14.29 GB (local),      546.87 GB (total)
 SF USED    *        17.68 GB
 GA USED    *         4.87 MB       (max)       0.00 MB       (current)
 **********************************************************************************************************************************


 PROGRAM * RHF-SCF (CLOSED SHELL)       Authors: W. Meyer, H.-J. Werner


 NUMBER OF ELECTRONS:       5+    5-    SPACE SYMMETRY=1    SPIN SYMMETRY: Singlet 
 CONVERGENCE THRESHOLDS:    1.00E-08 (Density)    1.00E-11 (Energy)
 MAX. NUMBER OF ITERATIONS:       60
 INTERPOLATION TYPE:            DIIS
 INTERPOLATION STEPS:              2 (START)      1 (STEP)
 LEVEL SHIFTS:                  0.00 (CLOSED)  0.00 (OPEN) 



 Orbital guess generated from atomic densities. Full valence occupancy:    9

 Molecular orbital dump at record        2102.2

 Initial occupancy:   5

 ITERATION    DDIFF          GRAD             ENERGY        2-EL.EN.            DIPOLE MOMENTS         DIIS   ORB.
    1      0.000D+00      0.000D+00       -40.19676529     53.509902    0.00411   -0.00276   -0.00131    0    start
    2      0.000D+00      0.198D-02       -40.21405749     52.218478    0.00128   -0.00088   -0.00039    1    diag
    3      0.946D-03      0.769D-03       -40.21634091     52.673985    0.00182   -0.00124   -0.00056    2    diag
    4      0.259D-03      0.192D-03       -40.21666124     52.619248    0.00162   -0.00110   -0.00049    3    diag
    5      0.990D-04      0.248D-04       -40.21666672     52.621406    0.00159   -0.00108   -0.00048    4    diag
    6      0.339D-04      0.204D-05       -40.21666676     52.621534    0.00159   -0.00108   -0.00048    5    diag
    7      0.608D-05      0.166D-06       -40.21666677     52.621496    0.00159   -0.00108   -0.00048    6    diag
    8      0.370D-06      0.136D-07       -40.21666677     52.621497    0.00159   -0.00108   -0.00048    7    diag
    9      0.548D-07      0.167D-08       -40.21666677     52.621497    0.00159   -0.00108   -0.00048    8    diag
   10      0.106D-07      0.465D-09       -40.21666677     52.621497    0.00159   -0.00108   -0.00048    9    orth
   11      0.116D-08      0.666D-10       -40.21666677     52.621497    0.00159   -0.00108   -0.00048    0    orth

 Final occupancy:   5

 !RHF STATE  1.1 Energy               -40.216666765161
 Nuclear energy                        13.68681606
 One-electron energy                  -80.21423128
 Two-electron energy                   26.31074846
 Virial quotient                       -0.99832815
 !RHF STATE  1.1 Dipole moment          0.00158799    -0.00108137    -0.00047804
 Dipole moment /Debye                   0.00403600    -0.00274840    -0.00121497

 Orbital energies:

         1.1          2.1          3.1          4.1          5.1          6.1          7.1
    -11.196017    -0.950605    -0.551931    -0.549996    -0.547818     0.021671     0.032401


 HOMO      5.1    -0.547818 =     -14.9069eV
 LUMO      6.1     0.021671 =       0.5897eV
 LUMO-HOMO         0.569489 =      15.4966eV


 **********************************************************************************************************************************
 DATASETS  * FILE   NREC   LENGTH (MB)   RECORD NAMES
              1      18       49.80       500      610      700      900      950      970     1000      129      960     1100   
                                          VAR    BASINP    GEOM    SYMINP    ZMAT    AOBASIS   BASIS     P2S    ABASIS      S 
                                         1400     1410     1200     1210     1080     1600     1650     1700   
                                           T        V       H0       H01     AOSYM     SMH    MOLCAS    OPER   

              2       9       62.49       700     1000      520     2100     7360     7350      200     2101     2102   
                                         GEOM     BASIS   MCVARS     RHF    F12ABS    EF12    OPTIONS    RHF      RHF  

 PROGRAMS   *        TOTAL    HF-SCF       INT   CCSD(T)    HF-SCF       INT   CCSD(T)    HF-SCF       INT
 CPU TIMES  *     21049.09   1563.34      0.48   3855.92   1523.19      0.47  10553.02   1819.30   1733.11
 REAL TIME  *     23081.21 SEC
 DISK USED  *        14.29 GB (local),      546.87 GB (total)
 SF USED    *        17.68 GB
 GA USED    *         4.87 MB       (max)       0.00 MB       (current)
 **********************************************************************************************************************************

 Basis set:  JKFIT                   
 Basis size:  1104
 Attributes:
 Sphericals:   T
 Basis set:  MP2FIT                  
 Basis size:  1246
 Attributes:
 Sphericals:   T
 Basis set:  RI                      
 Basis size:   730
 Attributes:
 Sphericals:   T
 Basis set:  TDDFT                   
 Basis size:  1246
 Attributes:
 Sphericals:   T

 PROGRAM * CCSD (Closed-shell coupled cluster)     Authors: C. Hampel, H.-J. Werner, 1991, M. Deegan, P.J. Knowles, 1992

                                  CCSD-F12 implementation by  H.-J. Werner, 2007

                   Density fitting integral evaluation by F.R. Manby, 2003,2007, G. Knizia, 2010



 Convergence thresholds:  THRVAR = 1.00D-08  THRDEN = 1.00D-10

 CCSD(T)     terms to be evaluated (factor= 1.000)


 Number of core orbitals:           1 (   1 )
 Number of closed-shell orbitals:   4 (   4 )
 Number of external orbitals:     729 ( 729 )

 Molecular orbitals read from record     2102.2  Type=RHF/CANONICAL (state 1.1)

 MP2-F12 correlation treatment (H.-J. Werner, 2006)
 ==================================================

 Using MP2-F12 with ansatz 3C(FIX)

 Using projected zeroth-order Hamiltonian (+Z)

 FOCKRIB=T FOCKRIC=T FOCKRIP=T CABSP=T CABSA=T CABSK=T CABSF=T GBC=F EBC=F DMAT=T NOFIK=T NOPAO=1 SOLVE=-1  USEPAO=0
 EXCH_A= T EXCH_B= F EXCH_C= F EXCH_P= F

 Geminal basis:    OPTFULL  GEM_TYPE=SLATER  BETA=1.0  NGEM=6

 Optimizing Gaussian exponents for each gem_beta

 Geminal optimization for beta= 1.0000
 Weight function:   m=0, omega= 1.4646

 Augmented Hessian optimization of geminal fit. Trust ratio= 0.40000
 Convergence reached after   2 iterations. Final gradient= 8.53D-16, Step= 4.26D-06, Delta= 1.28D-09

 Alpha:                 0.19532     0.81920     2.85917     9.50073    35.69989   197.79328
 Coeff:                 0.27070     0.30552     0.18297     0.10986     0.06810     0.04224


 All pairs explicitly correlated. Number of r12-pairs:           10

 Excluding core orbitals from MO domains

 AO(A)-basis ORBITAL           loaded. Number of functions:     734
 RI(R)-basis RI                loaded. Number of functions:     730
 DF-basis JKFIT                loaded. Number of functions:    1104

 Screening thresholds:   THRAO=  1.00D-10  THRMO=  1.00D-09  THRPROD=  1.00D-09
                         THRSW=  1.00D-05  THROV=  1.00D-12  THRAOF12= 1.00D-10

 CPU time for Fock operators                      9.37 sec

 Construction of ABS:
 Smallest eigenvalue of S          2.26E-04  (threshold= 1.00E-08)
 Ratio eigmin/eigmax               3.94E-05  (threshold= 1.00E-09)
 Smallest eigenvalue of S kept     2.26E-04  (threshold= 2.26E-04, 0 functions deleted, 730 kept)

 Construction of CABS:
 Smallest eigenvalue of S          9.93E-09  (threshold= 1.00E-08)
 Ratio eigmin/eigmax               9.93E-09  (threshold= 1.00E-09)
 Smallest eigenvalue of S kept     8.22E-08  (threshold= 8.22E-08, 1 functions deleted, 729 kept)

 CPU time for CABS singles                        1.20 sec

 CABS-singles contribution of  -0.00004084 patched into reference energy.
 New reference energy         -40.21670760

 AO(A)-basis ORBITAL           loaded. Number of functions:     734
 RI(R)-basis RI                loaded. Number of functions:     730
 DF-basis MP2FIT               loaded. Number of functions:    1246

 Screening thresholds:   THRAO=  1.00D-10  THRMO=  1.00D-09  THRPROD=  1.00D-09
                         THRSW=  1.00D-05  THROV=  1.00D-12  THRAOF12= 1.00D-10

 CPU time for 3-index integral evaluation        29.09 sec
 CPU time for first  half transformation          2.41 sec ( 6072.5 MFLOP/sec)
 CPU time for second half transformation          0.03 sec ( 2372.3 MFLOP/sec)
 CPU time for sorting                             0.15 sec
 CPU time for fitting                             0.36 sec (25254.3 MFLOP/sec)
 CPU time for tilde quantities                    0.41 sec (27809.0 MFLOP/sec)
 CPU time for assembly                            1.42 sec (22615.3 MFLOP/sec)
 CPU time for tranop_f12                          1.72 sec (23903.0 MFLOP/sec)
 CPU time for f12 integrals (total)              38.40 sec, Elapsed time:     40.21 sec
 F12-matrices built in  4 passes.
 F12-matrices built in  4 passes.
 F12-matrices built in  4 passes.
 F12-matrices built in  4 passes.
 FC-matrix built in  4 passes.
 CPU time for f12 matrices (total)                1.37 sec, Elapsed time:      1.41 sec

 Diagonal F12 approximation with fixed coefficients:  TSING= 0.500,  TTRIP= 0.250 (scaled by -1/beta)

 DF-MP2-F12 energy corrections:
 ==============================
 Approx.                                    Singlet             Triplet             Total
 DF-MP2-F12/3*C(DX,FIX)                -0.003934742346     -0.000213140491     -0.004147882837
 DF-MP2-F12/3*C(FIX)                   -0.003771639685     -0.000161017125     -0.003932656810
 DF-MP2-F12/3C(FIX)                    -0.003818676142     -0.000164053661     -0.003982729803

 DF-MP2-F12 correlation energies:
 ================================
 Approx.                                    Singlet             Triplet             Ecorr            Total Energy
 DF-MP2                                -0.157868476696     -0.056824850268     -0.214693326964    -40.431400928657
 DF-MP2-F12/3*C(DX,FIX)                -0.161803219042     -0.057037990759     -0.218841209801    -40.435548811494
 DF-MP2-F12/3*C(FIX)                   -0.161640116381     -0.056985867393     -0.218625983774    -40.435333585467
 DF-MP2-F12/3C(FIX)                    -0.161687152838     -0.056988903929     -0.218676056767    -40.435383658460

 SCS-DF-MP2 energies (F_SING= 1.20000  F_TRIP= 0.62222  F_PARALLEL= 0.33333):
 ============================================================================
 SCS-DF-MP2                            -0.224799856646    -40.441507458339
 SCS-DF-MP2-F12/3*C(DX,FIX)            -0.229654168211    -40.446361769905
 SCS-DF-MP2-F12/3*C(FIX)               -0.229426012702    -40.446133614395
 SCS-DF-MP2-F12/3C(FIX)                -0.229484345850    -40.446191947543
 Symmetry transformation completed.

 Number of N-1 electron functions:               4
 Number of N-2 electron functions:              10
 Number of singly external CSFs:              2916
 Number of doubly external CSFs:           4252986
 Total number of CSFs:                     4255903

 Pair and operator lists are different

 Length of J-op  integral file:             411.24 MB
 Length of K-op  integral file:             721.80 MB
 Length of 3-ext integral record:             0.00 MB

 Memory could be reduced to 2535.14 Mwords without degradation in triples

 Integral transformation finished. Total CPU: 590.42 sec, npass=  1  Memory used:1009.99 MW

 Reference energy:                    -40.21670760

 Adding F12 terms to K(Cij), methodcc=6,  factor= 1.0

 ITER.      SQ.NORM     CORR.ENERGY   TOTAL ENERGY   ENERGY CHANGE        DEN1      VAR(S)    VAR(P)  DIIS     TIME  TIME/IT
   1      1.07033683    -0.22827187   -40.44497947    -0.01357183    -0.00771749  0.62D-03  0.94D-03  1  1   794.37   164.90
   2      1.07515863    -0.22922887   -40.44593648    -0.00095701    -0.00531224  0.16D-04  0.11D-03  2  2   948.30   167.33
   3      1.07694828    -0.22929623   -40.44600383    -0.00006736    -0.00133775  0.22D-05  0.64D-05  3  3  1100.81   167.42
   4      1.07735107    -0.22929868   -40.44600628    -0.00000245    -0.00021861  0.16D-06  0.39D-06  4  4  1252.50   167.20
   5      1.07740837    -0.22930225   -40.44600985    -0.00000357    -0.00000965  0.14D-07  0.24D-07  5  5  1405.07   167.22
   6      1.07741861    -0.22930090   -40.44600851     0.00000135    -0.00000404  0.89D-09  0.18D-08  6  6  1558.84   167.48
   7      1.07742013    -0.22930051   -40.44600811     0.00000039    -0.00000090  0.56D-10  0.13D-09  6  1  1712.15   167.67
   8      1.07742006    -0.22930057   -40.44600817    -0.00000006     0.00000024  0.61D-11  0.88D-11  6  3  1864.23   167.61
   9      1.07742020    -0.22930055   -40.44600815     0.00000002    -0.00000009  0.42D-12  0.62D-12  6  2  2015.50   167.55
  10      1.07742020    -0.22930055   -40.44600815     0.00000000     0.00000001  0.58D-13  0.65D-13  6  4  2166.15   167.43
  11      1.07742021    -0.22930055   -40.44600815     0.00000000    -0.00000000  0.60D-14  0.66D-14  6  5  2318.44   167.43
  12      1.07742020    -0.22930055   -40.44600815     0.00000000     0.00000000  0.17D-15  0.66D-15  6  6  2469.46   167.33
  13      1.07742020    -0.22930055   -40.44600815    -0.00000000     0.00000000  0.13D-16  0.72D-16  6  1  2620.43   167.23
  14      1.07742020    -0.22930055   -40.44600815    -0.00000000     0.00000000  0.19D-17  0.11D-16  6  3  2771.10   167.15

 Norm of t1 vector:      0.03268907      S-energy:     0.00000000      T1 diagnostic:  0.00817227
                                                                       D1 diagnostic:  0.01311253

 Adding energy correction from Wij-K(Fij), methodcc=6  factor= 1.0

  CCSD correlation energy              -0.229300548641
  MP2-F12 correction (uncoupled)       -0.003885333720
  C*T doubles correction               -0.000069148973
  f12b correction                       0.001100696479

 Total CPU time for triples:    638.07 sec

  Ecorr(MP2)                           -0.214700037803
  Ecorr(MP2-F12)                       -0.218682767606
  Scale factor for triples energy       1.018550205410


 RESULTS
 =======

  Reference energy                    -40.216666765161
  F12 singles correction               -0.000040836532

 F12 singles corrections added to reference energy

  New reference energy                -40.216707601693

  F12a singlet correction              -0.003783124039
  F12a triplet correction              -0.000171358655
  F12a total correction                -0.003954482694

 F12a corrections for ansatz F12/3C(FIX) added to CCSD energy

  CCSD-F12a singlet pair energy        -0.178096447010
  CCSD-F12a triplet pair energy        -0.055158584330
  CCSD-F12a correlation energy         -0.233255031335

  Triples (T) contribution (scaled)    -0.007109263599
  Total correlation energy             -0.240364294934

  CCSD-F12a total energy              -40.449962633028
  CCSD[T]-F12a energy                 -40.457307517940
  CCSD-T-F12a energy                  -40.457004051681
 !CCSD(T)-F12a total energy           -40.457071896627

 F12b corrections for ansatz F12/3C(FIX) added to CCSD(T)-F12a energy

  CCSD-F12b singlet pair energy        -0.177024906098
  CCSD-F12b triplet pair energy        -0.055129428763
  CCSD-F12b correlation energy         -0.232154334856

  Triples (T) contribution (scaled)    -0.007109263599
  Total correlation energy             -0.239263598455

  CCSD-F12b total energy              -40.448861936549
  CCSD[T]-F12b energy                 -40.456206821460
  CCSD-T-F12b energy                  -40.455903355202
 !CCSD(T)-F12b total energy           -40.455971200148

 Timing summary (sec):

 STEP                 CPU(USER)    SYS     CPU(TOT)    WALL
 Transformation        590.94     27.08    618.02    621.00
 CCSD iterations      2127.76    204.68   2332.44   2340.41
 Triples               638.07      4.90    642.97    645.20
 MP2-F12                52.59      2.22     54.81     55.01
 F12b energy           146.25     14.07    160.32    161.16

 Program statistics:

 Available memory in ccsd:              3999999866
 Min. memory needed in ccsd:              19260852
 Max. memory used in ccsd:                22423154
 Max. memory used in cckext:              14628952 (15 integral passes)



 **********************************************************************************************************************************
 DATASETS  * FILE   NREC   LENGTH (MB)   RECORD NAMES
              1      19     6330.34       500      610      700      900      950      970     1000      129      960     1100   
                                          VAR    BASINP    GEOM    SYMINP    ZMAT    AOBASIS   BASIS     P2S    ABASIS      S 
                                         1400     1410     1200     1210     1080     1600     1650     1700     1380   
                                           T        V       H0       H01     AOSYM     SMH    MOLCAS    OPER     JKOP   

              2       9       62.49       700     1000      520     2100     7360     7350      200     2101     2102   
                                         GEOM     BASIS   MCVARS     RHF    F12ABS    EF12    OPTIONS    RHF      RHF  

 PROGRAMS   *        TOTAL   CCSD(T)    HF-SCF       INT   CCSD(T)    HF-SCF       INT   CCSD(T)    HF-SCF       INT
 CPU TIMES  *     24604.89   3555.79   1563.34      0.48   3855.92   1523.19      0.47  10553.02   1819.30   1733.11
 REAL TIME  *     26905.31 SEC
 DISK USED  *        14.29 GB (local),      546.87 GB (total)
 SF USED    *        17.68 GB
 GA USED    *         4.87 MB       (max)       0.00 MB       (current)
 **********************************************************************************************************************************
 Molecular orbitals read from record     2102.2  Type=RHF/CANONICAL (state 1.1)
 Occupation numbers read from record     2102.2  Type=RHF/RHF (state 1.1)
 Orbital energies read from record       2102.2  Type=RHF/CANONICAL (state 1.1)
 Redundancy group numbers read from rec  2102.2  Type=RHF/RHF (state 1.1)

 CCSD(T)-F12/aug-cc-pV5Z energy=    -40.455971200148

     CCSD(T)-F12          HF-SCF     CCSD(T)-F12          HF-SCF     CCSD(T)-F12          HF-SCF
    -40.45597120    -40.21666677    -76.37382487    -76.06531141   -116.83054978   -116.28187926
 **********************************************************************************************************************************
 Molpro calculation terminated
