
 Primary working directories    : /scratch.ssd/kelum/job_376908.cerit-pbs.cerit-sc.cz/molpro.XcAVJJCIK5
 Secondary working directories  : /scratch.ssd/kelum/job_376908.cerit-pbs.cerit-sc.cz/molpro.XcAVJJCIK5
 Wavefunction directory         : /scratch.ssd/kelum/job_376908.cerit-pbs.cerit-sc.cz/
 Main file repository           : /scratch.ssd/kelum/job_376908.cerit-pbs.cerit-sc.cz/molpro.XcAVJJCIK5/

 id        : karlovklimes

 Nodes             nprocs
 zelda2.cerit-sc.cz    4

 Using customized tuning parameters: mindgm=1; mindgv=20; mindgc=4; mindgr=1; noblas=0; minvec=7
 default implementation of scratch files=sf  


 Variables initialized (930), CPU time= 0.01 sec
                                                                                 !gdirect
 memory,4000,m
 gthresh,orbital=1d-10,energy=1d-10
 
 symmetry,nosym
 angstrom
 geometry={
 O2        -0.069900000000     -0.226200000000      2.872700000000
 H3         0.635400000000     -0.815900000000      3.168900000000
 H4        -0.918500000000     -0.721300000000      3.072500000000
 C1        -3.277200000000      1.482500000000      1.271900000000
 H41        -2.464000000000      0.899600000000      1.651000000000
 H42        -3.160800000000      2.501000000000      1.578500000000
 H43        -4.201800000000      1.099200000000      1.650100000000
 H44        -3.268500000000      1.421000000000      0.203700000000
 }
 
 nkerna=1
 nkernb=1
 
 gf=0
 sing=1
 thrdum=1d-4
 gridthr=1d-8
 
 basis={
 set,orbital
 default,av5z
 set,jkfit
 default,av5z/jkfit
 set,mp2fit
 default,av5z/mp2fit
 set,ri
 default,av5z/optri
 set,tddft
 default,av5z/mp2fit
 }
 
 proc set_monomer1
 dummy,4,5,6,7,8
 endproc
 
 proc set_monomer2
 dummy,1,2,3
 endproc
 
                                                                                 !12 energy
 {hf,accu=1.d-16}
 {ccsd(t)-f12,df_basis=mp2fit,df_basis_exch=jkfit,ri_basis=ri,scale_trip=1,THRAOF12=1d-10}
 
 set_monomer1
 {hf,accu=1.d-16}
 {ccsd(t)-f12,df_basis=mp2fit,df_basis_exch=jkfit,ri_basis=ri,scale_trip=1,THRAOF12=1d-10}
 
 set_monomer2
 {hf,accu=1.d-16}
 {ccsd(t)-f12,df_basis=mp2fit,df_basis_exch=jkfit,ri_basis=ri,scale_trip=1,THRAOF12=1d-10}
 
 Commands  initialized (760), CPU time= 0.02 sec, 617 directives.
 Default parameters read. Elapsed time= 0.28 sec

 Checking input...
 Passed
1


                                         ***  PROGRAM SYSTEM MOLPRO  ***
                                       Copyright, TTI GmbH Stuttgart, 2015
                                    Version 2018.2 linked Nov 10 2018 21:55:55


 **********************************************************************************************************************************
 LABEL *                                                                                 
  64 bit mpp version                                                                     DATE: 23-Mar-20          TIME: 17:16:58  
 **********************************************************************************************************************************

 SHA1:             5ea806b172b3d20b18658228ad0b1c212d33fc17
 **********************************************************************************************************************************

 THRESHOLDS:

 ZERO    =  1.00D-12  ONEINT  =  1.00D-12  TWOINT  =  1.00D-11  PREFAC  =  1.00D-14  XXXXXX  =  1.00D-09  EORDER  =  1.00D-04
 ENERGY  =  1.00D-10  ETEST   =  0.00D+00  EDENS   =  0.00D+00  THRDEDEF=  1.00D-06  GRADIENT=  1.00D-02  STEP    =  1.00D-03
 ORBITAL =  1.00D-10  CIVEC   =  1.00D-05  COEFF   =  1.00D-04  PRINTCI =  5.00D-02  PUNCHCI =  9.90D+01  OPTGRAD =  3.00D-04
 OPTENERG=  1.00D-06  OPTSTEP =  3.00D-04  THRGRAD =  1.00D-10  COMPRESS=  1.00D-11  VARMIN  =  1.00D-07  VARMAX  =  1.00D-03
 THRDOUB =  0.00D+00  THRDIV  =  1.00D-05  THRRED  =  1.00D-07  THRPSP  =  1.00D+00  THRDC   =  1.00D-10  THRCS   =  1.00D-10
 THRNRM  =  1.00D-08  THREQ   =  0.00D+00  THRDE   =  1.00D+00  THRREF  =  1.00D-05  SPARFAC =  1.00D+00  THRDLP  =  1.00D-07
 THRDIA  =  1.00D-10  THRDLS  =  1.00D-07  THRGPS  =  0.00D+00  THRKEX  =  0.00D+00  THRDIS  =  2.00D-01  THRVAR  =  1.00D-10
 THRLOC  =  1.00D-06  THRGAP  =  1.00D-06  THRLOCT = -1.00D+00  THRGAPT = -1.00D+00  THRORB  =  1.00D-06  THRMLTP =  0.00D+00
 THRCPQCI=  1.00D-10  KEXTA   =  0.00D+00  THRCOARS=  0.00D+00  SYMTOL  =  1.00D-06  GRADTOL =  1.00D-06  THROVL  =  1.00D-08
 THRORTH =  1.00D-08  GRID    =  1.00D-06  GRIDMAX =  1.00D-03  DTMAX   =  0.00D+00  THROCCDE=  1.00D-01  THROCCDE=  1.00D-01
 THRPRINT=  2.50D-01


 Variable memory set to 4000000000 words,  buffer space 

 ZSYMEL=NOSYM
 ZUNIT=ANG


Geometry recognized as XYZ

 SETTING NKERNA         =         1.00000000                                  
 SETTING NKERNB         =         1.00000000                                  
 SETTING GF             =     0.00000000D+00                                  
 SETTING SING           =         1.00000000                                  
 SETTING THRDUM         =     1.00000000D-04                                  
 SETTING GRIDTHR        =     1.00000000D-08                                  
 SETTING BASIS          =    AV5Z


 Recomputing integrals since basis changed


 Using spherical harmonics

 Library entry O      S aug-cc-pV5Z          selected for orbital group  1
 Library entry O      P aug-cc-pV5Z          selected for orbital group  1
 Library entry O      D aug-cc-pV5Z          selected for orbital group  1
 Library entry O      F aug-cc-pV5Z          selected for orbital group  1
 Library entry O      G aug-cc-pV5Z          selected for orbital group  1
 Library entry O      H aug-cc-pV5Z          selected for orbital group  1
 Library entry H      S aug-cc-pV5Z          selected for orbital group  2
 Library entry H      P aug-cc-pV5Z          selected for orbital group  2
 Library entry H      D aug-cc-pV5Z          selected for orbital group  2
 Library entry H      F aug-cc-pV5Z          selected for orbital group  2
 Library entry H      G aug-cc-pV5Z          selected for orbital group  2
 Library entry C      S aug-cc-pV5Z          selected for orbital group  3
 Library entry C      P aug-cc-pV5Z          selected for orbital group  3
 Library entry C      D aug-cc-pV5Z          selected for orbital group  3
 Library entry C      F aug-cc-pV5Z          selected for orbital group  3
 Library entry C      G aug-cc-pV5Z          selected for orbital group  3
 Library entry C      H aug-cc-pV5Z          selected for orbital group  3


 PROGRAM * SEWARD (Integral evaluation for generally contracted gaussian basis sets)     Author: Roland Lindh, 1990

 Geometry written to block  1 of record 700


 Point group  C1  



 ATOMIC COORDINATES

 NR  ATOM    CHARGE       X              Y              Z

   1  O2      8.00   -0.132091856   -0.427456049    5.428616238
   2  H3      1.00    1.200731980   -1.541827545    5.988353116
   3  H4      1.00   -1.735713445   -1.363059454    5.806183518
   4  C1      6.00   -6.193010455    2.801518980    2.403542658
   5  H41     1.00   -4.656285171    1.699997622    3.119937832
   6  H42     1.00   -5.973046335    4.726205038    2.982932688
   7  H43     1.00   -7.940251230    2.077186956    3.118237078
   8  H44     1.00   -6.176569838    2.685300823    0.384937212

 Bond lengths in Bohr (Angstrom)

 1-2  1.825253018  1-3  1.894601009  4-5  2.021904040  4-6  2.022002335  4-7  2.021953343
     ( 0.965882301)     ( 1.002579678)     ( 1.069945541)     ( 1.069997556)     ( 1.069971630)

 4-8  2.022015060
     ( 1.070004290)

 Bond angles

  2-1-3  104.80057086   5-4-6  109.53398059   5-4-7  109.65604535   5-4-8  108.43490854

  6-4-7  109.49436728   6-4-8  109.86987750   7-4-8  109.83468330

 NUCLEAR CHARGE:                   20
 NUMBER OF PRIMITIVE AOS:        1046
 NUMBER OF SYMMETRY AOS:          786
 NUMBER OF CONTRACTIONS:          734   (  734A   )
 NUMBER OF CORE ORBITALS:           2   (    2A   )
 NUMBER OF VALENCE ORBITALS:       14   (   14A   )


 NUCLEAR REPULSION ENERGY   35.86337232


 Basis set:  JKFIT                   
 Basis size:  1104
 Attributes:
 Sphericals:   T
 Basis set:  MP2FIT                  
 Basis size:  1246
 Attributes:
 Sphericals:   T
 Basis set:  RI                      
 Basis size:   730
 Attributes:
 Sphericals:   T
 Basis set:  TDDFT                   
 Basis size:  1246
 Attributes:
 Sphericals:   T

 **********************************************************************************************************************************


 Eigenvalues of metric

         1 0.106E-05 0.206E-05 0.316E-05 0.466E-05 0.486E-05 0.663E-05 0.878E-05 0.902E-05


 Contracted 2-electron integrals neglected if value below      1.0D-14
 AO integral compression algorithm  1   Integral accuracy      1.0D-14

     145385.325 MB (compressed) written to integral file ( 46.0%)

     Node minimum: 32941.015 MB, node maximum: 39725.826 MB


 NUMBER OF SORTED TWO-ELECTRON INTEGRALS: 9095363064.     BUFFER LENGTH:  32768
 NUMBER OF SEGMENTS: 190  SEGMENT LENGTH:   47999780      RECORD LENGTH: 131072

 Memory used in sort:      48.16 MW

 SORT1 READ 39469907505. AND WROTE  6607677924. INTEGRALS IN  75710 RECORDS. CPU TIME:   477.80 SEC, REAL TIME:   584.72 SEC
 SORT2 READ 26438801384. AND WROTE 36381317385. INTEGRALS IN 575676 RECORDS. CPU TIME:    93.39 SEC, REAL TIME:   216.17 SEC

 Node minimum:  9095228192.  Node maximum:  9095430501. integrals

 OPERATOR DM      FOR CENTER  0  COORDINATES:    0.000000    0.000000    0.000000


 **********************************************************************************************************************************
 DATASETS  * FILE   NREC   LENGTH (MB)   RECORD NAMES
              1      18       49.80       500      610      700      900      950      970     1000      129      960     1100   
                                          VAR    BASINP    GEOM    SYMINP    ZMAT    AOBASIS   BASIS     P2S    ABASIS      S 
                                         1400     1410     1200     1210     1080     1600     1650     1700   
                                           T        V       H0       H01     AOSYM     SMH    MOLCAS    OPER   

 PROGRAMS   *        TOTAL       INT
 CPU TIMES  *      1167.97   1167.77
 REAL TIME  *      1436.12 SEC
 DISK USED  *        50.44 MB (local),      462.80 GB (total)
 GA USED    *         0.00 MB       (max)       0.00 MB       (current)
 **********************************************************************************************************************************


 PROGRAM * RHF-SCF (CLOSED SHELL)       Authors: W. Meyer, H.-J. Werner


 NUMBER OF ELECTRONS:      10+   10-    SPACE SYMMETRY=1    SPIN SYMMETRY: Singlet 
 CONVERGENCE THRESHOLDS:    1.00E-08 (Density)    1.00E-11 (Energy)
 MAX. NUMBER OF ITERATIONS:       60
 INTERPOLATION TYPE:            DIIS
 INTERPOLATION STEPS:              2 (START)      1 (STEP)
 LEVEL SHIFTS:                  0.00 (CLOSED)  0.00 (OPEN) 



 Orbital guess generated from atomic densities. Full valence occupancy:   16

 Molecular orbital dump at record        2100.2

 Initial occupancy:  10

 ITERATION    DDIFF          GRAD             ENERGY        2-EL.EN.            DIPOLE MOMENTS         DIIS   ORB.
    1      0.000D+00      0.000D+00      -116.22122333    157.417114   -0.14354   -1.05285    0.47900    0    start
    2      0.000D+00      0.291D-02      -116.26540574    152.399084   -0.02214   -0.59331    0.27833    1    diag
    3      0.162D-02      0.172D-02      -116.27920621    154.489719   -0.05178   -0.71184    0.32923    2    diag
    4      0.561D-03      0.256D-03      -116.27987390    154.376159   -0.04908   -0.70191    0.32433    3    diag
    5      0.128D-03      0.755D-04      -116.27994497    154.372084   -0.04824   -0.70140    0.32411    4    diag
    6      0.525D-04      0.183D-04      -116.27994899    154.377727   -0.04797   -0.70063    0.32372    5    diag
    7      0.183D-04      0.376D-05      -116.27994924    154.376091   -0.04794   -0.70062    0.32370    6    diag
    8      0.529D-05      0.970D-06      -116.27994926    154.376281   -0.04790   -0.70056    0.32367    7    diag
    9      0.121D-05      0.229D-06      -116.27994926    154.376254   -0.04789   -0.70053    0.32366    8    diag
   10      0.327D-06      0.267D-07      -116.27994926    154.376254   -0.04788   -0.70053    0.32366    9    orth
   11      0.588D-07      0.610D-08      -116.27994926    154.376256   -0.04788   -0.70053    0.32366    9    diag
   12      0.637D-08      0.159D-08      -116.27994926    154.376256   -0.04788   -0.70053    0.32366    0    orth

 Final occupancy:  10

 !RHF STATE  1.1 Energy              -116.279949259879
 Nuclear energy                        35.86337232
 One-electron energy                 -229.33144940
 Two-electron energy                   77.18812782
 Virial quotient                       -1.00080666
 !RHF STATE  1.1 Dipole moment         -0.04788288    -0.70053184     0.32366043
 Dipole moment /Debye                  -0.12169817    -1.78045771     0.82260887

 Orbital energies:

         1.1          2.1          3.1          4.1          5.1          6.1          7.1          8.1          9.1         10.1
    -20.569525   -11.191067    -1.340492    -0.945851    -0.705495    -0.580683    -0.547068    -0.545431    -0.542536    -0.509448

        11.1         12.1
      0.019772     0.031387


 HOMO     10.1    -0.509448 =     -13.8628eV
 LUMO     11.1     0.019772 =       0.5380eV
 LUMO-HOMO         0.529220 =      14.4008eV


 **********************************************************************************************************************************
 DATASETS  * FILE   NREC   LENGTH (MB)   RECORD NAMES
              1      18       49.80       500      610      700      900      950      970     1000      129      960     1100   
                                          VAR    BASINP    GEOM    SYMINP    ZMAT    AOBASIS   BASIS     P2S    ABASIS      S 
                                         1400     1410     1200     1210     1080     1600     1650     1700   
                                           T        V       H0       H01     AOSYM     SMH    MOLCAS    OPER   

              2       4       13.79       700     1000      520     2100   
                                         GEOM     BASIS   MCVARS     RHF  

 PROGRAMS   *        TOTAL    HF-SCF       INT
 CPU TIMES  *      2644.14   1476.16   1167.77
 REAL TIME  *      3132.87 SEC
 DISK USED  *       102.61 MB (local),      463.01 GB (total)
 SF USED    *         2.16 MB
 GA USED    *         0.00 MB       (max)       0.00 MB       (current)
 **********************************************************************************************************************************

 Basis set:  JKFIT                   
 Basis size:  1104
 Attributes:
 Sphericals:   T
 Basis set:  MP2FIT                  
 Basis size:  1246
 Attributes:
 Sphericals:   T
 Basis set:  RI                      
 Basis size:   730
 Attributes:
 Sphericals:   T
 Basis set:  TDDFT                   
 Basis size:  1246
 Attributes:
 Sphericals:   T

 PROGRAM * CCSD (Closed-shell coupled cluster)     Authors: C. Hampel, H.-J. Werner, 1991, M. Deegan, P.J. Knowles, 1992

                                  CCSD-F12 implementation by  H.-J. Werner, 2007

                   Density fitting integral evaluation by F.R. Manby, 2003,2007, G. Knizia, 2010



 Convergence thresholds:  THRVAR = 1.00D-08  THRDEN = 1.00D-10

 CCSD(T)     terms to be evaluated (factor= 1.000)


 Number of core orbitals:           2 (   2 )
 Number of closed-shell orbitals:   8 (   8 )
 Number of external orbitals:     724 ( 724 )

 Molecular orbitals read from record     2100.2  Type=RHF/CANONICAL (state 1.1)

 MP2-F12 correlation treatment (H.-J. Werner, 2006)
 ==================================================

 Using MP2-F12 with ansatz 3C(FIX)

 Using projected zeroth-order Hamiltonian (+Z)

 FOCKRIB=T FOCKRIC=T FOCKRIP=T CABSP=T CABSA=T CABSK=T CABSF=T GBC=F EBC=F DMAT=T NOFIK=T NOPAO=1 SOLVE=-1  USEPAO=0
 EXCH_A= T EXCH_B= F EXCH_C= F EXCH_P= F

 Geminal basis:    OPTFULL  GEM_TYPE=SLATER  BETA=1.0  NGEM=6

 Optimizing Gaussian exponents for each gem_beta

 Geminal optimization for beta= 1.0000
 Weight function:   m=0, omega= 1.4646

 Augmented Hessian optimization of geminal fit. Trust ratio= 0.40000
 Convergence reached after   2 iterations. Final gradient= 8.53D-16, Step= 4.26D-06, Delta= 1.28D-09

 Alpha:                 0.19532     0.81920     2.85917     9.50073    35.69989   197.79328
 Coeff:                 0.27070     0.30552     0.18297     0.10986     0.06810     0.04224


 All pairs explicitly correlated. Number of r12-pairs:           36

 Excluding core orbitals from MO domains

 AO(A)-basis ORBITAL           loaded. Number of functions:     734
 RI(R)-basis RI                loaded. Number of functions:     730
 DF-basis JKFIT                loaded. Number of functions:    1104

 Screening thresholds:   THRAO=  1.00D-10  THRMO=  1.00D-09  THRPROD=  1.00D-09
                         THRSW=  1.00D-05  THROV=  1.00D-12  THRAOF12= 1.00D-10

 CPU time for Fock operators                      8.03 sec

 Construction of ABS:
 Smallest eigenvalue of S          2.24E-04  (threshold= 1.00E-08)
 Ratio eigmin/eigmax               3.90E-05  (threshold= 1.00E-09)
 Smallest eigenvalue of S kept     2.24E-04  (threshold= 2.24E-04, 0 functions deleted, 730 kept)

 Construction of CABS:
 Smallest eigenvalue of S          8.34E-09  (threshold= 1.00E-08)
 Ratio eigmin/eigmax               8.34E-09  (threshold= 1.00E-09)
 Smallest eigenvalue of S kept     7.34E-08  (threshold= 7.34E-08, 1 functions deleted, 729 kept)

 CPU time for CABS singles                        1.10 sec

 CABS-singles contribution of  -0.00007876 patched into reference energy.
 New reference energy        -116.28002802

 AO(A)-basis ORBITAL           loaded. Number of functions:     734
 RI(R)-basis RI                loaded. Number of functions:     730
 DF-basis MP2FIT               loaded. Number of functions:    1246

 Screening thresholds:   THRAO=  1.00D-10  THRMO=  1.00D-09  THRPROD=  1.00D-09
                         THRSW=  1.00D-05  THROV=  1.00D-12  THRAOF12= 1.00D-10

 CPU time for 3-index integral evaluation        22.62 sec
 CPU time for first  half transformation          4.37 sec ( 6731.6 MFLOP/sec)
 CPU time for second half transformation          0.14 sec ( 1748.2 MFLOP/sec)
 CPU time for sorting                             0.28 sec
 CPU time for fitting                             0.24 sec (38657.6 MFLOP/sec)
 CPU time for tilde quantities                    0.35 sec (39354.1 MFLOP/sec)
 CPU time for assembly                            2.63 sec (46888.5 MFLOP/sec)
 CPU time for tranop_f12                          3.55 sec (46194.6 MFLOP/sec)
 CPU time for f12 integrals (total)              39.35 sec, Elapsed time:     43.78 sec
 F12-matrices built in  4 passes.
 F12-matrices built in  4 passes.
 F12-matrices built in  4 passes.
 F12-matrices built in  4 passes.
 FC-matrix built in  4 passes.
 CPU time for f12 matrices (total)                3.25 sec, Elapsed time:      3.48 sec

 Diagonal F12 approximation with fixed coefficients:  TSING= 0.500,  TTRIP= 0.250 (scaled by -1/beta)

 DF-MP2-F12 energy corrections:
 ==============================
 Approx.                                    Singlet             Triplet             Total
 DF-MP2-F12/3*C(DX,FIX)                -0.011197278993     -0.000786403851     -0.011983682843
 DF-MP2-F12/3*C(FIX)                   -0.010388070996     -0.000515470260     -0.010903541257
 DF-MP2-F12/3C(FIX)                    -0.010501429859     -0.000530875602     -0.011032305461

 DF-MP2-F12 correlation energies:
 ================================
 Approx.                                    Singlet             Triplet             Ecorr            Total Energy
 DF-MP2                                -0.350549152442     -0.159805237142     -0.510354389584   -116.790382411635
 DF-MP2-F12/3*C(DX,FIX)                -0.361746431434     -0.160591640993     -0.522338072427   -116.802366094478
 DF-MP2-F12/3*C(FIX)                   -0.360937223438     -0.160320707403     -0.521257930841   -116.801285952892
 DF-MP2-F12/3C(FIX)                    -0.361050582301     -0.160336112744     -0.521386695045   -116.801414717096

 SCS-DF-MP2 energies (F_SING= 1.20000  F_TRIP= 0.62222  F_PARALLEL= 0.33333):
 ============================================================================
 SCS-DF-MP2                            -0.520093352707   -116.800121374758
 SCS-DF-MP2-F12/3*C(DX,FIX)            -0.534019405450   -116.814047427501
 SCS-DF-MP2-F12/3*C(FIX)               -0.532879774954   -116.812907797005
 SCS-DF-MP2-F12/3C(FIX)                -0.533025391135   -116.813053413186
 Symmetry transformation completed.

 Number of N-1 electron functions:               8
 Number of N-2 electron functions:              36
 Number of singly external CSFs:              5792
 Number of doubly external CSFs:          16776528
 Total number of CSFs:                    16782321

 Pair and operator lists are different

 Length of J-op  integral file:               1.47 GB
 Length of K-op  integral file:               2.18 GB
 Length of 3-ext integral record:             0.00 MB

 For full I/O caching in triples, increase memory by 34.16 Mwords to 4034.21 Mwords.

 Integral transformation finished. Total CPU: 906.44 sec, npass=  1  Memory used:1826.21 MW

 Reference energy:                   -116.28002802

 Adding F12 terms to K(Cij), methodcc=6,  factor= 1.0

 ITER.      SQ.NORM     CORR.ENERGY   TOTAL ENERGY   ENERGY CHANGE        DEN1      VAR(S)    VAR(P)  DIIS     TIME  TIME/IT
   1      1.13466087    -0.52225270  -116.80228072    -0.01188545     0.00011329  0.14D-02  0.20D-02  1  1  1193.55   249.24
   2      1.14296825    -0.52329845  -116.80332647    -0.00104575    -0.01026570  0.33D-04  0.25D-03  2  2  1396.81   234.74
   3      1.14622958    -0.52346601  -116.80349403    -0.00016756    -0.00236099  0.11D-04  0.14D-04  3  3  1595.16   228.85
   4      1.14719963    -0.52347167  -116.80349970    -0.00000566    -0.00053541  0.69D-06  0.13D-05  4  4  1811.81   230.99
   5      1.14736919    -0.52347363  -116.80350165    -0.00000196    -0.00004236  0.20D-06  0.94D-07  5  5  2027.67   232.12
   6      1.14741524    -0.52347091  -116.80349893     0.00000272    -0.00000814  0.23D-07  0.81D-08  6  6  2228.88   229.90
   7      1.14742614    -0.52346970  -116.80349772     0.00000121    -0.00000271  0.23D-08  0.10D-08  6  2  2435.32   229.07
   8      1.14742898    -0.52346947  -116.80349749     0.00000023    -0.00000036  0.32D-09  0.99D-10  6  1  2650.79   229.65
   9      1.14742985    -0.52346944  -116.80349746     0.00000003    -0.00000003  0.26D-10  0.16D-10  6  3  2886.79   232.68
  10      1.14742998    -0.52346944  -116.80349747    -0.00000001     0.00000010  0.26D-11  0.18D-11  6  4  3097.51   232.54
  11      1.14742995    -0.52346945  -116.80349747    -0.00000001     0.00000008  0.40D-12  0.24D-12  6  5  3324.01   233.85
  12      1.14742992    -0.52346945  -116.80349747    -0.00000000     0.00000002  0.87D-13  0.33D-13  6  6  3542.41   234.16
  13      1.14742990    -0.52346945  -116.80349747    -0.00000000     0.00000001  0.18D-13  0.45D-14  6  2  3757.09   234.22
  14      1.14742990    -0.52346945  -116.80349747    -0.00000000     0.00000000  0.30D-14  0.98D-15  6  1  3997.91   236.25
  15      1.14742989    -0.52346945  -116.80349747    -0.00000000    -0.00000000  0.41D-15  0.16D-15  6  3  4214.53   236.29
  16      1.14742989    -0.52346945  -116.80349747    -0.00000000    -0.00000000  0.85D-16  0.31D-16  6  4  4441.48   236.92
  17      1.14742989    -0.52346945  -116.80349747    -0.00000000    -0.00000000  0.28D-16  0.87D-17  6  5  4653.30   236.63

 Norm of t1 vector:      0.04971739      S-energy:    -0.00000000      T1 diagnostic:  0.00878888
                                                                       D1 diagnostic:  0.01919439

 Adding energy correction from Wij-K(Fij), methodcc=6  factor= 1.0

  CCSD correlation energy              -0.523469452832
  MP2-F12 correction (uncoupled)       -0.010850194450
  C*T doubles correction               -0.000161708693
  f12b correction                       0.002686371176

   CPU time for triples:   2358.17 sec for i =  1 -  7 /  8 (~  68.8 % done)
   CPU time for triples:   1164.99 sec for i =  8 -  8 /  8 (  100.0 % done)

 Total CPU time for triples:   3524.40 sec

  Ecorr(MP2)                           -0.510367253126
  Ecorr(MP2-F12)                       -0.521399558587
  Scale factor for triples energy       1.021616405429


 RESULTS
 =======

  Reference energy                   -116.279949259887
  F12 singles correction               -0.000078762164

 F12 singles corrections added to reference energy

  New reference energy               -116.280028022051

  F12a singlet correction              -0.010440439532
  F12a triplet correction              -0.000571463612
  F12a total correction                -0.011011903144

 F12a corrections for ansatz F12/3C(FIX) added to CCSD energy

  CCSD-F12a singlet pair energy        -0.387947059934
  CCSD-F12a triplet pair energy        -0.146534295760
  CCSD-F12a correlation energy         -0.534481355976

  Triples (T) contribution (scaled)    -0.017347264297
  Total correlation energy             -0.551828620273

  CCSD-F12a total energy             -116.814509378027
  CCSD[T]-F12a energy                -116.832417596136
  CCSD-T-F12a energy                 -116.831645067994
 !CCSD(T)-F12a total energy          -116.831856642324

 F12b corrections for ansatz F12/3C(FIX) added to CCSD(T)-F12a energy

  CCSD-F12b singlet pair energy        -0.385353428347
  CCSD-F12b triplet pair energy        -0.146441556172
  CCSD-F12b correlation energy         -0.531794984800

  Triples (T) contribution (scaled)    -0.017347264297
  Total correlation energy             -0.549142249097

  CCSD-F12b total energy             -116.811823006851
  CCSD[T]-F12b energy                -116.829731224960
  CCSD-T-F12b energy                 -116.828958696819
 !CCSD(T)-F12b total energy          -116.829170271148

 Timing summary (sec):

 STEP                 CPU(USER)    SYS     CPU(TOT)    WALL
 Transformation        907.78     51.28    959.06    962.65
 CCSD iterations      3690.92    318.12   4009.04   4023.30
 Triples              3524.40     27.98   3552.38   3564.74
 MP2-F12                54.82      5.27     60.09     60.69
 F12b energy           202.11     14.21    216.32    217.03

 Program statistics:

 Available memory in ccsd:              3999999554
 Min. memory needed in ccsd:              48689265
 Max. memory used in ccsd:                63255345
 Max. memory used in cckext:              42753482 (18 integral passes)



 **********************************************************************************************************************************
 DATASETS  * FILE   NREC   LENGTH (MB)   RECORD NAMES
              1      19    12452.16       500      610      700      900      950      970     1000      129      960     1100   
                                          VAR    BASINP    GEOM    SYMINP    ZMAT    AOBASIS   BASIS     P2S    ABASIS      S 
                                         1400     1410     1200     1210     1080     1600     1650     1700     1380   
                                           T        V       H0       H01     AOSYM     SMH    MOLCAS    OPER     JKOP   

              2       6       24.60       700     1000      520     2100     7360     7350   
                                         GEOM     BASIS   MCVARS     RHF    F12ABS    EF12   

 PROGRAMS   *        TOTAL   CCSD(T)    HF-SCF       INT
 CPU TIMES  *     11024.45   8380.31   1476.16   1167.77
 REAL TIME  *     11964.76 SEC
 DISK USED  *        14.29 GB (local),      514.32 GB (total)
 SF USED    *        17.68 GB
 GA USED    *         4.87 MB       (max)       0.00 MB       (current)
 **********************************************************************************************************************************

 Running procedure: SET_MONOMER1

 Dummy atoms: C1  H41  H42  H43  H44


 Recomputing one-electron integrals since nuclear charges changed


 PROGRAM * SEWARD (Integral evaluation for generally contracted gaussian basis sets)     Author: Roland Lindh, 1990

 Geometry written to block  1 of record 700


 Point group  C1  



 ATOMIC COORDINATES

 NR  ATOM    CHARGE       X              Y              Z

   1  O2      8.00   -0.132091856   -0.427456049    5.428616238
   2  H3      1.00    1.200731980   -1.541827545    5.988353116
   3  H4      1.00   -1.735713445   -1.363059454    5.806183518
   4  C1      0.00   -6.193010455    2.801518980    2.403542658
   5  H41     0.00   -4.656285171    1.699997622    3.119937832
   6  H42     0.00   -5.973046335    4.726205038    2.982932688
   7  H43     0.00   -7.940251230    2.077186956    3.118237078
   8  H44     0.00   -6.176569838    2.685300823    0.384937212

 Bond lengths in Bohr (Angstrom)

 1-2  1.825253018  1-3  1.894601009  4-5  2.021904040  4-6  2.022002335  4-7  2.021953343
     ( 0.965882301)     ( 1.002579678)     ( 1.069945541)     ( 1.069997556)     ( 1.069971630)

 4-8  2.022015060
     ( 1.070004290)

 Bond angles

  2-1-3  104.80057086   5-4-6  109.53398059   5-4-7  109.65604535   5-4-8  108.43490854

  6-4-7  109.49436728   6-4-8  109.86987750   7-4-8  109.83468330

 NUCLEAR CHARGE:                   10
 NUMBER OF PRIMITIVE AOS:        1046
 NUMBER OF SYMMETRY AOS:          786
 NUMBER OF CONTRACTIONS:          734   (  734A   )
 NUMBER OF CORE ORBITALS:           1   (    1A   )
 NUMBER OF VALENCE ORBITALS:        6   (    6A   )

 MOLECULE CHANGED: INITIALIZING OCCUPATION AND DUMP RECORDS


 NUCLEAR REPULSION ENERGY    8.94474756

 Basis set:  JKFIT                   
 Basis size:  1104
 Attributes:
 Sphericals:   T
 Basis set:  MP2FIT                  
 Basis size:  1246
 Attributes:
 Sphericals:   T
 Basis set:  RI                      
 Basis size:   730
 Attributes:
 Sphericals:   T
 Basis set:  TDDFT                   
 Basis size:  1246
 Attributes:
 Sphericals:   T

 Eigenvalues of metric

         1 0.106E-05 0.206E-05 0.316E-05 0.466E-05 0.486E-05 0.663E-05 0.878E-05 0.902E-05


 Contracted 2-electron integrals neglected if value below      1.0D-14

 OPERATOR DM      FOR CENTER  0  COORDINATES:    0.000000    0.000000    0.000000


 **********************************************************************************************************************************
 DATASETS  * FILE   NREC   LENGTH (MB)   RECORD NAMES
              1      18       49.80       500      610      700      900      950      970     1000      129      960     1100   
                                          VAR    BASINP    GEOM    SYMINP    ZMAT    AOBASIS   BASIS     P2S    ABASIS      S 
                                         1400     1410     1200     1210     1080     1600     1650     1700   
                                           T        V       H0       H01     AOSYM     SMH    MOLCAS    OPER   

              2       7       24.62       700     1000      520     2100     7360     7350      200   
                                         GEOM     BASIS   MCVARS     RHF    F12ABS    EF12    OPTIONS    

 PROGRAMS   *        TOTAL       INT   CCSD(T)    HF-SCF       INT
 CPU TIMES  *     11025.07      0.62   8380.31   1476.16   1167.77
 REAL TIME  *     11968.20 SEC
 DISK USED  *        14.29 GB (local),      514.32 GB (total)
 SF USED    *        17.68 GB
 GA USED    *         4.87 MB       (max)       0.00 MB       (current)
 **********************************************************************************************************************************


 PROGRAM * RHF-SCF (CLOSED SHELL)       Authors: W. Meyer, H.-J. Werner


 NUMBER OF ELECTRONS:       5+    5-    SPACE SYMMETRY=1    SPIN SYMMETRY: Singlet 
 CONVERGENCE THRESHOLDS:    1.00E-08 (Density)    1.00E-11 (Energy)
 MAX. NUMBER OF ITERATIONS:       60
 INTERPOLATION TYPE:            DIIS
 INTERPOLATION STEPS:              2 (START)      1 (STEP)
 LEVEL SHIFTS:                  0.00 (CLOSED)  0.00 (OPEN) 



 Orbital guess generated from atomic densities. Full valence occupancy:    7

 Molecular orbital dump at record        2101.2

 Initial occupancy:   5

 ITERATION    DDIFF          GRAD             ENERGY        2-EL.EN.            DIPOLE MOMENTS         DIIS   ORB.
    1      0.000D+00      0.000D+00       -76.02451205     77.342084   -0.15113   -1.05020    0.47976    0    start
    2      0.000D+00      0.361D-02       -76.05141550     73.655231   -0.07564   -0.60569    0.27710    1    diag
    3      0.132D-02      0.231D-02       -76.06327400     75.298644   -0.09216   -0.71723    0.32803    2    diag
    4      0.501D-03      0.217D-03       -76.06347466     75.206648   -0.08923   -0.71258    0.32599    3    diag
    5      0.644D-04      0.617D-04       -76.06349723     75.221563   -0.08802   -0.71087    0.32524    4    diag
    6      0.213D-04      0.126D-04       -76.06349877     75.220407   -0.08764   -0.71046    0.32506    5    diag
    7      0.582D-05      0.261D-05       -76.06349885     75.220553   -0.08754   -0.71033    0.32500    6    diag
    8      0.158D-05      0.481D-06       -76.06349885     75.220539   -0.08752   -0.71029    0.32499    7    diag
    9      0.317D-06      0.668D-07       -76.06349885     75.220530   -0.08752   -0.71029    0.32498    8    diag
   10      0.529D-07      0.157D-07       -76.06349885     75.220532   -0.08752   -0.71029    0.32498    9    orth
   11      0.118D-07      0.372D-08       -76.06349885     75.220532   -0.08752   -0.71029    0.32498    9    diag
   12      0.233D-08      0.726D-09       -76.06349885     75.220532   -0.08752   -0.71029    0.32498    0    orth

 Final occupancy:   5

 !RHF STATE  1.1 Energy               -76.063498850830
 Nuclear energy                         8.94474756
 One-electron energy                 -122.61851240
 Two-electron energy                   37.61026599
 Virial quotient                       -1.00216251
 !RHF STATE  1.1 Dipole moment         -0.08752217    -0.71028685     0.32498459
 Dipole moment /Debye                  -0.22244460    -1.80525085     0.82597434

 Orbital energies:

         1.1          2.1          3.1          4.1          5.1          6.1          7.1
    -20.568453    -1.339228    -0.703882    -0.579114    -0.508312     0.017078     0.029633


 HOMO      5.1    -0.508312 =     -13.8319eV
 LUMO      6.1     0.017078 =       0.4647eV
 LUMO-HOMO         0.525390 =      14.2966eV


 **********************************************************************************************************************************
 DATASETS  * FILE   NREC   LENGTH (MB)   RECORD NAMES
              1      18       49.80       500      610      700      900      950      970     1000      129      960     1100   
                                          VAR    BASINP    GEOM    SYMINP    ZMAT    AOBASIS   BASIS     P2S    ABASIS      S 
                                         1400     1410     1200     1210     1080     1600     1650     1700   
                                           T        V       H0       H01     AOSYM     SMH    MOLCAS    OPER   

              2       8       38.40       700     1000      520     2100     7360     7350      200     2101   
                                         GEOM     BASIS   MCVARS     RHF    F12ABS    EF12    OPTIONS    RHF  

 PROGRAMS   *        TOTAL    HF-SCF       INT   CCSD(T)    HF-SCF       INT
 CPU TIMES  *     12449.19   1424.12      0.62   8380.31   1476.16   1167.77
 REAL TIME  *     13591.46 SEC
 DISK USED  *        14.29 GB (local),      514.32 GB (total)
 SF USED    *        17.68 GB
 GA USED    *         4.87 MB       (max)       0.00 MB       (current)
 **********************************************************************************************************************************

 Basis set:  JKFIT                   
 Basis size:  1104
 Attributes:
 Sphericals:   T
 Basis set:  MP2FIT                  
 Basis size:  1246
 Attributes:
 Sphericals:   T
 Basis set:  RI                      
 Basis size:   730
 Attributes:
 Sphericals:   T
 Basis set:  TDDFT                   
 Basis size:  1246
 Attributes:
 Sphericals:   T

 PROGRAM * CCSD (Closed-shell coupled cluster)     Authors: C. Hampel, H.-J. Werner, 1991, M. Deegan, P.J. Knowles, 1992

                                  CCSD-F12 implementation by  H.-J. Werner, 2007

                   Density fitting integral evaluation by F.R. Manby, 2003,2007, G. Knizia, 2010



 Convergence thresholds:  THRVAR = 1.00D-08  THRDEN = 1.00D-10

 CCSD(T)     terms to be evaluated (factor= 1.000)


 Number of core orbitals:           1 (   1 )
 Number of closed-shell orbitals:   4 (   4 )
 Number of external orbitals:     729 ( 729 )

 Molecular orbitals read from record     2101.2  Type=RHF/CANONICAL (state 1.1)

 MP2-F12 correlation treatment (H.-J. Werner, 2006)
 ==================================================

 Using MP2-F12 with ansatz 3C(FIX)

 Using projected zeroth-order Hamiltonian (+Z)

 FOCKRIB=T FOCKRIC=T FOCKRIP=T CABSP=T CABSA=T CABSK=T CABSF=T GBC=F EBC=F DMAT=T NOFIK=T NOPAO=1 SOLVE=-1  USEPAO=0
 EXCH_A= T EXCH_B= F EXCH_C= F EXCH_P= F

 Geminal basis:    OPTFULL  GEM_TYPE=SLATER  BETA=1.0  NGEM=6

 Optimizing Gaussian exponents for each gem_beta

 Geminal optimization for beta= 1.0000
 Weight function:   m=0, omega= 1.4646

 Augmented Hessian optimization of geminal fit. Trust ratio= 0.40000
 Convergence reached after   2 iterations. Final gradient= 8.53D-16, Step= 4.26D-06, Delta= 1.28D-09

 Alpha:                 0.19532     0.81920     2.85917     9.50073    35.69989   197.79328
 Coeff:                 0.27070     0.30552     0.18297     0.10986     0.06810     0.04224


 All pairs explicitly correlated. Number of r12-pairs:           10

 Excluding core orbitals from MO domains

 AO(A)-basis ORBITAL           loaded. Number of functions:     734
 RI(R)-basis RI                loaded. Number of functions:     730
 DF-basis JKFIT                loaded. Number of functions:    1104

 Screening thresholds:   THRAO=  1.00D-10  THRMO=  1.00D-09  THRPROD=  1.00D-09
                         THRSW=  1.00D-05  THROV=  1.00D-12  THRAOF12= 1.00D-10

 CPU time for Fock operators                      7.92 sec

 Construction of ABS:
 Smallest eigenvalue of S          2.24E-04  (threshold= 1.00E-08)
 Ratio eigmin/eigmax               3.90E-05  (threshold= 1.00E-09)
 Smallest eigenvalue of S kept     2.24E-04  (threshold= 2.24E-04, 0 functions deleted, 730 kept)

 Construction of CABS:
 Smallest eigenvalue of S          8.34E-09  (threshold= 1.00E-08)
 Ratio eigmin/eigmax               8.34E-09  (threshold= 1.00E-09)
 Smallest eigenvalue of S kept     7.34E-08  (threshold= 7.34E-08, 1 functions deleted, 729 kept)

 CPU time for CABS singles                        0.86 sec

 CABS-singles contribution of  -0.00003800 patched into reference energy.
 New reference energy         -76.06353685

 AO(A)-basis ORBITAL           loaded. Number of functions:     734
 RI(R)-basis RI                loaded. Number of functions:     730
 DF-basis MP2FIT               loaded. Number of functions:    1246

 Screening thresholds:   THRAO=  1.00D-10  THRMO=  1.00D-09  THRPROD=  1.00D-09
                         THRSW=  1.00D-05  THROV=  1.00D-12  THRAOF12= 1.00D-10

 CPU time for 3-index integral evaluation        21.80 sec
 CPU time for first  half transformation          3.69 sec ( 3917.5 MFLOP/sec)
 CPU time for second half transformation          0.05 sec ( 1253.7 MFLOP/sec)
 CPU time for sorting                             0.13 sec
 CPU time for fitting                             0.18 sec (50939.8 MFLOP/sec)
 CPU time for tilde quantities                    0.28 sec (48970.8 MFLOP/sec)
 CPU time for assembly                            0.74 sec (47025.5 MFLOP/sec)
 CPU time for tranop_f12                          0.93 sec (42511.5 MFLOP/sec)
 CPU time for f12 integrals (total)              29.63 sec, Elapsed time:     31.26 sec
 F12-matrices built in  4 passes.
 F12-matrices built in  4 passes.
 F12-matrices built in  4 passes.
 F12-matrices built in  4 passes.
 FC-matrix built in  4 passes.
 CPU time for f12 matrices (total)                0.90 sec, Elapsed time:      0.95 sec

 Diagonal F12 approximation with fixed coefficients:  TSING= 0.500,  TTRIP= 0.250 (scaled by -1/beta)

 DF-MP2-F12 energy corrections:
 ==============================
 Approx.                                    Singlet             Triplet             Total
 DF-MP2-F12/3*C(DX,FIX)                -0.007260560359     -0.000572281597     -0.007832841956
 DF-MP2-F12/3*C(FIX)                   -0.006614607609     -0.000353302633     -0.006967910242
 DF-MP2-F12/3C(FIX)                    -0.006681128737     -0.000365447092     -0.007046575829

 DF-MP2-F12 correlation energies:
 ================================
 Approx.                                    Singlet             Triplet             Ecorr            Total Energy
 DF-MP2                                -0.192498312376     -0.102446349241     -0.294944661616    -76.358481513235
 DF-MP2-F12/3*C(DX,FIX)                -0.199758872735     -0.103018630838     -0.302777503573    -76.366314355192
 DF-MP2-F12/3*C(FIX)                   -0.199112919985     -0.102799651874     -0.301912571859    -76.365449423478
 DF-MP2-F12/3C(FIX)                    -0.199179441113     -0.102811796333     -0.301991237446    -76.365528089065

 SCS-DF-MP2 energies (F_SING= 1.20000  F_TRIP= 0.62222  F_PARALLEL= 0.33333):
 ============================================================================
 SCS-DF-MP2                            -0.294742369934    -76.358279221553
 SCS-DF-MP2-F12/3*C(DX,FIX)            -0.303811128692    -76.367347980311
 SCS-DF-MP2-F12/3*C(FIX)               -0.302899731814    -76.366436583433
 SCS-DF-MP2-F12/3C(FIX)                -0.302987113720    -76.366523965339
 Symmetry transformation completed.

 Number of N-1 electron functions:               4
 Number of N-2 electron functions:              10
 Number of singly external CSFs:              2916
 Number of doubly external CSFs:           4252986
 Total number of CSFs:                     4255903

 Pair and operator lists are different

 Length of J-op  integral file:             411.24 MB
 Length of K-op  integral file:             721.80 MB
 Length of 3-ext integral record:             0.00 MB

 Memory could be reduced to 2535.14 Mwords without degradation in triples

 Integral transformation finished. Total CPU: 470.51 sec, npass=  1  Memory used:1009.99 MW

 Reference energy:                    -76.06353685

 Adding F12 terms to K(Cij), methodcc=6,  factor= 1.0

 ITER.      SQ.NORM     CORR.ENERGY   TOTAL ENERGY   ENERGY CHANGE        DEN1      VAR(S)    VAR(P)  DIIS     TIME  TIME/IT
   1      1.06408689    -0.29332304   -76.35685990     0.00162783     0.00777330  0.80D-03  0.11D-02  1  1   636.10   142.04
   2      1.06768382    -0.29341934   -76.35695619    -0.00009630    -0.00504291  0.16D-04  0.12D-03  2  2   764.22   143.06
   3      1.06906360    -0.29351584   -76.35705269    -0.00009650    -0.00097003  0.85D-05  0.75D-05  3  3   877.26   138.77
   4      1.06959646    -0.29352170   -76.35705855    -0.00000586    -0.00028830  0.54D-06  0.75D-06  4  4   999.39   139.11
   5      1.06970371    -0.29352046   -76.35705731     0.00000125    -0.00003133  0.17D-06  0.55D-07  5  5  1115.82   138.06
   6      1.06973895    -0.29351815   -76.35705500     0.00000231    -0.00000609  0.18D-07  0.45D-08  6  6  1228.82   136.63
   7      1.06974742    -0.29351761   -76.35705446     0.00000054    -0.00000130  0.13D-08  0.69D-09  6  2  1344.97   136.03
   8      1.06974925    -0.29351750   -76.35705435     0.00000011    -0.00000001  0.18D-09  0.70D-10  6  1  1461.64   135.76
   9      1.06974986    -0.29351746   -76.35705431     0.00000003     0.00000000  0.14D-10  0.85D-11  6  3  1573.18   135.01
  10      1.06974997    -0.29351746   -76.35705431     0.00000001     0.00000004  0.19D-11  0.90D-12  6  4  1687.38   134.50
  11      1.06974996    -0.29351746   -76.35705431    -0.00000000     0.00000003  0.38D-12  0.14D-12  6  5  1808.30   134.78
  12      1.06974995    -0.29351746   -76.35705431    -0.00000000     0.00000001  0.80D-13  0.21D-13  6  6  1921.95   134.43
  13      1.06974994    -0.29351746   -76.35705431    -0.00000000     0.00000000  0.12D-13  0.33D-14  6  2  2044.64   134.86
  14      1.06974993    -0.29351746   -76.35705431    -0.00000000     0.00000000  0.15D-14  0.70D-15  6  1  2159.90   134.74
  15      1.06974993    -0.29351746   -76.35705431    -0.00000000    -0.00000000  0.16D-15  0.98D-16  6  3  2276.08   134.71
  16      1.06974993    -0.29351746   -76.35705431    -0.00000000    -0.00000000  0.20D-16  0.13D-16  6  4  2395.41   134.66

 Norm of t1 vector:      0.03718522      S-energy:    -0.00000000      T1 diagnostic:  0.00929631
                                                                       D1 diagnostic:  0.01897082

 Adding energy correction from Wij-K(Fij), methodcc=6  factor= 1.0

  CCSD correlation energy              -0.293517461955
  MP2-F12 correction (uncoupled)       -0.006961601457
  C*T doubles correction               -0.000092796188
  f12b correction                       0.001584295146


 Total CPU time for triples:    579.46 sec

  Ecorr(MP2)                           -0.294950877146
  Ecorr(MP2-F12)                       -0.301997452975
  Scale factor for triples energy       1.023890675958


 RESULTS
 =======

  Reference energy                    -76.063498850833
  F12 singles correction               -0.000038000786

 F12 singles corrections added to reference energy

  New reference energy                -76.063536851619

  F12a singlet correction              -0.006655464516
  F12a triplet correction              -0.000398933128
  F12a total correction                -0.007054397645

 F12a corrections for ansatz F12/3C(FIX) added to CCSD energy

  CCSD-F12a singlet pair energy        -0.209747643338
  CCSD-F12a triplet pair energy        -0.090824216190
  CCSD-F12a correlation energy         -0.300571859599

  Triples (T) contribution (scaled)    -0.010116527448
  Total correlation energy             -0.310688387048

  CCSD-F12a total energy              -76.364108711218
  CCSD[T]-F12a energy                 -76.374548962071
  CCSD-T-F12a energy                  -76.374082976764
 !CCSD(T)-F12a total energy           -76.374225238667

 F12b corrections for ansatz F12/3C(FIX) added to CCSD(T)-F12a energy

  CCSD-F12b singlet pair energy        -0.208226661609
  CCSD-F12b triplet pair energy        -0.090760902773
  CCSD-F12b correlation energy         -0.298987564454

  Triples (T) contribution (scaled)    -0.010116527448
  Total correlation energy             -0.309104091902

  CCSD-F12b total energy              -76.362524416073
  CCSD[T]-F12b energy                 -76.372964666925
  CCSD-T-F12b energy                  -76.372498681618
 !CCSD(T)-F12b total energy           -76.372640943521

 Timing summary (sec):

 STEP                 CPU(USER)    SYS     CPU(TOT)    WALL
 Transformation        470.92     29.18    500.10    501.77
 CCSD iterations      1883.76    263.75   2147.51   2154.93
 Triples               579.46      7.83    587.29    589.32
 MP2-F12                40.90      2.02     42.92     43.11
 F12b energy           109.27     14.77    124.04    124.44

 Program statistics:

 Available memory in ccsd:              3999999871
 Min. memory needed in ccsd:              19260852
 Max. memory used in ccsd:                22423154
 Max. memory used in cckext:              14628952 (17 integral passes)



 **********************************************************************************************************************************
 DATASETS  * FILE   NREC   LENGTH (MB)   RECORD NAMES
              1      19     6330.34       500      610      700      900      950      970     1000      129      960     1100   
                                          VAR    BASINP    GEOM    SYMINP    ZMAT    AOBASIS   BASIS     P2S    ABASIS      S 
                                         1400     1410     1200     1210     1080     1600     1650     1700     1380   
                                           T        V       H0       H01     AOSYM     SMH    MOLCAS    OPER     JKOP   

              2       8       38.40       700     1000      520     2100     7360     7350      200     2101   
                                         GEOM     BASIS   MCVARS     RHF    F12ABS    EF12    OPTIONS    RHF  

 PROGRAMS   *        TOTAL   CCSD(T)    HF-SCF       INT   CCSD(T)    HF-SCF       INT
 CPU TIMES  *     15533.81   3084.62   1424.12      0.62   8380.31   1476.16   1167.77
 REAL TIME  *     17007.08 SEC
 DISK USED  *        14.29 GB (local),      514.32 GB (total)
 SF USED    *        17.68 GB
 GA USED    *         4.87 MB       (max)       0.00 MB       (current)
 **********************************************************************************************************************************

 Running procedure: SET_MONOMER2

 Dummy atoms: O2  H3  H4


 Recomputing one-electron integrals since nuclear charges changed


 PROGRAM * SEWARD (Integral evaluation for generally contracted gaussian basis sets)     Author: Roland Lindh, 1990

 Geometry written to block  1 of record 700


 Point group  C1  



 ATOMIC COORDINATES

 NR  ATOM    CHARGE       X              Y              Z

   1  O2      0.00   -0.132091856   -0.427456049    5.428616238
   2  H3      0.00    1.200731980   -1.541827545    5.988353116
   3  H4      0.00   -1.735713445   -1.363059454    5.806183518
   4  C1      6.00   -6.193010455    2.801518980    2.403542658
   5  H41     1.00   -4.656285171    1.699997622    3.119937832
   6  H42     1.00   -5.973046335    4.726205038    2.982932688
   7  H43     1.00   -7.940251230    2.077186956    3.118237078
   8  H44     1.00   -6.176569838    2.685300823    0.384937212

 Bond lengths in Bohr (Angstrom)

 1-2  1.825253018  1-3  1.894601009  4-5  2.021904040  4-6  2.022002335  4-7  2.021953343
     ( 0.965882301)     ( 1.002579678)     ( 1.069945541)     ( 1.069997556)     ( 1.069971630)

 4-8  2.022015060
     ( 1.070004290)

 Bond angles

  2-1-3  104.80057086   5-4-6  109.53398059   5-4-7  109.65604535   5-4-8  108.43490854

  6-4-7  109.49436728   6-4-8  109.86987750   7-4-8  109.83468330

 NUCLEAR CHARGE:                   10
 NUMBER OF PRIMITIVE AOS:        1046
 NUMBER OF SYMMETRY AOS:          786
 NUMBER OF CONTRACTIONS:          734   (  734A   )
 NUMBER OF CORE ORBITALS:           1   (    1A   )
 NUMBER OF VALENCE ORBITALS:        8   (    8A   )

 MOLECULE CHANGED: INITIALIZING OCCUPATION AND DUMP RECORDS


 NUCLEAR REPULSION ENERGY   13.68681606

 Basis set:  JKFIT                   
 Basis size:  1104
 Attributes:
 Sphericals:   T
 Basis set:  MP2FIT                  
 Basis size:  1246
 Attributes:
 Sphericals:   T
 Basis set:  RI                      
 Basis size:   730
 Attributes:
 Sphericals:   T
 Basis set:  TDDFT                   
 Basis size:  1246
 Attributes:
 Sphericals:   T

 Eigenvalues of metric

         1 0.106E-05 0.206E-05 0.316E-05 0.466E-05 0.486E-05 0.663E-05 0.878E-05 0.902E-05


 Contracted 2-electron integrals neglected if value below      1.0D-14

 OPERATOR DM      FOR CENTER  0  COORDINATES:    0.000000    0.000000    0.000000


 **********************************************************************************************************************************
 DATASETS  * FILE   NREC   LENGTH (MB)   RECORD NAMES
              1      18       49.80       500      610      700      900      950      970     1000      129      960     1100   
                                          VAR    BASINP    GEOM    SYMINP    ZMAT    AOBASIS   BASIS     P2S    ABASIS      S 
                                         1400     1410     1200     1210     1080     1600     1650     1700   
                                           T        V       H0       H01     AOSYM     SMH    MOLCAS    OPER   

              2       8       38.40       700     1000      520     2100     7360     7350      200     2101   
                                         GEOM     BASIS   MCVARS     RHF    F12ABS    EF12    OPTIONS    RHF  

 PROGRAMS   *        TOTAL       INT   CCSD(T)    HF-SCF       INT   CCSD(T)    HF-SCF       INT
 CPU TIMES  *     15534.44      0.63   3084.62   1424.12      0.62   8380.31   1476.16   1167.77
 REAL TIME  *     17009.22 SEC
 DISK USED  *        14.29 GB (local),      514.32 GB (total)
 SF USED    *        17.68 GB
 GA USED    *         4.87 MB       (max)       0.00 MB       (current)
 **********************************************************************************************************************************


 PROGRAM * RHF-SCF (CLOSED SHELL)       Authors: W. Meyer, H.-J. Werner


 NUMBER OF ELECTRONS:       5+    5-    SPACE SYMMETRY=1    SPIN SYMMETRY: Singlet 
 CONVERGENCE THRESHOLDS:    1.00E-08 (Density)    1.00E-11 (Energy)
 MAX. NUMBER OF ITERATIONS:       60
 INTERPOLATION TYPE:            DIIS
 INTERPOLATION STEPS:              2 (START)      1 (STEP)
 LEVEL SHIFTS:                  0.00 (CLOSED)  0.00 (OPEN) 



 Orbital guess generated from atomic densities. Full valence occupancy:    9

 Molecular orbital dump at record        2102.2

 Initial occupancy:   5

 ITERATION    DDIFF          GRAD             ENERGY        2-EL.EN.            DIPOLE MOMENTS         DIIS   ORB.
    1      0.000D+00      0.000D+00       -40.19676553     53.509907    0.00410   -0.00276   -0.00131    0    start
    2      0.000D+00      0.198D-02       -40.21405772     52.218483    0.00128   -0.00087   -0.00039    1    diag
    3      0.953D-03      0.769D-03       -40.21634114     52.673989    0.00181   -0.00123   -0.00056    2    diag
    4      0.262D-03      0.192D-03       -40.21666146     52.619252    0.00161   -0.00110   -0.00049    3    diag
    5      0.103D-03      0.248D-04       -40.21666695     52.621410    0.00158   -0.00108   -0.00048    4    diag
    6      0.341D-04      0.204D-05       -40.21666699     52.621538    0.00158   -0.00108   -0.00048    5    diag
    7      0.563D-05      0.166D-06       -40.21666699     52.621500    0.00158   -0.00108   -0.00048    6    diag
    8      0.320D-06      0.136D-07       -40.21666699     52.621501    0.00158   -0.00108   -0.00048    7    diag
    9      0.576D-07      0.167D-08       -40.21666699     52.621501    0.00158   -0.00108   -0.00048    8    diag
   10      0.101D-07      0.465D-09       -40.21666699     52.621501    0.00158   -0.00108   -0.00048    9    orth
   11      0.108D-08      0.667D-10       -40.21666699     52.621501    0.00158   -0.00108   -0.00048    0    orth

 Final occupancy:   5

 !RHF STATE  1.1 Energy               -40.216666990394
 Nuclear energy                        13.68681606
 One-electron energy                  -80.21423347
 Two-electron energy                   26.31075042
 Virial quotient                       -0.99832810
 !RHF STATE  1.1 Dipole moment          0.00158073    -0.00107559    -0.00048103
 Dipole moment /Debye                   0.00401756    -0.00273371    -0.00122258

 Orbital energies:

         1.1          2.1          3.1          4.1          5.1          6.1          7.1
    -11.196017    -0.950605    -0.551931    -0.549996    -0.547818     0.020241     0.031629


 HOMO      5.1    -0.547818 =     -14.9069eV
 LUMO      6.1     0.020241 =       0.5508eV
 LUMO-HOMO         0.568058 =      15.4576eV


 **********************************************************************************************************************************
 DATASETS  * FILE   NREC   LENGTH (MB)   RECORD NAMES
              1      18       49.80       500      610      700      900      950      970     1000      129      960     1100   
                                          VAR    BASINP    GEOM    SYMINP    ZMAT    AOBASIS   BASIS     P2S    ABASIS      S 
                                         1400     1410     1200     1210     1080     1600     1650     1700   
                                           T        V       H0       H01     AOSYM     SMH    MOLCAS    OPER   

              2       9       62.49       700     1000      520     2100     7360     7350      200     2101     2102   
                                         GEOM     BASIS   MCVARS     RHF    F12ABS    EF12    OPTIONS    RHF      RHF  

 PROGRAMS   *        TOTAL    HF-SCF       INT   CCSD(T)    HF-SCF       INT   CCSD(T)    HF-SCF       INT
 CPU TIMES  *     16905.57   1371.13      0.63   3084.62   1424.12      0.62   8380.31   1476.16   1167.77
 REAL TIME  *     18570.99 SEC
 DISK USED  *        14.29 GB (local),      514.32 GB (total)
 SF USED    *        17.68 GB
 GA USED    *         4.87 MB       (max)       0.00 MB       (current)
 **********************************************************************************************************************************

 Basis set:  JKFIT                   
 Basis size:  1104
 Attributes:
 Sphericals:   T
 Basis set:  MP2FIT                  
 Basis size:  1246
 Attributes:
 Sphericals:   T
 Basis set:  RI                      
 Basis size:   730
 Attributes:
 Sphericals:   T
 Basis set:  TDDFT                   
 Basis size:  1246
 Attributes:
 Sphericals:   T

 PROGRAM * CCSD (Closed-shell coupled cluster)     Authors: C. Hampel, H.-J. Werner, 1991, M. Deegan, P.J. Knowles, 1992

                                  CCSD-F12 implementation by  H.-J. Werner, 2007

                   Density fitting integral evaluation by F.R. Manby, 2003,2007, G. Knizia, 2010



 Convergence thresholds:  THRVAR = 1.00D-08  THRDEN = 1.00D-10

 CCSD(T)     terms to be evaluated (factor= 1.000)


 Number of core orbitals:           1 (   1 )
 Number of closed-shell orbitals:   4 (   4 )
 Number of external orbitals:     729 ( 729 )

 Molecular orbitals read from record     2102.2  Type=RHF/CANONICAL (state 1.1)

 MP2-F12 correlation treatment (H.-J. Werner, 2006)
 ==================================================

 Using MP2-F12 with ansatz 3C(FIX)

 Using projected zeroth-order Hamiltonian (+Z)

 FOCKRIB=T FOCKRIC=T FOCKRIP=T CABSP=T CABSA=T CABSK=T CABSF=T GBC=F EBC=F DMAT=T NOFIK=T NOPAO=1 SOLVE=-1  USEPAO=0
 EXCH_A= T EXCH_B= F EXCH_C= F EXCH_P= F

 Geminal basis:    OPTFULL  GEM_TYPE=SLATER  BETA=1.0  NGEM=6

 Optimizing Gaussian exponents for each gem_beta

 Geminal optimization for beta= 1.0000
 Weight function:   m=0, omega= 1.4646

 Augmented Hessian optimization of geminal fit. Trust ratio= 0.40000
 Convergence reached after   2 iterations. Final gradient= 8.53D-16, Step= 4.26D-06, Delta= 1.28D-09

 Alpha:                 0.19532     0.81920     2.85917     9.50073    35.69989   197.79328
 Coeff:                 0.27070     0.30552     0.18297     0.10986     0.06810     0.04224


 All pairs explicitly correlated. Number of r12-pairs:           10

 Excluding core orbitals from MO domains

 AO(A)-basis ORBITAL           loaded. Number of functions:     734
 RI(R)-basis RI                loaded. Number of functions:     730
 DF-basis JKFIT                loaded. Number of functions:    1104

 Screening thresholds:   THRAO=  1.00D-10  THRMO=  1.00D-09  THRPROD=  1.00D-09
                         THRSW=  1.00D-05  THROV=  1.00D-12  THRAOF12= 1.00D-10

 CPU time for Fock operators                      8.39 sec

 Construction of ABS:
 Smallest eigenvalue of S          2.24E-04  (threshold= 1.00E-08)
 Ratio eigmin/eigmax               3.90E-05  (threshold= 1.00E-09)
 Smallest eigenvalue of S kept     2.24E-04  (threshold= 2.24E-04, 0 functions deleted, 730 kept)

 Construction of CABS:
 Smallest eigenvalue of S          8.33E-09  (threshold= 1.00E-08)
 Ratio eigmin/eigmax               8.33E-09  (threshold= 1.00E-09)
 Smallest eigenvalue of S kept     7.34E-08  (threshold= 7.34E-08, 1 functions deleted, 729 kept)

 CPU time for CABS singles                        0.94 sec

 CABS-singles contribution of  -0.00004069 patched into reference energy.
 New reference energy         -40.21670768

 AO(A)-basis ORBITAL           loaded. Number of functions:     734
 RI(R)-basis RI                loaded. Number of functions:     730
 DF-basis MP2FIT               loaded. Number of functions:    1246

 Screening thresholds:   THRAO=  1.00D-10  THRMO=  1.00D-09  THRPROD=  1.00D-09
                         THRSW=  1.00D-05  THROV=  1.00D-12  THRAOF12= 1.00D-10

 CPU time for 3-index integral evaluation        24.37 sec
 CPU time for first  half transformation          3.59 sec ( 4171.2 MFLOP/sec)
 CPU time for second half transformation          0.09 sec (  714.7 MFLOP/sec)
 CPU time for sorting                             0.16 sec
 CPU time for fitting                             0.20 sec (34295.1 MFLOP/sec)
 CPU time for tilde quantities                    0.31 sec (36869.8 MFLOP/sec)
 CPU time for assembly                            0.84 sec (44634.8 MFLOP/sec)
 CPU time for tranop_f12                          0.98 sec (41140.8 MFLOP/sec)
 CPU time for f12 integrals (total)              32.31 sec, Elapsed time:     33.94 sec
 F12-matrices built in  4 passes.
 F12-matrices built in  4 passes.
 F12-matrices built in  4 passes.
 F12-matrices built in  4 passes.
 FC-matrix built in  4 passes.
 CPU time for f12 matrices (total)                0.90 sec, Elapsed time:      0.95 sec

 Diagonal F12 approximation with fixed coefficients:  TSING= 0.500,  TTRIP= 0.250 (scaled by -1/beta)

 DF-MP2-F12 energy corrections:
 ==============================
 Approx.                                    Singlet             Triplet             Total
 DF-MP2-F12/3*C(DX,FIX)                -0.003931990328     -0.000212924654     -0.004144914982
 DF-MP2-F12/3*C(FIX)                   -0.003768860434     -0.000160825154     -0.003929685588
 DF-MP2-F12/3C(FIX)                    -0.003815473182     -0.000163851555     -0.003979324738

 DF-MP2-F12 correlation energies:
 ================================
 Approx.                                    Singlet             Triplet             Ecorr            Total Energy
 DF-MP2                                -0.157871844951     -0.056825109353     -0.214696954303    -40.431404638504
 DF-MP2-F12/3*C(DX,FIX)                -0.161803835279     -0.057038034007     -0.218841869286    -40.435549553486
 DF-MP2-F12/3*C(FIX)                   -0.161640705385     -0.056985934507     -0.218626639892    -40.435334324092
 DF-MP2-F12/3C(FIX)                    -0.161687318133     -0.056988960908     -0.218676279041    -40.435383963242

 SCS-DF-MP2 energies (F_SING= 1.20000  F_TRIP= 0.62222  F_PARALLEL= 0.33333):
 ============================================================================
 SCS-DF-MP2                            -0.224804059760    -40.441511743961
 SCS-DF-MP2-F12/3*C(DX,FIX)            -0.229654934606    -40.446362618806
 SCS-DF-MP2-F12/3*C(FIX)               -0.229426761266    -40.446134445467
 SCS-DF-MP2-F12/3C(FIX)                -0.229484579658    -40.446192263859
 Symmetry transformation completed.

 Number of N-1 electron functions:               4
 Number of N-2 electron functions:              10
 Number of singly external CSFs:              2916
 Number of doubly external CSFs:           4252986
 Total number of CSFs:                     4255903

 Pair and operator lists are different

 Length of J-op  integral file:             411.24 MB
 Length of K-op  integral file:             721.80 MB
 Length of 3-ext integral record:             0.00 MB

 Memory could be reduced to 2535.14 Mwords without degradation in triples

 Integral transformation finished. Total CPU: 513.03 sec, npass=  1  Memory used:1009.99 MW

 Reference energy:                    -40.21670768

 Adding F12 terms to K(Cij), methodcc=6,  factor= 1.0

 ITER.      SQ.NORM     CORR.ENERGY   TOTAL ENERGY   ENERGY CHANGE        DEN1      VAR(S)    VAR(P)  DIIS     TIME  TIME/IT
   1      1.07033696    -0.22827407   -40.44498175    -0.01357042    -0.00771608  0.62D-03  0.94D-03  1  1   678.68   133.65
   2      1.07515871    -0.22923144   -40.44593913    -0.00095738    -0.00531238  0.16D-04  0.11D-03  2  2   797.34   134.55
   3      1.07694858    -0.22929880   -40.44600648    -0.00006736    -0.00133798  0.22D-05  0.64D-05  3  3   911.21   132.16
   4      1.07735137    -0.22930123   -40.44600892    -0.00000243    -0.00021858  0.16D-06  0.39D-06  4  4  1028.46   132.55
   5      1.07740866    -0.22930480   -40.44601249    -0.00000357    -0.00000965  0.14D-07  0.24D-07  5  5  1145.24   132.50
   6      1.07741891    -0.22930346   -40.44601114     0.00000135    -0.00000404  0.89D-09  0.18D-08  6  6  1269.84   133.70
   7      1.07742043    -0.22930306   -40.44601075     0.00000039    -0.00000090  0.55D-10  0.13D-09  6  1  1383.28   133.03
   8      1.07742036    -0.22930312   -40.44601080    -0.00000006     0.00000024  0.61D-11  0.85D-11  6  3  1509.38   134.39
   9      1.07742050    -0.22930310   -40.44601079     0.00000002    -0.00000009  0.41D-12  0.59D-12  6  2  1617.56   133.23
  10      1.07742050    -0.22930310   -40.44601079     0.00000000     0.00000001  0.57D-13  0.63D-13  6  4  1730.99   132.90
  11      1.07742050    -0.22930310   -40.44601079     0.00000000    -0.00000000  0.58D-14  0.65D-14  6  5  1846.61   132.80
  12      1.07742050    -0.22930310   -40.44601078     0.00000000     0.00000000  0.17D-15  0.67D-15  6  6  1969.69   133.40
  13      1.07742050    -0.22930310   -40.44601078    -0.00000000     0.00000000  0.14D-16  0.76D-16  6  1  2076.09   132.66
  14      1.07742050    -0.22930310   -40.44601078    -0.00000000     0.00000000  0.24D-17  0.13D-16  6  3  2197.25   132.88

 Norm of t1 vector:      0.03268877      S-energy:     0.00000000      T1 diagnostic:  0.00817219
                                                                       D1 diagnostic:  0.01311228

 Adding energy correction from Wij-K(Fij), methodcc=6  factor= 1.0

  CCSD correlation energy              -0.229303100779
  MP2-F12 correction (uncoupled)       -0.003883248187
  C*T doubles correction               -0.000068338000
  f12b correction                       0.001099913483

 Total CPU time for triples:    532.03 sec

  Ecorr(MP2)                           -0.214703649866
  Ecorr(MP2-F12)                       -0.218682974604
  Scale factor for triples energy       1.018534033959


 RESULTS
 =======

  Reference energy                    -40.216666990393
  F12 singles correction               -0.000040693807

 F12 singles corrections added to reference energy

  New reference energy                -40.216707684200

  F12a singlet correction              -0.003780445300
  F12a triplet correction              -0.000171140887
  F12a total correction                -0.003951586187

 F12a corrections for ansatz F12/3C(FIX) added to CCSD energy

  CCSD-F12a singlet pair energy        -0.178096097341
  CCSD-F12a triplet pair energy        -0.055158589628
  CCSD-F12a correlation energy         -0.233254686966

  Triples (T) contribution (scaled)    -0.007109368837
  Total correlation energy             -0.240364055804

  CCSD-F12a total energy              -40.449962371167
  CCSD[T]-F12a energy                 -40.457307353855
  CCSD-T-F12a energy                  -40.457003898763
 !CCSD(T)-F12a total energy           -40.457071740004

 F12b corrections for ansatz F12/3C(FIX) added to CCSD(T)-F12a energy

  CCSD-F12b singlet pair energy        -0.177025304353
  CCSD-F12b triplet pair energy        -0.055129469134
  CCSD-F12b correlation energy         -0.232154773483

  Triples (T) contribution (scaled)    -0.007109368837
  Total correlation energy             -0.239264142320

  CCSD-F12b total energy              -40.448862457683
  CCSD[T]-F12b energy                 -40.456207440372
  CCSD-T-F12b energy                  -40.455903985280
 !CCSD(T)-F12b total energy           -40.455971826521

 Timing summary (sec):

 STEP                 CPU(USER)    SYS     CPU(TOT)    WALL
 Transformation        513.43     30.00    543.43    545.44
 CCSD iterations      1639.83    214.22   1854.05   1860.59
 Triples               532.03      7.87    539.90    541.63
 MP2-F12                44.11      1.86     45.97     46.29
 F12b energy           122.22     12.77    134.99    135.45

 Program statistics:

 Available memory in ccsd:              3999999866
 Min. memory needed in ccsd:              19260852
 Max. memory used in ccsd:                22423154
 Max. memory used in cckext:              14628952 (15 integral passes)



 **********************************************************************************************************************************
 DATASETS  * FILE   NREC   LENGTH (MB)   RECORD NAMES
              1      19     6330.34       500      610      700      900      950      970     1000      129      960     1100   
                                          VAR    BASINP    GEOM    SYMINP    ZMAT    AOBASIS   BASIS     P2S    ABASIS      S 
                                         1400     1410     1200     1210     1080     1600     1650     1700     1380   
                                           T        V       H0       H01     AOSYM     SMH    MOLCAS    OPER     JKOP   

              2       9       62.49       700     1000      520     2100     7360     7350      200     2101     2102   
                                         GEOM     BASIS   MCVARS     RHF    F12ABS    EF12    OPTIONS    RHF      RHF  

 PROGRAMS   *        TOTAL   CCSD(T)    HF-SCF       INT   CCSD(T)    HF-SCF       INT   CCSD(T)    HF-SCF       INT
 CPU TIMES  *     19757.54   2851.96   1371.13      0.63   3084.62   1424.12      0.62   8380.31   1476.16   1167.77
 REAL TIME  *     21702.16 SEC
 DISK USED  *        14.29 GB (local),      514.32 GB (total)
 SF USED    *        17.68 GB
 GA USED    *         4.87 MB       (max)       0.00 MB       (current)
 **********************************************************************************************************************************
 Molecular orbitals read from record     2102.2  Type=RHF/CANONICAL (state 1.1)
 Occupation numbers read from record     2102.2  Type=RHF/RHF (state 1.1)
 Orbital energies read from record       2102.2  Type=RHF/CANONICAL (state 1.1)
 Redundancy group numbers read from rec  2102.2  Type=RHF/RHF (state 1.1)

 CCSD(T)-F12/aug-cc-pV5Z energy=    -40.455971826521

     CCSD(T)-F12          HF-SCF     CCSD(T)-F12          HF-SCF     CCSD(T)-F12          HF-SCF
    -40.45597183    -40.21666699    -76.37264094    -76.06349885   -116.82917027   -116.27994926
 **********************************************************************************************************************************
 Molpro calculation terminated
