
 Primary working directories    : /scratch/klimes/389293/molpro.pOO3UCupgD
 Secondary working directories  : /scratch/klimes/389293/molpro.pOO3UCupgD
 Wavefunction directory         : /scratch/klimes/389293/
 Main file repository           : /scratch/klimes/389293/molpro.pOO3UCupgD/

 id        : karlovklimes

 Nodes                      nprocs
 nc-22.cc.karlov.mff.cuni.cz    4

 Using customized tuning parameters: mindgm=1; mindgv=20; mindgc=4; mindgr=1; noblas=0; minvec=7
 default implementation of scratch files=sf  


 Variables initialized (930), CPU time= 0.01 sec
                                                                                 !gdirect
 memory,2000,m
 gthresh,orbital=1d-10,energy=1d-10,grid=1d-8
 
 symmetry,nosym
 angstrom
 geometry={
 O1         0.000000000000      0.000000000000      0.000000000000
 H1         0.000000000000      0.000000000000      0.974900000000
 H2         0.000000000000      0.942300000000     -0.261200000000
 C1        -3.277200000000      1.482500000000      1.271900000000
 H41        -2.464000000000      0.899600000000      1.651000000000
 H42        -3.160800000000      2.501000000000      1.578500000000
 H43        -4.201800000000      1.099200000000      1.650100000000
 H44        -3.268500000000      1.421000000000      0.203700000000
 }
 
 nkerna=1
 nkernb=1
 
 gf=0
 sing=1
 thrdum=1d-4
 gridthr=1d-8
 
 basis={
 set,orbital
 default,av5z
 set,jkfit
 default,av5z/jkfit
 set,mp2fit
 default,av5z/mp2fit
 set,ri
 default,av5z/optri
 set,tddft
 default,av5z/mp2fit
 }
 
 proc set_monomer1
 dummy,4,5,6,7,8
 endproc
 
 proc set_monomer2
 dummy,1,2,3
 endproc
 
                                                                                 !1234 energy
 {hf,accu=1.d-16}
 ccsd(t)
 
 set_monomer1
 {hf,accu=1.d-16}
 ccsd(t)
 
 set_monomer2
 {hf,accu=1.d-16}
 ccsd(t)
 
 Commands  initialized (760), CPU time= 0.01 sec, 617 directives.
 Default parameters read. Elapsed time= 0.19 sec

 Checking input...
 Passed
1


                                         ***  PROGRAM SYSTEM MOLPRO  ***
                                       Copyright, TTI GmbH Stuttgart, 2015
                                    Version 2019.1 linked Jan 14 2019 13:09:19


 **********************************************************************************************************************************
 LABEL *                                                                                 
  64 bit mpp version                                                                     DATE: 13-Mar-20          TIME: 08:59:23  
 **********************************************************************************************************************************

 SHA1:             d688ac825633d238f2093ded1675ba87ccd55965
 **********************************************************************************************************************************

 THRESHOLDS:

 ZERO    =  1.00D-12  ONEINT  =  1.00D-12  TWOINT  =  1.00D-11  PREFAC  =  1.00D-14  XXXXXX  =  1.00D-09  EORDER  =  1.00D-04
 ENERGY  =  1.00D-10  ETEST   =  0.00D+00  EDENS   =  0.00D+00  THRDEDEF=  1.00D-06  GRADIENT=  1.00D-02  STEP    =  1.00D-03
 ORBITAL =  1.00D-10  CIVEC   =  1.00D-05  COEFF   =  1.00D-04  PRINTCI =  5.00D-02  PUNCHCI =  9.90D+01  OPTGRAD =  3.00D-04
 OPTENERG=  1.00D-06  OPTSTEP =  3.00D-04  THRGRAD =  1.00D-10  COMPRESS=  1.00D-11  VARMIN  =  1.00D-07  VARMAX  =  1.00D-03
 THRDOUB =  0.00D+00  THRDIV  =  1.00D-05  THRRED  =  1.00D-07  THRPSP  =  1.00D+00  THRDC   =  1.00D-10  THRCS   =  1.00D-10
 THRNRM  =  1.00D-08  THREQ   =  0.00D+00  THRDE   =  1.00D+00  THRREF  =  1.00D-05  SPARFAC =  1.00D+00  THRDLP  =  1.00D-07
 THRDIA  =  1.00D-10  THRDLS  =  1.00D-07  THRGPS  =  0.00D+00  THRKEX  =  0.00D+00  THRDIS  =  2.00D-01  THRVAR  =  1.00D-10
 THRLOC  =  1.00D-06  THRGAP  =  1.00D-06  THRLOCT = -1.00D+00  THRGAPT = -1.00D+00  THRORB  =  1.00D-06  THRMLTP =  0.00D+00
 THRCPQCI=  1.00D-10  KEXTA   =  0.00D+00  THRCOARS=  0.00D+00  SYMTOL  =  1.00D-06  GRADTOL =  1.00D-06  THROVL  =  1.00D-08
 THRORTH =  1.00D-08  GRID    =  1.00D-08  GRIDMAX =  1.00D-03  DTMAX   =  0.00D+00  THROCCDE=  1.00D-01  THROCCDE=  1.00D-01
 THRPRINT=  2.50D-01


 Variable memory set to 2000000000 words,  buffer space 

 ZSYMEL=NOSYM
 ZUNIT=ANG


Geometry recognized as XYZ

 SETTING NKERNA         =         1.00000000                                  
 SETTING NKERNB         =         1.00000000                                  
 SETTING GF             =     0.00000000D+00                                  
 SETTING SING           =         1.00000000                                  
 SETTING THRDUM         =     1.00000000D-04                                  
 SETTING GRIDTHR        =     1.00000000D-08                                  
 SETTING BASIS          =    AV5Z


 Recomputing integrals since basis changed


 Using spherical harmonics

 Library entry O      S aug-cc-pV5Z          selected for orbital group  1
 Library entry O      P aug-cc-pV5Z          selected for orbital group  1
 Library entry O      D aug-cc-pV5Z          selected for orbital group  1
 Library entry O      F aug-cc-pV5Z          selected for orbital group  1
 Library entry O      G aug-cc-pV5Z          selected for orbital group  1
 Library entry O      H aug-cc-pV5Z          selected for orbital group  1
 Library entry H      S aug-cc-pV5Z          selected for orbital group  2
 Library entry H      P aug-cc-pV5Z          selected for orbital group  2
 Library entry H      D aug-cc-pV5Z          selected for orbital group  2
 Library entry H      F aug-cc-pV5Z          selected for orbital group  2
 Library entry H      G aug-cc-pV5Z          selected for orbital group  2
 Library entry C      S aug-cc-pV5Z          selected for orbital group  3
 Library entry C      P aug-cc-pV5Z          selected for orbital group  3
 Library entry C      D aug-cc-pV5Z          selected for orbital group  3
 Library entry C      F aug-cc-pV5Z          selected for orbital group  3
 Library entry C      G aug-cc-pV5Z          selected for orbital group  3
 Library entry C      H aug-cc-pV5Z          selected for orbital group  3


 PROGRAM * SEWARD (Integral evaluation for generally contracted gaussian basis sets)     Author: Roland Lindh, 1990

 Geometry written to block  1 of record 700


 Point group  C1  



 ATOMIC COORDINATES

 NR  ATOM    CHARGE       X              Y              Z

   1  O1      8.00    0.000000000    0.000000000    0.000000000
   2  H1      1.00    0.000000000    0.000000000    1.842293999
   3  H2      1.00    0.000000000    1.780688927   -0.493596464
   4  C1      6.00   -6.193010455    2.801518980    2.403542658
   5  H41     1.00   -4.656285171    1.699997622    3.119937832
   6  H42     1.00   -5.973046335    4.726205038    2.982932688
   7  H43     1.00   -7.940251230    2.077186956    3.118237078
   8  H44     1.00   -6.176569838    2.685300823    0.384937212

 Bond lengths in Bohr (Angstrom)

 1-2  1.842293999  1-3  1.847834009  4-5  2.021904040  4-6  2.022002335  4-7  2.021953343
     ( 0.974900000)     ( 0.977831647)     ( 1.069945541)     ( 1.069997556)     ( 1.069971630)

 4-8  2.022015060
     ( 1.070004290)

 Bond angles

  2-1-3  105.49305961   5-4-6  109.53398059   5-4-7  109.65604535   5-4-8  108.43490854

  6-4-7  109.49436728   6-4-8  109.86987750   7-4-8  109.83468330

 NUCLEAR CHARGE:                   20
 NUMBER OF PRIMITIVE AOS:        1046
 NUMBER OF SYMMETRY AOS:          786
 NUMBER OF CONTRACTIONS:          734   (  734A   )
 NUMBER OF CORE ORBITALS:           2   (    2A   )
 NUMBER OF VALENCE ORBITALS:       14   (   14A   )


 NUCLEAR REPULSION ENERGY   36.71209306


 Basis set:  JKFIT                   
 Basis size:  1104
 Attributes:
 Sphericals:   T
 Basis set:  MP2FIT                  
 Basis size:  1246
 Attributes:
 Sphericals:   T
 Basis set:  RI                      
 Basis size:   730
 Attributes:
 Sphericals:   T
 Basis set:  TDDFT                   
 Basis size:  1246
 Attributes:
 Sphericals:   T

 **********************************************************************************************************************************


 Eigenvalues of metric

         1 0.184E-05 0.252E-05 0.354E-05 0.360E-05 0.530E-05 0.695E-05 0.832E-05 0.903E-05


 Contracted 2-electron integrals neglected if value below      1.0D-14
 AO integral compression algorithm  1   Integral accuracy      1.0D-14

     152195.564 MB (compressed) written to integral file ( 48.2%)

     Node minimum: 33589.821 MB, node maximum: 41922.331 MB


 NUMBER OF SORTED TWO-ELECTRON INTEGRALS: 9095363064.     BUFFER LENGTH:  32768
 NUMBER OF SEGMENTS: 190  SEGMENT LENGTH:   47999780      RECORD LENGTH: 131072

 Memory used in sort:      48.16 MW

 SORT1 READ 39471791889. AND WROTE  7022837409. INTEGRALS IN  80469 RECORDS. CPU TIME:  1050.02 SEC, REAL TIME:  1194.92 SEC
 SORT2 READ 28097729513. AND WROTE 36381317385. INTEGRALS IN 578652 RECORDS. CPU TIME:   104.84 SEC, REAL TIME:   956.44 SEC

 Node minimum:  9095228192.  Node maximum:  9095430501. integrals

 OPERATOR DM      FOR CENTER  0  COORDINATES:    0.000000    0.000000    0.000000


 **********************************************************************************************************************************
 DATASETS  * FILE   NREC   LENGTH (MB)   RECORD NAMES
              1      18       49.80       500      610      700      900      950      970     1000      129      960     1100   
                                          VAR    BASINP    GEOM    SYMINP    ZMAT    AOBASIS   BASIS     P2S    ABASIS      S 
                                         1400     1410     1200     1210     1080     1600     1650     1700   
                                           T        V       H0       H01     AOSYM     SMH    MOLCAS    OPER   

 PROGRAMS   *        TOTAL       INT
 CPU TIMES  *      2265.15   2264.94
 REAL TIME  *      3342.67 SEC
 DISK USED  *        50.44 MB (local),      490.73 GB (total)
 GA USED    *         0.00 MB       (max)       0.00 MB       (current)
 **********************************************************************************************************************************


 PROGRAM * RHF-SCF (CLOSED SHELL)       Authors: W. Meyer, H.-J. Werner


 NUMBER OF ELECTRONS:      10+   10-    SPACE SYMMETRY=1    SPIN SYMMETRY: Singlet 
 CONVERGENCE THRESHOLDS:    1.00E-08 (Density)    1.00E-11 (Energy)
 MAX. NUMBER OF ITERATIONS:       60
 INTERPOLATION TYPE:            DIIS
 INTERPOLATION STEPS:              2 (START)      1 (STEP)
 LEVEL SHIFTS:                  0.00 (CLOSED)  0.00 (OPEN) 



 Orbital guess generated from atomic densities. Full valence occupancy:   16

 Molecular orbital dump at record        2100.2

 Initial occupancy:  10

 ITERATION    DDIFF          GRAD             ENERGY        2-EL.EN.            DIPOLE MOMENTS         DIIS   ORB.
    1      0.000D+00      0.000D+00      -116.22292492    158.838994    0.00398    0.91033    0.68736    0    start
    2      0.000D+00      0.291D-02      -116.26711077    154.011028   -0.03241    0.51247    0.37904    1    diag
    3      0.162D-02      0.170D-02      -116.28060862    156.031908   -0.02161    0.61392    0.45753    2    diag
    4      0.554D-03      0.254D-03      -116.28126989    155.919917   -0.02044    0.60512    0.45146    3    diag
    5      0.126D-03      0.744D-04      -116.28133884    155.914757   -0.02095    0.60469    0.45138    4    diag
    6      0.519D-04      0.181D-04      -116.28134270    155.920432   -0.02105    0.60398    0.45101    5    diag
    7      0.189D-04      0.363D-05      -116.28134293    155.918719   -0.02107    0.60398    0.45106    6    diag
    8      0.561D-05      0.922D-06      -116.28134295    155.918897   -0.02109    0.60392    0.45103    7    diag
    9      0.130D-05      0.218D-06      -116.28134295    155.918871   -0.02110    0.60390    0.45102    8    diag
   10      0.299D-06      0.265D-07      -116.28134295    155.918872   -0.02110    0.60390    0.45102    9    orth
   11      0.600D-07      0.637D-08      -116.28134295    155.918873   -0.02110    0.60390    0.45102    9    diag
   12      0.484D-08      0.176D-08      -116.28134295    155.918873   -0.02110    0.60390    0.45102    0    orth

 Final occupancy:  10

 !RHF STATE  1.1 Energy              -116.281342947241
 Nuclear energy                        36.71209306
 One-electron energy                 -230.95287258
 Two-electron energy                   77.95943657
 Virial quotient                       -1.00059093
 !RHF STATE  1.1 Dipole moment         -0.02109850     0.60390239     0.45101635
 Dipole moment /Debye                  -0.05362353     1.53486623     1.14629413

 Orbital energies:

         1.1          2.1          3.1          4.1          5.1          6.1          7.1          8.1          9.1         10.1
    -20.566193   -11.199171    -1.341900    -0.953861    -0.708885    -0.579568    -0.555403    -0.553353    -0.551192    -0.507473

        11.1         12.1
      0.020029     0.032912


 HOMO     10.1    -0.507473 =     -13.8090eV
 LUMO     11.1     0.020029 =       0.5450eV
 LUMO-HOMO         0.527502 =      14.3541eV


 **********************************************************************************************************************************
 DATASETS  * FILE   NREC   LENGTH (MB)   RECORD NAMES
              1      18       49.80       500      610      700      900      950      970     1000      129      960     1100   
                                          VAR    BASINP    GEOM    SYMINP    ZMAT    AOBASIS   BASIS     P2S    ABASIS      S 
                                         1400     1410     1200     1210     1080     1600     1650     1700   
                                           T        V       H0       H01     AOSYM     SMH    MOLCAS    OPER   

              2       4       13.79       700     1000      520     2100   
                                         GEOM     BASIS   MCVARS     RHF  

 PROGRAMS   *        TOTAL    HF-SCF       INT
 CPU TIMES  *      4924.21   2659.06   2264.94
 REAL TIME  *      6423.04 SEC
 DISK USED  *       102.61 MB (local),      490.93 GB (total)
 SF USED    *         2.16 MB
 GA USED    *         0.00 MB       (max)       0.00 MB       (current)
 **********************************************************************************************************************************

 Basis set:  JKFIT                   
 Basis size:  1104
 Attributes:
 Sphericals:   T
 Basis set:  MP2FIT                  
 Basis size:  1246
 Attributes:
 Sphericals:   T
 Basis set:  RI                      
 Basis size:   730
 Attributes:
 Sphericals:   T
 Basis set:  TDDFT                   
 Basis size:  1246
 Attributes:
 Sphericals:   T

 PROGRAM * CCSD (Closed-shell coupled cluster)     Authors: C. Hampel, H.-J. Werner, 1991, M. Deegan, P.J. Knowles, 1992


 Convergence thresholds:  THRVAR = 1.00D-08  THRDEN = 1.00D-10

 CCSD(T)     terms to be evaluated (factor= 1.000)


 Number of core orbitals:           2 (   2 )
 Number of closed-shell orbitals:   8 (   8 )
 Number of external orbitals:     724 ( 724 )

 Molecular orbitals read from record     2100.2  Type=RHF/CANONICAL (state 1.1)

 Number of N-1 electron functions:               8
 Number of N-2 electron functions:              36
 Number of singly external CSFs:              5792
 Number of doubly external CSFs:          16776528
 Total number of CSFs:                    16782321

 Length of J-op  integral file:               0.00 MB
 Length of K-op  integral file:              37.04 MB
 Length of 3-ext integral record:             0.00 MB

 For full I/O caching in triples, increase memory by 2034.74 Mwords to 4034.79 Mwords.

 Integral transformation finished. Total CPU:2977.58 sec, npass=  1  Memory used:1826.26 MW

 Reference energy:                   -116.28134295

 MP2 singlet pair energy:              -0.35018363
 MP2 triplet pair energy:              -0.15962330
 MP2 correlation energy:               -0.50980693
 MP2 total energy:                   -116.79114987

 SCS-MP2 correlation energy:           -0.51954152   (PS=  1.200000  PT=  0.333333)
 SCS-MP2 total energy:               -116.80088447

 ITER.      SQ.NORM     CORR.ENERGY   TOTAL ENERGY   ENERGY CHANGE        DEN1      VAR(S)    VAR(P)  DIIS     TIME  TIME/IT
   1      1.13504833    -0.52425104  -116.80559398    -0.01444411    -0.00277838  0.14D-02  0.20D-02  1  1  4147.74  1230.58
   2      1.14341414    -0.52558422  -116.80692717    -0.00133319    -0.01021819  0.31D-04  0.25D-03  2  2  5313.37  1242.44
   3      1.14671408    -0.52570947  -116.80705241    -0.00012524    -0.00238433  0.11D-04  0.13D-04  3  3  6476.57  1245.63
   4      1.14761761    -0.52570580  -116.80704874     0.00000367    -0.00045804  0.64D-06  0.13D-05  4  4  7637.77  1248.74
   5      1.14778323    -0.52570758  -116.80705053    -0.00000178    -0.00004487  0.20D-06  0.91D-07  5  5  8805.67  1250.05
   6      1.14783067    -0.52570465  -116.80704760     0.00000293    -0.00001029  0.21D-07  0.77D-08  6  6  9976.51  1250.52
   7      1.14784088    -0.52570341  -116.80704635     0.00000125    -0.00000210  0.21D-08  0.10D-08  6  2 11139.71  1252.19
   8      1.14784326    -0.52570320  -116.80704614     0.00000021    -0.00000021  0.37D-09  0.12D-09  6  1 12310.77  1251.64
   9      1.14784418    -0.52570314  -116.80704609     0.00000005    -0.00000001  0.32D-10  0.16D-10  6  3 13486.57  1250.63
  10      1.14784433    -0.52570315  -116.80704609    -0.00000000     0.00000009  0.35D-11  0.23D-11  6  4 14662.30  1250.22
  11      1.14784429    -0.52570315  -116.80704610    -0.00000001     0.00000007  0.59D-12  0.31D-12  6  5 15817.77  1252.02
  12      1.14784428    -0.52570315  -116.80704610    -0.00000000     0.00000002  0.11D-12  0.40D-13  6  6 16989.00  1251.99
  13      1.14784426    -0.52570316  -116.80704610    -0.00000000     0.00000001  0.22D-13  0.61D-14  6  2 18159.42  1251.76
  14      1.14784425    -0.52570316  -116.80704610    -0.00000000     0.00000000  0.36D-14  0.13D-14  6  1 19331.77  1251.33
  15      1.14784425    -0.52570316  -116.80704610    -0.00000000    -0.00000000  0.56D-15  0.23D-15  6  3 20493.66  1251.47
  16      1.14784425    -0.52570316  -116.80704610    -0.00000000    -0.00000000  0.12D-15  0.40D-16  6  4 21661.94  1251.41
  17      1.14784425    -0.52570316  -116.80704610     0.00000000    -0.00000000  0.52D-16  0.13D-16  6  5 22831.97  1251.13

 Norm of t1 vector:      0.04983224      S-energy:    -0.00000000      T1 diagnostic:  0.00880918
                                                                       D1 diagnostic:  0.01994030

   CPU time for triples:   3459.57 sec for i =  1 -  4 /  8 (~  14.3 % done)
   CPU time for triples:   3461.25 sec for i =  5 -  5 /  8 (~  26.8 % done)
   CPU time for triples:   3462.89 sec for i =  6 -  6 /  8 (~  44.6 % done)
   CPU time for triples:   5199.50 sec for i =  7 -  7 /  8 (~  68.8 % done)
   CPU time for triples:   8640.64 sec for i =  8 -  8 /  8 (  100.0 % done)

 Total CPU time for triples:  24234.31 sec


 RESULTS
 =======

  Reference energy                   -116.281342947235
  CCSD singlet pair energy             -0.379692995401
  CCSD triplet pair energy             -0.146010159917
  CCSD correlation energy              -0.525703155674

  Triples (T) contribution             -0.017018827457
  Total correlation energy             -0.542721983131

  CCSD total energy                  -116.807046102909
  CCSD[T] energy                     -116.824605003390
  CCSD-T energy                      -116.823850495599
 !CCSD(T) total energy               -116.824064930366

 Timing summary (sec):

 STEP                 CPU(USER)    SYS     CPU(TOT)    WALL
 Transformation       2983.98    106.10   3090.08   3122.88
 CCSD iterations     19848.40    486.36  20334.76  21270.42
 Triples             24234.31    552.67  24786.98  24909.50

 Program statistics:

 Available memory in ccsd:              1999999734
 Min. memory needed in ccsd:              48755833
 Max. memory used in ccsd:                63342105
 Max. memory used in cckext:              42809278 (17 integral passes)



 **********************************************************************************************************************************
 DATASETS  * FILE   NREC   LENGTH (MB)   RECORD NAMES
              1      19    12452.38       500      610      700      900      950      970     1000      129      960     1100   
                                          VAR    BASINP    GEOM    SYMINP    ZMAT    AOBASIS   BASIS     P2S    ABASIS      S 
                                         1400     1410     1200     1210     1080     1600     1650     1700     1380   
                                           T        V       H0       H01     AOSYM     SMH    MOLCAS    OPER     JKOP   

              2       4       13.79       700     1000      520     2100   
                                         GEOM     BASIS   MCVARS     RHF  

 PROGRAMS   *        TOTAL   CCSD(T)    HF-SCF       INT
 CPU TIMES  *     51991.14  47066.92   2659.06   2264.94
 REAL TIME  *     55726.96 SEC
 DISK USED  *        14.28 GB (local),      542.20 GB (total)
 SF USED    *        13.87 GB
 GA USED    *         0.00 MB       (max)       0.00 MB       (current)
 **********************************************************************************************************************************

 Running procedure: SET_MONOMER1

 Dummy atoms: C1  H41  H42  H43  H44


 Recomputing one-electron integrals since nuclear charges changed


 PROGRAM * SEWARD (Integral evaluation for generally contracted gaussian basis sets)     Author: Roland Lindh, 1990

 Geometry written to block  1 of record 700


 Point group  C1  



 ATOMIC COORDINATES

 NR  ATOM    CHARGE       X              Y              Z

   1  O1      8.00    0.000000000    0.000000000    0.000000000
   2  H1      1.00    0.000000000    0.000000000    1.842293999
   3  H2      1.00    0.000000000    1.780688927   -0.493596464
   4  C1      0.00   -6.193010455    2.801518980    2.403542658
   5  H41     0.00   -4.656285171    1.699997622    3.119937832
   6  H42     0.00   -5.973046335    4.726205038    2.982932688
   7  H43     0.00   -7.940251230    2.077186956    3.118237078
   8  H44     0.00   -6.176569838    2.685300823    0.384937212

 Bond lengths in Bohr (Angstrom)

 1-2  1.842293999  1-3  1.847834009  4-5  2.021904040  4-6  2.022002335  4-7  2.021953343
     ( 0.974900000)     ( 0.977831647)     ( 1.069945541)     ( 1.069997556)     ( 1.069971630)

 4-8  2.022015060
     ( 1.070004290)

 Bond angles

  2-1-3  105.49305961   5-4-6  109.53398059   5-4-7  109.65604535   5-4-8  108.43490854

  6-4-7  109.49436728   6-4-8  109.86987750   7-4-8  109.83468330

 NUCLEAR CHARGE:                   10
 NUMBER OF PRIMITIVE AOS:        1046
 NUMBER OF SYMMETRY AOS:          786
 NUMBER OF CONTRACTIONS:          734   (  734A   )
 NUMBER OF CORE ORBITALS:           1   (    1A   )
 NUMBER OF VALENCE ORBITALS:        6   (    6A   )

 MOLECULE CHANGED: INITIALIZING OCCUPATION AND DUMP RECORDS


 NUCLEAR REPULSION ENERGY    9.01226390

 Basis set:  JKFIT                   
 Basis size:  1104
 Attributes:
 Sphericals:   T
 Basis set:  MP2FIT                  
 Basis size:  1246
 Attributes:
 Sphericals:   T
 Basis set:  RI                      
 Basis size:   730
 Attributes:
 Sphericals:   T
 Basis set:  TDDFT                   
 Basis size:  1246
 Attributes:
 Sphericals:   T

 Eigenvalues of metric

         1 0.184E-05 0.252E-05 0.354E-05 0.360E-05 0.530E-05 0.695E-05 0.832E-05 0.903E-05


 Contracted 2-electron integrals neglected if value below      1.0D-14

 OPERATOR DM      FOR CENTER  0  COORDINATES:    0.000000    0.000000    0.000000


 **********************************************************************************************************************************
 DATASETS  * FILE   NREC   LENGTH (MB)   RECORD NAMES
              1      18       49.80       500      610      700      900      950      970     1000      129      960     1100   
                                          VAR    BASINP    GEOM    SYMINP    ZMAT    AOBASIS   BASIS     P2S    ABASIS      S 
                                         1400     1410     1200     1210     1080     1600     1650     1700   
                                           T        V       H0       H01     AOSYM     SMH    MOLCAS    OPER   

              2       5       24.61       700     1000      520     2100      200   
                                         GEOM     BASIS   MCVARS     RHF    OPTIONS    

 PROGRAMS   *        TOTAL       INT   CCSD(T)    HF-SCF       INT
 CPU TIMES  *     51992.09      0.94  47066.92   2659.06   2264.94
 REAL TIME  *     55729.40 SEC
 DISK USED  *        14.28 GB (local),      542.24 GB (total)
 SF USED    *        13.87 GB
 GA USED    *         0.00 MB       (max)       0.00 MB       (current)
 **********************************************************************************************************************************


 PROGRAM * RHF-SCF (CLOSED SHELL)       Authors: W. Meyer, H.-J. Werner


 NUMBER OF ELECTRONS:       5+    5-    SPACE SYMMETRY=1    SPIN SYMMETRY: Singlet 
 CONVERGENCE THRESHOLDS:    1.00E-08 (Density)    1.00E-11 (Energy)
 MAX. NUMBER OF ITERATIONS:       60
 INTERPOLATION TYPE:            DIIS
 INTERPOLATION STEPS:              2 (START)      1 (STEP)
 LEVEL SHIFTS:                  0.00 (CLOSED)  0.00 (OPEN) 



 Orbital guess generated from atomic densities. Full valence occupancy:    7

 Molecular orbital dump at record        2101.2

 Initial occupancy:   5

 ITERATION    DDIFF          GRAD             ENERGY        2-EL.EN.            DIPOLE MOMENTS         DIIS   ORB.
    1      0.000D+00      0.000D+00       -76.02672722     77.438342    0.00001    0.91372    0.69082    0    start
    2      0.000D+00      0.360D-02       -76.05352140     73.785664    0.00000    0.53108    0.40268    1    diag
    3      0.130D-02      0.229D-02       -76.06505834     75.407061    0.00000    0.62634    0.47466    2    diag
    4      0.493D-03      0.215D-03       -76.06525224     75.315632    0.00000    0.62245    0.47194    3    diag
    5      0.629D-04      0.599D-04       -76.06527298     75.330086    0.00000    0.62102    0.47094    4    diag
    6      0.202D-04      0.119D-04       -76.06527433     75.329028    0.00000    0.62069    0.47072    5    diag
    7      0.534D-05      0.243D-05       -76.06527440     75.329173    0.00000    0.62058    0.47065    6    diag
    8      0.149D-05      0.464D-06       -76.06527440     75.329162    0.00000    0.62054    0.47063    7    diag
    9      0.304D-06      0.633D-07       -76.06527440     75.329152    0.00000    0.62054    0.47062    8    diag
   10      0.346D-07      0.139D-07       -76.06527440     75.329155    0.00000    0.62054    0.47062    9    orth
   11      0.812D-08      0.241D-08       -76.06527440     75.329154    0.00000    0.62054    0.47062    0    orth

 Final occupancy:   5

 !RHF STATE  1.1 Energy               -76.065274401474
 Nuclear energy                         9.01226390
 One-electron energy                 -122.74211552
 Two-electron energy                   37.66457722
 Virial quotient                       -1.00185449
 !RHF STATE  1.1 Dipole moment          0.00000107     0.62054013     0.47062206
 Dipole moment /Debye                   0.00000271     1.57715238     1.19612361

 Orbital energies:

         1.1          2.1          3.1          4.1          5.1          6.1          7.1
    -20.566878    -1.342287    -0.709228    -0.579409    -0.508679     0.015256     0.031426


 HOMO      5.1    -0.508679 =     -13.8419eV
 LUMO      6.1     0.015256 =       0.4152eV
 LUMO-HOMO         0.523935 =      14.2570eV


 **********************************************************************************************************************************
 DATASETS  * FILE   NREC   LENGTH (MB)   RECORD NAMES
              1      18       49.80       500      610      700      900      950      970     1000      129      960     1100   
                                          VAR    BASINP    GEOM    SYMINP    ZMAT    AOBASIS   BASIS     P2S    ABASIS      S 
                                         1400     1410     1200     1210     1080     1600     1650     1700   
                                           T        V       H0       H01     AOSYM     SMH    MOLCAS    OPER   

              2       6       38.39       700     1000      520     2100      200     2101   
                                         GEOM     BASIS   MCVARS     RHF    OPTIONS    RHF  

 PROGRAMS   *        TOTAL    HF-SCF       INT   CCSD(T)    HF-SCF       INT
 CPU TIMES  *     53982.76   1990.67      0.94  47066.92   2659.06   2264.94
 REAL TIME  *     58941.89 SEC
 DISK USED  *        14.28 GB (local),      542.24 GB (total)
 SF USED    *        13.87 GB
 GA USED    *         0.00 MB       (max)       0.00 MB       (current)
 **********************************************************************************************************************************

 Basis set:  JKFIT                   
 Basis size:  1104
 Attributes:
 Sphericals:   T
 Basis set:  MP2FIT                  
 Basis size:  1246
 Attributes:
 Sphericals:   T
 Basis set:  RI                      
 Basis size:   730
 Attributes:
 Sphericals:   T
 Basis set:  TDDFT                   
 Basis size:  1246
 Attributes:
 Sphericals:   T

 PROGRAM * CCSD (Closed-shell coupled cluster)     Authors: C. Hampel, H.-J. Werner, 1991, M. Deegan, P.J. Knowles, 1992


 Convergence thresholds:  THRVAR = 1.00D-08  THRDEN = 1.00D-10

 CCSD(T)     terms to be evaluated (factor= 1.000)


 Number of core orbitals:           1 (   1 )
 Number of closed-shell orbitals:   4 (   4 )
 Number of external orbitals:     729 ( 729 )

 Molecular orbitals read from record     2101.2  Type=RHF/CANONICAL (state 1.1)

 Number of N-1 electron functions:               4
 Number of N-2 electron functions:              10
 Number of singly external CSFs:              2916
 Number of doubly external CSFs:           4252986
 Total number of CSFs:                     4255903

 Length of J-op  integral file:               0.00 MB
 Length of K-op  integral file:              37.04 MB
 Length of 3-ext integral record:             0.00 MB

 For full I/O caching in triples, increase memory by 535.09 Mwords to 2535.14 Mwords.

 Integral transformation finished. Total CPU:1564.33 sec, npass=  1  Memory used:1010.01 MW

 Reference energy:                    -76.06527440

 MP2 singlet pair energy:              -0.19209171
 MP2 triplet pair energy:              -0.10221936
 MP2 correlation energy:               -0.29431107
 MP2 total energy:                    -76.35958547

 SCS-MP2 correlation energy:           -0.29411321   (PS=  1.200000  PT=  0.333333)
 SCS-MP2 total energy:                -76.35938761

 ITER.      SQ.NORM     CORR.ENERGY   TOTAL ENERGY   ENERGY CHANGE        DEN1      VAR(S)    VAR(P)  DIIS     TIME  TIME/IT
   1      1.06401891    -0.29422404   -76.35949845     0.00008703     0.00600553  0.81D-03  0.10D-02  1  1  1947.65   451.24
   2      1.06757329    -0.29446504   -76.35973944    -0.00024099    -0.00493853  0.15D-04  0.12D-03  2  2  2325.80   462.47
   3      1.06899243    -0.29454360   -76.35981800    -0.00007856    -0.00101957  0.80D-05  0.67D-05  3  3  2713.08   459.26
   4      1.06946966    -0.29454176   -76.35981617     0.00000184    -0.00023281  0.52D-06  0.75D-06  4  4  3089.14   463.38
   5      1.06957430    -0.29454006   -76.35981447     0.00000170    -0.00003202  0.16D-06  0.53D-07  5  5  3466.73   466.59
   6      1.06960965    -0.29453754   -76.35981194     0.00000253    -0.00000767  0.18D-07  0.45D-08  6  6  3843.43   464.69
   7      1.06961752    -0.29453700   -76.35981141     0.00000054    -0.00000073  0.16D-08  0.80D-09  6  1  4225.26   463.48
   8      1.06961936    -0.29453689   -76.35981129     0.00000011    -0.00000010  0.24D-09  0.94D-10  6  2  4609.69   462.46
   9      1.06962004    -0.29453685   -76.35981125     0.00000004     0.00000007  0.20D-10  0.89D-11  6  3  4992.64   461.71
  10      1.06962017    -0.29453684   -76.35981124     0.00000001     0.00000003  0.21D-11  0.12D-11  6  4  5379.89   461.12
  11      1.06962018    -0.29453684   -76.35981124    -0.00000000     0.00000002  0.47D-12  0.15D-12  6  5  5766.03   460.34
  12      1.06962018    -0.29453684   -76.35981124    -0.00000000     0.00000001  0.81D-13  0.25D-13  6  6  6147.97   460.12
  13      1.06962017    -0.29453684   -76.35981124    -0.00000000     0.00000000  0.15D-13  0.46D-14  6  1  6542.60   459.30
  14      1.06962017    -0.29453684   -76.35981124    -0.00000000     0.00000000  0.17D-14  0.73D-15  6  2  6934.80   458.43
  15      1.06962017    -0.29453684   -76.35981124    -0.00000000     0.00000000  0.20D-15  0.12D-15  6  3  7324.71   457.81
  16      1.06962017    -0.29453684   -76.35981124     0.00000000    -0.00000000  0.46D-16  0.19D-16  6  4  7714.59   457.26

 Norm of t1 vector:      0.03745706      S-energy:    -0.00000000      T1 diagnostic:  0.00936426
                                                                       D1 diagnostic:  0.01934175


 Total CPU time for triples:   3569.63 sec


 RESULTS
 =======

  Reference energy                    -76.065274401472
  CCSD singlet pair energy             -0.204143014926
  CCSD triplet pair energy             -0.090393825819
  CCSD correlation energy              -0.294536841375

  Triples (T) contribution             -0.009847418434
  Total correlation energy             -0.304384259809

  CCSD total energy                   -76.359811242847
  CCSD[T] energy                      -76.369969894221
  CCSD-T energy                       -76.369514512473
 !CCSD(T) total energy                -76.369658661281

 Timing summary (sec):

 STEP                 CPU(USER)    SYS     CPU(TOT)    WALL
 Transformation       1566.19     62.60   1628.79   1677.69
 CCSD iterations      6148.78    341.75   6490.53   7317.16
 Triples              3569.63     82.74   3652.37   3676.32

 Program statistics:

 Available memory in ccsd:              1999999921
 Min. memory needed in ccsd:              19268142
 Max. memory used in ccsd:                22427508
 Max. memory used in cckext:              14646566 (16 integral passes)



 **********************************************************************************************************************************
 DATASETS  * FILE   NREC   LENGTH (MB)   RECORD NAMES
              1      19     6330.40       500      610      700      900      950      970     1000      129      960     1100   
                                          VAR    BASINP    GEOM    SYMINP    ZMAT    AOBASIS   BASIS     P2S    ABASIS      S 
                                         1400     1410     1200     1210     1080     1600     1650     1700     1380   
                                           T        V       H0       H01     AOSYM     SMH    MOLCAS    OPER     JKOP   

              2       6       38.39       700     1000      520     2100      200     2101   
                                         GEOM     BASIS   MCVARS     RHF    OPTIONS    RHF  

 PROGRAMS   *        TOTAL   CCSD(T)    HF-SCF       INT   CCSD(T)    HF-SCF       INT
 CPU TIMES  *     65267.62  11284.86   1990.67      0.94  47066.92   2659.06   2264.94
 REAL TIME  *     71614.05 SEC
 DISK USED  *        14.28 GB (local),      542.24 GB (total)
 SF USED    *        13.87 GB
 GA USED    *         0.00 MB       (max)       0.00 MB       (current)
 **********************************************************************************************************************************

 Running procedure: SET_MONOMER2

 Dummy atoms: O1  H1  H2


 Recomputing one-electron integrals since nuclear charges changed


 PROGRAM * SEWARD (Integral evaluation for generally contracted gaussian basis sets)     Author: Roland Lindh, 1990

 Geometry written to block  1 of record 700


 Point group  C1  



 ATOMIC COORDINATES

 NR  ATOM    CHARGE       X              Y              Z

   1  O1      0.00    0.000000000    0.000000000    0.000000000
   2  H1      0.00    0.000000000    0.000000000    1.842293999
   3  H2      0.00    0.000000000    1.780688927   -0.493596464
   4  C1      6.00   -6.193010455    2.801518980    2.403542658
   5  H41     1.00   -4.656285171    1.699997622    3.119937832
   6  H42     1.00   -5.973046335    4.726205038    2.982932688
   7  H43     1.00   -7.940251230    2.077186956    3.118237078
   8  H44     1.00   -6.176569838    2.685300823    0.384937212

 Bond lengths in Bohr (Angstrom)

 1-2  1.842293999  1-3  1.847834009  4-5  2.021904040  4-6  2.022002335  4-7  2.021953343
     ( 0.974900000)     ( 0.977831647)     ( 1.069945541)     ( 1.069997556)     ( 1.069971630)

 4-8  2.022015060
     ( 1.070004290)

 Bond angles

  2-1-3  105.49305961   5-4-6  109.53398059   5-4-7  109.65604535   5-4-8  108.43490854

  6-4-7  109.49436728   6-4-8  109.86987750   7-4-8  109.83468330

 NUCLEAR CHARGE:                   10
 NUMBER OF PRIMITIVE AOS:        1046
 NUMBER OF SYMMETRY AOS:          786
 NUMBER OF CONTRACTIONS:          734   (  734A   )
 NUMBER OF CORE ORBITALS:           1   (    1A   )
 NUMBER OF VALENCE ORBITALS:        8   (    8A   )

 MOLECULE CHANGED: INITIALIZING OCCUPATION AND DUMP RECORDS


 NUCLEAR REPULSION ENERGY   13.68681606

 Basis set:  JKFIT                   
 Basis size:  1104
 Attributes:
 Sphericals:   T
 Basis set:  MP2FIT                  
 Basis size:  1246
 Attributes:
 Sphericals:   T
 Basis set:  RI                      
 Basis size:   730
 Attributes:
 Sphericals:   T
 Basis set:  TDDFT                   
 Basis size:  1246
 Attributes:
 Sphericals:   T

 Eigenvalues of metric

         1 0.184E-05 0.252E-05 0.354E-05 0.360E-05 0.530E-05 0.695E-05 0.832E-05 0.903E-05


 Contracted 2-electron integrals neglected if value below      1.0D-14

 OPERATOR DM      FOR CENTER  0  COORDINATES:    0.000000    0.000000    0.000000


 **********************************************************************************************************************************
 DATASETS  * FILE   NREC   LENGTH (MB)   RECORD NAMES
              1      18       49.80       500      610      700      900      950      970     1000      129      960     1100   
                                          VAR    BASINP    GEOM    SYMINP    ZMAT    AOBASIS   BASIS     P2S    ABASIS      S 
                                         1400     1410     1200     1210     1080     1600     1650     1700   
                                           T        V       H0       H01     AOSYM     SMH    MOLCAS    OPER   

              2       6       38.39       700     1000      520     2100      200     2101   
                                         GEOM     BASIS   MCVARS     RHF    OPTIONS    RHF  

 PROGRAMS   *        TOTAL       INT   CCSD(T)    HF-SCF       INT   CCSD(T)    HF-SCF       INT
 CPU TIMES  *     65268.81      1.16  11284.86   1990.67      0.94  47066.92   2659.06   2264.94
 REAL TIME  *     71616.31 SEC
 DISK USED  *        14.28 GB (local),      542.24 GB (total)
 SF USED    *        13.87 GB
 GA USED    *         0.00 MB       (max)       0.00 MB       (current)
 **********************************************************************************************************************************


 PROGRAM * RHF-SCF (CLOSED SHELL)       Authors: W. Meyer, H.-J. Werner


 NUMBER OF ELECTRONS:       5+    5-    SPACE SYMMETRY=1    SPIN SYMMETRY: Singlet 
 CONVERGENCE THRESHOLDS:    1.00E-08 (Density)    1.00E-11 (Energy)
 MAX. NUMBER OF ITERATIONS:       60
 INTERPOLATION TYPE:            DIIS
 INTERPOLATION STEPS:              2 (START)      1 (STEP)
 LEVEL SHIFTS:                  0.00 (CLOSED)  0.00 (OPEN) 



 Orbital guess generated from atomic densities. Full valence occupancy:    9

 Molecular orbital dump at record        2102.2

 Initial occupancy:   5

 ITERATION    DDIFF          GRAD             ENERGY        2-EL.EN.            DIPOLE MOMENTS         DIIS   ORB.
    1      0.000D+00      0.000D+00       -40.19676538     53.509904    0.00411   -0.00276   -0.00131    0    start
    2      0.000D+00      0.198D-02       -40.21405758     52.218480    0.00128   -0.00087   -0.00039    1    diag
    3      0.948D-03      0.769D-03       -40.21634100     52.673987    0.00182   -0.00123   -0.00055    2    diag
    4      0.259D-03      0.192D-03       -40.21666133     52.619249    0.00161   -0.00110   -0.00049    3    diag
    5      0.101D-03      0.248D-04       -40.21666681     52.621407    0.00159   -0.00108   -0.00048    4    diag
    6      0.348D-04      0.204D-05       -40.21666686     52.621535    0.00159   -0.00108   -0.00048    5    diag
    7      0.608D-05      0.166D-06       -40.21666686     52.621498    0.00158   -0.00108   -0.00048    6    diag
    8      0.351D-06      0.136D-07       -40.21666686     52.621498    0.00159   -0.00108   -0.00048    7    diag
    9      0.559D-07      0.167D-08       -40.21666686     52.621498    0.00158   -0.00108   -0.00048    8    diag
   10      0.105D-07      0.465D-09       -40.21666686     52.621498    0.00158   -0.00108   -0.00048    9    orth
   11      0.115D-08      0.667D-10       -40.21666686     52.621498    0.00158   -0.00108   -0.00048    0    orth

 Final occupancy:   5

 !RHF STATE  1.1 Energy               -40.216666856294
 Nuclear energy                        13.68681606
 One-electron energy                  -80.21423203
 Two-electron energy                   26.31074912
 Virial quotient                       -0.99832814
 !RHF STATE  1.1 Dipole moment          0.00158491    -0.00107669    -0.00047672
 Dipole moment /Debye                   0.00402819    -0.00273649    -0.00121163

 Orbital energies:

         1.1          2.1          3.1          4.1          5.1          6.1          7.1
    -11.196017    -0.950605    -0.551931    -0.549996    -0.547817     0.021611     0.033166


 HOMO      5.1    -0.547817 =     -14.9069eV
 LUMO      6.1     0.021611 =       0.5881eV
 LUMO-HOMO         0.569428 =      15.4949eV


 **********************************************************************************************************************************
 DATASETS  * FILE   NREC   LENGTH (MB)   RECORD NAMES
              1      18       49.80       500      610      700      900      950      970     1000      129      960     1100   
                                          VAR    BASINP    GEOM    SYMINP    ZMAT    AOBASIS   BASIS     P2S    ABASIS      S 
                                         1400     1410     1200     1210     1080     1600     1650     1700   
                                           T        V       H0       H01     AOSYM     SMH    MOLCAS    OPER   

              2       7       62.47       700     1000      520     2100      200     2101     2102   
                                         GEOM     BASIS   MCVARS     RHF    OPTIONS    RHF      RHF  

 PROGRAMS   *        TOTAL    HF-SCF       INT   CCSD(T)    HF-SCF       INT   CCSD(T)    HF-SCF       INT
 CPU TIMES  *     67435.61   2166.80      1.16  11284.86   1990.67      0.94  47066.92   2659.06   2264.94
 REAL TIME  *     74608.24 SEC
 DISK USED  *        14.28 GB (local),      542.24 GB (total)
 SF USED    *        13.87 GB
 GA USED    *         0.00 MB       (max)       0.00 MB       (current)
 **********************************************************************************************************************************

 Basis set:  JKFIT                   
 Basis size:  1104
 Attributes:
 Sphericals:   T
 Basis set:  MP2FIT                  
 Basis size:  1246
 Attributes:
 Sphericals:   T
 Basis set:  RI                      
 Basis size:   730
 Attributes:
 Sphericals:   T
 Basis set:  TDDFT                   
 Basis size:  1246
 Attributes:
 Sphericals:   T

 PROGRAM * CCSD (Closed-shell coupled cluster)     Authors: C. Hampel, H.-J. Werner, 1991, M. Deegan, P.J. Knowles, 1992


 Convergence thresholds:  THRVAR = 1.00D-08  THRDEN = 1.00D-10

 CCSD(T)     terms to be evaluated (factor= 1.000)


 Number of core orbitals:           1 (   1 )
 Number of closed-shell orbitals:   4 (   4 )
 Number of external orbitals:     729 ( 729 )

 Molecular orbitals read from record     2102.2  Type=RHF/CANONICAL (state 1.1)

 Number of N-1 electron functions:               4
 Number of N-2 electron functions:              10
 Number of singly external CSFs:              2916
 Number of doubly external CSFs:           4252986
 Total number of CSFs:                     4255903

 Length of J-op  integral file:               0.00 MB
 Length of K-op  integral file:              37.04 MB
 Length of 3-ext integral record:             0.00 MB

 For full I/O caching in triples, increase memory by 535.09 Mwords to 2535.14 Mwords.

 Integral transformation finished. Total CPU:1514.30 sec, npass=  1  Memory used:1010.01 MW

 Reference energy:                    -40.21666686

 MP2 singlet pair energy:              -0.15787929
 MP2 triplet pair energy:              -0.05682299
 MP2 correlation energy:               -0.21470227
 MP2 total energy:                    -40.43136913

 SCS-MP2 correlation energy:           -0.22481167   (PS=  1.200000  PT=  0.333333)
 SCS-MP2 total energy:                -40.44147852

 ITER.      SQ.NORM     CORR.ENERGY   TOTAL ENERGY   ENERGY CHANGE        DEN1      VAR(S)    VAR(P)  DIIS     TIME  TIME/IT
   1      1.07073106    -0.22924379   -40.44591064    -0.01454152    -0.00880927  0.58D-03  0.96D-03  1  1  1890.22   465.28
   2      1.07565275    -0.23033852   -40.44700537    -0.00109473    -0.00537198  0.15D-04  0.11D-03  2  2  2273.27   467.31
   3      1.07738946    -0.23037902   -40.44704587    -0.00004050    -0.00128262  0.20D-05  0.63D-05  3  3  2665.08   460.61
   4      1.07777986    -0.23038074   -40.44704760    -0.00000173    -0.00020101  0.14D-06  0.36D-06  4  4  3055.79   458.71
   5      1.07783425    -0.23038450   -40.44705136    -0.00000376    -0.00001098  0.13D-07  0.24D-07  5  5  3450.00   457.20
   6      1.07784438    -0.23038320   -40.44705005     0.00000131    -0.00000412  0.79D-09  0.17D-08  6  6  3842.11   455.95
   7      1.07784572    -0.23038282   -40.44704967     0.00000038    -0.00000075  0.53D-10  0.13D-09  6  1  4235.77   455.03
   8      1.07784564    -0.23038287   -40.44704973    -0.00000005     0.00000024  0.57D-11  0.84D-11  6  3  4627.36   454.38
   9      1.07784578    -0.23038285   -40.44704971     0.00000002    -0.00000009  0.42D-12  0.60D-12  6  2  5017.93   454.79
  10      1.07784578    -0.23038285   -40.44704971     0.00000000     0.00000001  0.56D-13  0.63D-13  6  4  5415.49   454.11
  11      1.07784579    -0.23038285   -40.44704971     0.00000000     0.00000000  0.57D-14  0.64D-14  6  5  5803.81   453.99
  12      1.07784578    -0.23038285   -40.44704971     0.00000000     0.00000000  0.17D-15  0.65D-15  6  6  6189.04   454.06
  13      1.07784578    -0.23038285   -40.44704971    -0.00000000     0.00000000  0.15D-16  0.73D-16  6  1  6582.86   453.81
  14      1.07784578    -0.23038285   -40.44704971    -0.00000000     0.00000000  0.31D-17  0.14D-16  6  3  6977.80   453.54

 Norm of t1 vector:      0.03186015      S-energy:    -0.00000000      T1 diagnostic:  0.00796504
                                                                       D1 diagnostic:  0.01279378

 Total CPU time for triples:   3565.80 sec


 RESULTS
 =======

  Reference energy                    -40.216666856296
  CCSD singlet pair energy             -0.175400681319
  CCSD triplet pair energy             -0.054982169824
  CCSD correlation energy              -0.230382851143

  Triples (T) contribution             -0.007018791786
  Total correlation energy             -0.237401642929

  CCSD total energy                   -40.447049707438
  CCSD[T] energy                      -40.454292338649
  CCSD-T energy                       -40.454001544034
 !CCSD(T) total energy                -40.454068499224

 Timing summary (sec):

 STEP                 CPU(USER)    SYS     CPU(TOT)    WALL
 Transformation       1515.89     63.30   1579.19   1621.41
 CCSD iterations      5462.28    297.48   5759.76   6350.59
 Triples              3565.80     83.41   3649.21   3668.51

 Program statistics:

 Available memory in ccsd:              1999999916
 Min. memory needed in ccsd:              19268142
 Max. memory used in ccsd:                22427508
 Max. memory used in cckext:              14646566 (14 integral passes)



 **********************************************************************************************************************************
 DATASETS  * FILE   NREC   LENGTH (MB)   RECORD NAMES
              1      19     6330.40       500      610      700      900      950      970     1000      129      960     1100   
                                          VAR    BASINP    GEOM    SYMINP    ZMAT    AOBASIS   BASIS     P2S    ABASIS      S 
                                         1400     1410     1200     1210     1080     1600     1650     1700     1380   
                                           T        V       H0       H01     AOSYM     SMH    MOLCAS    OPER     JKOP   

              2       7       62.47       700     1000      520     2100      200     2101     2102   
                                         GEOM     BASIS   MCVARS     RHF    OPTIONS    RHF      RHF  

 PROGRAMS   *        TOTAL   CCSD(T)    HF-SCF       INT   CCSD(T)    HF-SCF       INT   CCSD(T)    HF-SCF       INT
 CPU TIMES  *     77979.86  10544.24   2166.80      1.16  11284.86   1990.67      0.94  47066.92   2659.06   2264.94
 REAL TIME  *     86249.73 SEC
 DISK USED  *        14.28 GB (local),      542.24 GB (total)
 SF USED    *        13.87 GB
 GA USED    *         0.00 MB       (max)       0.00 MB       (current)
 **********************************************************************************************************************************
 Molecular orbitals read from record     2102.2  Type=RHF/CANONICAL (state 1.1)
 Occupation numbers read from record     2102.2  Type=RHF/RHF (state 1.1)
 Orbital energies read from record       2102.2  Type=RHF/CANONICAL (state 1.1)
 Redundancy group numbers read from rec  2102.2  Type=RHF/RHF (state 1.1)

 CCSD(T)/aug-cc-pV5Z energy=    -40.454068499224

         CCSD(T)          HF-SCF         CCSD(T)          HF-SCF         CCSD(T)          HF-SCF
    -40.45406850    -40.21666686    -76.36965866    -76.06527440   -116.82406493   -116.28134295
 **********************************************************************************************************************************
 Molpro calculation terminated
