
 Primary working directories    : /scratch/klimes/389294/molpro.rVmq2IEnz6
 Secondary working directories  : /scratch/klimes/389294/molpro.rVmq2IEnz6
 Wavefunction directory         : /scratch/klimes/389294/
 Main file repository           : /scratch/klimes/389294/molpro.rVmq2IEnz6/

 id        : karlovklimes

 Nodes                      nprocs
 nc-01.cc.karlov.mff.cuni.cz    4

 Using customized tuning parameters: mindgm=1; mindgv=20; mindgc=4; mindgr=1; noblas=0; minvec=7
 default implementation of scratch files=sf  


 Variables initialized (930), CPU time= 0.01 sec
                                                                                 !gdirect
 memory,2000,m
 gthresh,orbital=1d-10,energy=1d-10,grid=1d-8
 
 symmetry,nosym
 angstrom
 geometry={
 O2        -0.069900000000     -0.226200000000      2.872700000000
 H3         0.635400000000     -0.815900000000      3.168900000000
 H4        -0.918500000000     -0.721300000000      3.072500000000
 C1        -3.277200000000      1.482500000000      1.271900000000
 H41        -2.464000000000      0.899600000000      1.651000000000
 H42        -3.160800000000      2.501000000000      1.578500000000
 H43        -4.201800000000      1.099200000000      1.650100000000
 H44        -3.268500000000      1.421000000000      0.203700000000
 }
 
 nkerna=1
 nkernb=1
 
 gf=0
 sing=1
 thrdum=1d-4
 gridthr=1d-8
 
 basis={
 set,orbital
 default,av5z
 set,jkfit
 default,av5z/jkfit
 set,mp2fit
 default,av5z/mp2fit
 set,ri
 default,av5z/optri
 set,tddft
 default,av5z/mp2fit
 }
 
 proc set_monomer1
 dummy,4,5,6,7,8
 endproc
 
 proc set_monomer2
 dummy,1,2,3
 endproc
 
                                                                                 !1234 energy
 {hf,accu=1.d-16}
 ccsd(t)
 
 set_monomer1
 {hf,accu=1.d-16}
 ccsd(t)
 
 set_monomer2
 {hf,accu=1.d-16}
 ccsd(t)
 
 Commands  initialized (760), CPU time= 0.02 sec, 617 directives.
 Default parameters read. Elapsed time= 0.21 sec

 Checking input...
 Passed
1


                                         ***  PROGRAM SYSTEM MOLPRO  ***
                                       Copyright, TTI GmbH Stuttgart, 2015
                                    Version 2019.1 linked Jan 14 2019 13:09:19


 **********************************************************************************************************************************
 LABEL *                                                                                 
  64 bit mpp version                                                                     DATE: 13-Mar-20          TIME: 09:20:39  
 **********************************************************************************************************************************

 SHA1:             d688ac825633d238f2093ded1675ba87ccd55965
 **********************************************************************************************************************************

 THRESHOLDS:

 ZERO    =  1.00D-12  ONEINT  =  1.00D-12  TWOINT  =  1.00D-11  PREFAC  =  1.00D-14  XXXXXX  =  1.00D-09  EORDER  =  1.00D-04
 ENERGY  =  1.00D-10  ETEST   =  0.00D+00  EDENS   =  0.00D+00  THRDEDEF=  1.00D-06  GRADIENT=  1.00D-02  STEP    =  1.00D-03
 ORBITAL =  1.00D-10  CIVEC   =  1.00D-05  COEFF   =  1.00D-04  PRINTCI =  5.00D-02  PUNCHCI =  9.90D+01  OPTGRAD =  3.00D-04
 OPTENERG=  1.00D-06  OPTSTEP =  3.00D-04  THRGRAD =  1.00D-10  COMPRESS=  1.00D-11  VARMIN  =  1.00D-07  VARMAX  =  1.00D-03
 THRDOUB =  0.00D+00  THRDIV  =  1.00D-05  THRRED  =  1.00D-07  THRPSP  =  1.00D+00  THRDC   =  1.00D-10  THRCS   =  1.00D-10
 THRNRM  =  1.00D-08  THREQ   =  0.00D+00  THRDE   =  1.00D+00  THRREF  =  1.00D-05  SPARFAC =  1.00D+00  THRDLP  =  1.00D-07
 THRDIA  =  1.00D-10  THRDLS  =  1.00D-07  THRGPS  =  0.00D+00  THRKEX  =  0.00D+00  THRDIS  =  2.00D-01  THRVAR  =  1.00D-10
 THRLOC  =  1.00D-06  THRGAP  =  1.00D-06  THRLOCT = -1.00D+00  THRGAPT = -1.00D+00  THRORB  =  1.00D-06  THRMLTP =  0.00D+00
 THRCPQCI=  1.00D-10  KEXTA   =  0.00D+00  THRCOARS=  0.00D+00  SYMTOL  =  1.00D-06  GRADTOL =  1.00D-06  THROVL  =  1.00D-08
 THRORTH =  1.00D-08  GRID    =  1.00D-08  GRIDMAX =  1.00D-03  DTMAX   =  0.00D+00  THROCCDE=  1.00D-01  THROCCDE=  1.00D-01
 THRPRINT=  2.50D-01


 Variable memory set to 2000000000 words,  buffer space 

 ZSYMEL=NOSYM
 ZUNIT=ANG


Geometry recognized as XYZ

 SETTING NKERNA         =         1.00000000                                  
 SETTING NKERNB         =         1.00000000                                  
 SETTING GF             =     0.00000000D+00                                  
 SETTING SING           =         1.00000000                                  
 SETTING THRDUM         =     1.00000000D-04                                  
 SETTING GRIDTHR        =     1.00000000D-08                                  
 SETTING BASIS          =    AV5Z


 Recomputing integrals since basis changed


 Using spherical harmonics

 Library entry O      S aug-cc-pV5Z          selected for orbital group  1
 Library entry O      P aug-cc-pV5Z          selected for orbital group  1
 Library entry O      D aug-cc-pV5Z          selected for orbital group  1
 Library entry O      F aug-cc-pV5Z          selected for orbital group  1
 Library entry O      G aug-cc-pV5Z          selected for orbital group  1
 Library entry O      H aug-cc-pV5Z          selected for orbital group  1
 Library entry H      S aug-cc-pV5Z          selected for orbital group  2
 Library entry H      P aug-cc-pV5Z          selected for orbital group  2
 Library entry H      D aug-cc-pV5Z          selected for orbital group  2
 Library entry H      F aug-cc-pV5Z          selected for orbital group  2
 Library entry H      G aug-cc-pV5Z          selected for orbital group  2
 Library entry C      S aug-cc-pV5Z          selected for orbital group  3
 Library entry C      P aug-cc-pV5Z          selected for orbital group  3
 Library entry C      D aug-cc-pV5Z          selected for orbital group  3
 Library entry C      F aug-cc-pV5Z          selected for orbital group  3
 Library entry C      G aug-cc-pV5Z          selected for orbital group  3
 Library entry C      H aug-cc-pV5Z          selected for orbital group  3


 PROGRAM * SEWARD (Integral evaluation for generally contracted gaussian basis sets)     Author: Roland Lindh, 1990

 Geometry written to block  1 of record 700


 Point group  C1  



 ATOMIC COORDINATES

 NR  ATOM    CHARGE       X              Y              Z

   1  O2      8.00   -0.132091856   -0.427456049    5.428616238
   2  H3      1.00    1.200731980   -1.541827545    5.988353116
   3  H4      1.00   -1.735713445   -1.363059454    5.806183518
   4  C1      6.00   -6.193010455    2.801518980    2.403542658
   5  H41     1.00   -4.656285171    1.699997622    3.119937832
   6  H42     1.00   -5.973046335    4.726205038    2.982932688
   7  H43     1.00   -7.940251230    2.077186956    3.118237078
   8  H44     1.00   -6.176569838    2.685300823    0.384937212

 Bond lengths in Bohr (Angstrom)

 1-2  1.825253018  1-3  1.894601009  4-5  2.021904040  4-6  2.022002335  4-7  2.021953343
     ( 0.965882301)     ( 1.002579678)     ( 1.069945541)     ( 1.069997556)     ( 1.069971630)

 4-8  2.022015060
     ( 1.070004290)

 Bond angles

  2-1-3  104.80057086   5-4-6  109.53398059   5-4-7  109.65604535   5-4-8  108.43490854

  6-4-7  109.49436728   6-4-8  109.86987750   7-4-8  109.83468330

 NUCLEAR CHARGE:                   20
 NUMBER OF PRIMITIVE AOS:        1046
 NUMBER OF SYMMETRY AOS:          786
 NUMBER OF CONTRACTIONS:          734   (  734A   )
 NUMBER OF CORE ORBITALS:           2   (    2A   )
 NUMBER OF VALENCE ORBITALS:       14   (   14A   )


 NUCLEAR REPULSION ENERGY   35.86337232


 Basis set:  JKFIT                   
 Basis size:  1104
 Attributes:
 Sphericals:   T
 Basis set:  MP2FIT                  
 Basis size:  1246
 Attributes:
 Sphericals:   T
 Basis set:  RI                      
 Basis size:   730
 Attributes:
 Sphericals:   T
 Basis set:  TDDFT                   
 Basis size:  1246
 Attributes:
 Sphericals:   T

 **********************************************************************************************************************************


 Eigenvalues of metric

         1 0.106E-05 0.206E-05 0.316E-05 0.466E-05 0.486E-05 0.663E-05 0.878E-05 0.902E-05


 Contracted 2-electron integrals neglected if value below      1.0D-14
 AO integral compression algorithm  1   Integral accuracy      1.0D-14

     145385.062 MB (compressed) written to integral file ( 46.0%)

     Node minimum: 35114.189 MB, node maximum: 38631.637 MB


 NUMBER OF SORTED TWO-ELECTRON INTEGRALS: 9095363064.     BUFFER LENGTH:  32768
 NUMBER OF SEGMENTS: 190  SEGMENT LENGTH:   47999780      RECORD LENGTH: 131072

 Memory used in sort:      48.16 MW

 SORT1 READ 39469907505. AND WROTE  6607677925. INTEGRALS IN  75710 RECORDS. CPU TIME:   839.52 SEC, REAL TIME:   960.39 SEC
 SORT2 READ 26438801385. AND WROTE 36381317385. INTEGRALS IN 535800 RECORDS. CPU TIME:   124.79 SEC, REAL TIME:   510.96 SEC

 Node minimum:  9095228192.  Node maximum:  9095430501. integrals

 OPERATOR DM      FOR CENTER  0  COORDINATES:    0.000000    0.000000    0.000000


 **********************************************************************************************************************************
 DATASETS  * FILE   NREC   LENGTH (MB)   RECORD NAMES
              1      18       49.80       500      610      700      900      950      970     1000      129      960     1100   
                                          VAR    BASINP    GEOM    SYMINP    ZMAT    AOBASIS   BASIS     P2S    ABASIS      S 
                                         1400     1410     1200     1210     1080     1600     1650     1700   
                                           T        V       H0       H01     AOSYM     SMH    MOLCAS    OPER   

 PROGRAMS   *        TOTAL       INT
 CPU TIMES  *      2417.06   2416.83
 REAL TIME  *      2981.78 SEC
 DISK USED  *        50.44 MB (local),      462.48 GB (total)
 GA USED    *         0.00 MB       (max)       0.00 MB       (current)
 **********************************************************************************************************************************


 PROGRAM * RHF-SCF (CLOSED SHELL)       Authors: W. Meyer, H.-J. Werner


 NUMBER OF ELECTRONS:      10+   10-    SPACE SYMMETRY=1    SPIN SYMMETRY: Singlet 
 CONVERGENCE THRESHOLDS:    1.00E-08 (Density)    1.00E-11 (Energy)
 MAX. NUMBER OF ITERATIONS:       60
 INTERPOLATION TYPE:            DIIS
 INTERPOLATION STEPS:              2 (START)      1 (STEP)
 LEVEL SHIFTS:                  0.00 (CLOSED)  0.00 (OPEN) 



 Orbital guess generated from atomic densities. Full valence occupancy:   16

 Molecular orbital dump at record        2100.2

 Initial occupancy:  10

 ITERATION    DDIFF          GRAD             ENERGY        2-EL.EN.            DIPOLE MOMENTS         DIIS   ORB.
    1      0.000D+00      0.000D+00      -116.22122333    157.417114   -0.14354   -1.05285    0.47900    0    start
    2      0.000D+00      0.291D-02      -116.26540574    152.399084   -0.02214   -0.59331    0.27833    1    diag
    3      0.162D-02      0.172D-02      -116.27920621    154.489719   -0.05178   -0.71184    0.32923    2    diag
    4      0.561D-03      0.256D-03      -116.27987390    154.376159   -0.04908   -0.70191    0.32433    3    diag
    5      0.128D-03      0.755D-04      -116.27994497    154.372084   -0.04824   -0.70140    0.32411    4    diag
    6      0.525D-04      0.183D-04      -116.27994899    154.377727   -0.04797   -0.70063    0.32372    5    diag
    7      0.183D-04      0.376D-05      -116.27994924    154.376091   -0.04794   -0.70062    0.32370    6    diag
    8      0.529D-05      0.970D-06      -116.27994926    154.376281   -0.04790   -0.70056    0.32367    7    diag
    9      0.121D-05      0.229D-06      -116.27994926    154.376254   -0.04789   -0.70053    0.32366    8    diag
   10      0.327D-06      0.267D-07      -116.27994926    154.376254   -0.04788   -0.70053    0.32366    9    orth
   11      0.589D-07      0.610D-08      -116.27994926    154.376256   -0.04788   -0.70053    0.32366    9    diag
   12      0.640D-08      0.159D-08      -116.27994926    154.376256   -0.04788   -0.70053    0.32366    0    orth

 Final occupancy:  10

 !RHF STATE  1.1 Energy              -116.279949259884
 Nuclear energy                        35.86337232
 One-electron energy                 -229.33144940
 Two-electron energy                   77.18812782
 Virial quotient                       -1.00080666
 !RHF STATE  1.1 Dipole moment         -0.04788288    -0.70053184     0.32366043
 Dipole moment /Debye                  -0.12169817    -1.78045771     0.82260887

 Orbital energies:

         1.1          2.1          3.1          4.1          5.1          6.1          7.1          8.1          9.1         10.1
    -20.569525   -11.191067    -1.340492    -0.945851    -0.705495    -0.580683    -0.547068    -0.545431    -0.542536    -0.509448

        11.1         12.1
      0.019772     0.031387


 HOMO     10.1    -0.509448 =     -13.8628eV
 LUMO     11.1     0.019772 =       0.5380eV
 LUMO-HOMO         0.529220 =      14.4008eV


 **********************************************************************************************************************************
 DATASETS  * FILE   NREC   LENGTH (MB)   RECORD NAMES
              1      18       49.80       500      610      700      900      950      970     1000      129      960     1100   
                                          VAR    BASINP    GEOM    SYMINP    ZMAT    AOBASIS   BASIS     P2S    ABASIS      S 
                                         1400     1410     1200     1210     1080     1600     1650     1700   
                                           T        V       H0       H01     AOSYM     SMH    MOLCAS    OPER   

              2       4       13.79       700     1000      520     2100   
                                         GEOM     BASIS   MCVARS     RHF  

 PROGRAMS   *        TOTAL    HF-SCF       INT
 CPU TIMES  *      6888.49   4471.43   2416.83
 REAL TIME  *      7804.97 SEC
 DISK USED  *       102.61 MB (local),      462.69 GB (total)
 SF USED    *         2.16 MB
 GA USED    *         0.00 MB       (max)       0.00 MB       (current)
 **********************************************************************************************************************************

 Basis set:  JKFIT                   
 Basis size:  1104
 Attributes:
 Sphericals:   T
 Basis set:  MP2FIT                  
 Basis size:  1246
 Attributes:
 Sphericals:   T
 Basis set:  RI                      
 Basis size:   730
 Attributes:
 Sphericals:   T
 Basis set:  TDDFT                   
 Basis size:  1246
 Attributes:
 Sphericals:   T

 PROGRAM * CCSD (Closed-shell coupled cluster)     Authors: C. Hampel, H.-J. Werner, 1991, M. Deegan, P.J. Knowles, 1992


 Convergence thresholds:  THRVAR = 1.00D-08  THRDEN = 1.00D-10

 CCSD(T)     terms to be evaluated (factor= 1.000)


 Number of core orbitals:           2 (   2 )
 Number of closed-shell orbitals:   8 (   8 )
 Number of external orbitals:     724 ( 724 )

 Molecular orbitals read from record     2100.2  Type=RHF/CANONICAL (state 1.1)

 Number of N-1 electron functions:               8
 Number of N-2 electron functions:              36
 Number of singly external CSFs:              5792
 Number of doubly external CSFs:          16776528
 Total number of CSFs:                    16782321

 Length of J-op  integral file:               0.00 MB
 Length of K-op  integral file:              37.04 MB
 Length of 3-ext integral record:             0.00 MB

 For full I/O caching in triples, increase memory by 2034.74 Mwords to 4034.79 Mwords.

 Integral transformation finished. Total CPU:4645.04 sec, npass=  1  Memory used:1826.26 MW

 Reference energy:                   -116.27994926

 MP2 singlet pair energy:              -0.35056871
 MP2 triplet pair energy:              -0.15979855
 MP2 correlation energy:               -0.51036725
 MP2 total energy:                   -116.79031651

 SCS-MP2 correlation energy:           -0.52011266   (PS=  1.200000  PT=  0.333333)
 SCS-MP2 total energy:               -116.80006192

 ITER.      SQ.NORM     CORR.ENERGY   TOTAL ENERGY   ENERGY CHANGE        DEN1      VAR(S)    VAR(P)  DIIS     TIME  TIME/IT
   1      1.13552793    -0.52468046  -116.80462972    -0.01431321    -0.00255209  0.14D-02  0.20D-02  1  1  5941.17  1319.83
   2      1.14396181    -0.52600828  -116.80595754    -0.00132782    -0.01028536  0.31D-04  0.26D-03  2  2  7243.88  1328.48
   3      1.14729822    -0.52613744  -116.80608670    -0.00012916    -0.00240597  0.11D-04  0.14D-04  3  3  8549.62  1331.79
   4      1.14821607    -0.52613472  -116.80608398     0.00000272    -0.00046409  0.66D-06  0.13D-05  4  4  9851.71  1332.74
   5      1.14838269    -0.52613665  -116.80608591    -0.00000193    -0.00004499  0.20D-06  0.92D-07  5  5 11158.63  1334.29
   6      1.14843068    -0.52613369  -116.80608295     0.00000296    -0.00001040  0.22D-07  0.76D-08  6  6 12467.14  1335.82
   7      1.14844109    -0.52613244  -116.80608170     0.00000125    -0.00000211  0.21D-08  0.95D-09  6  2 13776.90  1336.86
   8      1.14844350    -0.52613226  -116.80608152     0.00000018    -0.00000011  0.32D-09  0.10D-09  6  1 15084.90  1337.50
   9      1.14844442    -0.52613220  -116.80608146     0.00000005    -0.00000004  0.23D-10  0.15D-10  6  3 16392.53  1338.03
  10      1.14844453    -0.52613221  -116.80608147    -0.00000001     0.00000011  0.25D-11  0.17D-11  6  4 17708.27  1339.37
  11      1.14844449    -0.52613222  -116.80608148    -0.00000001     0.00000007  0.40D-12  0.24D-12  6  5 19035.14  1341.79
  12      1.14844447    -0.52613222  -116.80608148    -0.00000000     0.00000002  0.90D-13  0.32D-13  6  6 20360.68  1343.47
  13      1.14844445    -0.52613222  -116.80608148    -0.00000000     0.00000001  0.28D-13  0.86D-14  6  5 21688.45  1345.04
  14      1.14844444    -0.52613222  -116.80608148    -0.00000000     0.00000000  0.30D-14  0.91D-15  6  2 23008.43  1345.77
  15      1.14844444    -0.52613222  -116.80608148    -0.00000000    -0.00000000  0.45D-15  0.17D-15  6  3 24331.69  1346.56
  16      1.14844444    -0.52613222  -116.80608148    -0.00000000    -0.00000000  0.10D-15  0.33D-16  6  1 25653.23  1347.11
  17      1.14844444    -0.52613222  -116.80608148    -0.00000000    -0.00000000  0.41D-16  0.13D-16  6  4 26976.45  1347.66

 Norm of t1 vector:      0.04988133      S-energy:    -0.00000000      T1 diagnostic:  0.00881786
                                                                       D1 diagnostic:  0.01990828

   CPU time for triples:   3455.96 sec for i =  1 -  4 /  8 (~  14.3 % done)
   CPU time for triples:   3477.47 sec for i =  5 -  5 /  8 (~  26.8 % done)
   CPU time for triples:   5217.70 sec for i =  6 -  6 /  8 (~  44.6 % done)
   CPU time for triples:   5211.88 sec for i =  7 -  7 /  8 (~  68.8 % done)
   CPU time for triples:   6947.00 sec for i =  8 -  8 /  8 (  100.0 % done)

 Total CPU time for triples:  24379.78 sec


 RESULTS
 =======

  Reference energy                   -116.279949259887
  CCSD singlet pair energy             -0.380156893016
  CCSD triplet pair energy             -0.145975326743
  CCSD correlation energy              -0.526132220066

  Triples (T) contribution             -0.017076504033
  Total correlation energy             -0.543208724099

  CCSD total energy                  -116.806081479953
  CCSD[T] energy                     -116.823702703861
  CCSD-T energy                      -116.822941218602
 !CCSD(T) total energy               -116.823157983985

 Timing summary (sec):

 STEP                 CPU(USER)    SYS     CPU(TOT)    WALL
 Transformation       4653.03    175.52   4828.55   4845.56
 CCSD iterations     22323.87    541.21  22865.08  22911.87
 Triples             24379.78    853.25  25233.03  25265.96

 Program statistics:

 Available memory in ccsd:              1999999734
 Min. memory needed in ccsd:              48755833
 Max. memory used in ccsd:                63342105
 Max. memory used in cckext:              42809278 (17 integral passes)



 **********************************************************************************************************************************
 DATASETS  * FILE   NREC   LENGTH (MB)   RECORD NAMES
              1      19    12452.38       500      610      700      900      950      970     1000      129      960     1100   
                                          VAR    BASINP    GEOM    SYMINP    ZMAT    AOBASIS   BASIS     P2S    ABASIS      S 
                                         1400     1410     1200     1210     1080     1600     1650     1700     1380   
                                           T        V       H0       H01     AOSYM     SMH    MOLCAS    OPER     JKOP   

              2       4       13.79       700     1000      520     2100   
                                         GEOM     BASIS   MCVARS     RHF  

 PROGRAMS   *        TOTAL   CCSD(T)    HF-SCF       INT
 CPU TIMES  *     58245.44  51356.94   4471.43   2416.83
 REAL TIME  *     60829.42 SEC
 DISK USED  *        14.28 GB (local),      513.95 GB (total)
 SF USED    *        13.87 GB
 GA USED    *         0.00 MB       (max)       0.00 MB       (current)
 **********************************************************************************************************************************

 Running procedure: SET_MONOMER1

 Dummy atoms: C1  H41  H42  H43  H44


 Recomputing one-electron integrals since nuclear charges changed


 PROGRAM * SEWARD (Integral evaluation for generally contracted gaussian basis sets)     Author: Roland Lindh, 1990

 Geometry written to block  1 of record 700


 Point group  C1  



 ATOMIC COORDINATES

 NR  ATOM    CHARGE       X              Y              Z

   1  O2      8.00   -0.132091856   -0.427456049    5.428616238
   2  H3      1.00    1.200731980   -1.541827545    5.988353116
   3  H4      1.00   -1.735713445   -1.363059454    5.806183518
   4  C1      0.00   -6.193010455    2.801518980    2.403542658
   5  H41     0.00   -4.656285171    1.699997622    3.119937832
   6  H42     0.00   -5.973046335    4.726205038    2.982932688
   7  H43     0.00   -7.940251230    2.077186956    3.118237078
   8  H44     0.00   -6.176569838    2.685300823    0.384937212

 Bond lengths in Bohr (Angstrom)

 1-2  1.825253018  1-3  1.894601009  4-5  2.021904040  4-6  2.022002335  4-7  2.021953343
     ( 0.965882301)     ( 1.002579678)     ( 1.069945541)     ( 1.069997556)     ( 1.069971630)

 4-8  2.022015060
     ( 1.070004290)

 Bond angles

  2-1-3  104.80057086   5-4-6  109.53398059   5-4-7  109.65604535   5-4-8  108.43490854

  6-4-7  109.49436728   6-4-8  109.86987750   7-4-8  109.83468330

 NUCLEAR CHARGE:                   10
 NUMBER OF PRIMITIVE AOS:        1046
 NUMBER OF SYMMETRY AOS:          786
 NUMBER OF CONTRACTIONS:          734   (  734A   )
 NUMBER OF CORE ORBITALS:           1   (    1A   )
 NUMBER OF VALENCE ORBITALS:        6   (    6A   )

 MOLECULE CHANGED: INITIALIZING OCCUPATION AND DUMP RECORDS


 NUCLEAR REPULSION ENERGY    8.94474756

 Basis set:  JKFIT                   
 Basis size:  1104
 Attributes:
 Sphericals:   T
 Basis set:  MP2FIT                  
 Basis size:  1246
 Attributes:
 Sphericals:   T
 Basis set:  RI                      
 Basis size:   730
 Attributes:
 Sphericals:   T
 Basis set:  TDDFT                   
 Basis size:  1246
 Attributes:
 Sphericals:   T

 Eigenvalues of metric

         1 0.106E-05 0.206E-05 0.316E-05 0.466E-05 0.486E-05 0.663E-05 0.878E-05 0.902E-05


 Contracted 2-electron integrals neglected if value below      1.0D-14

 OPERATOR DM      FOR CENTER  0  COORDINATES:    0.000000    0.000000    0.000000


 **********************************************************************************************************************************
 DATASETS  * FILE   NREC   LENGTH (MB)   RECORD NAMES
              1      18       49.80       500      610      700      900      950      970     1000      129      960     1100   
                                          VAR    BASINP    GEOM    SYMINP    ZMAT    AOBASIS   BASIS     P2S    ABASIS      S 
                                         1400     1410     1200     1210     1080     1600     1650     1700   
                                           T        V       H0       H01     AOSYM     SMH    MOLCAS    OPER   

              2       5       24.61       700     1000      520     2100      200   
                                         GEOM     BASIS   MCVARS     RHF    OPTIONS    

 PROGRAMS   *        TOTAL       INT   CCSD(T)    HF-SCF       INT
 CPU TIMES  *     58246.51      1.06  51356.94   4471.43   2416.83
 REAL TIME  *     60832.40 SEC
 DISK USED  *        14.28 GB (local),      513.99 GB (total)
 SF USED    *        13.87 GB
 GA USED    *         0.00 MB       (max)       0.00 MB       (current)
 **********************************************************************************************************************************


 PROGRAM * RHF-SCF (CLOSED SHELL)       Authors: W. Meyer, H.-J. Werner


 NUMBER OF ELECTRONS:       5+    5-    SPACE SYMMETRY=1    SPIN SYMMETRY: Singlet 
 CONVERGENCE THRESHOLDS:    1.00E-08 (Density)    1.00E-11 (Energy)
 MAX. NUMBER OF ITERATIONS:       60
 INTERPOLATION TYPE:            DIIS
 INTERPOLATION STEPS:              2 (START)      1 (STEP)
 LEVEL SHIFTS:                  0.00 (CLOSED)  0.00 (OPEN) 



 Orbital guess generated from atomic densities. Full valence occupancy:    7

 Molecular orbital dump at record        2101.2

 Initial occupancy:   5

 ITERATION    DDIFF          GRAD             ENERGY        2-EL.EN.            DIPOLE MOMENTS         DIIS   ORB.
    1      0.000D+00      0.000D+00       -76.02451205     77.342084   -0.15113   -1.05020    0.47976    0    start
    2      0.000D+00      0.361D-02       -76.05141550     73.655231   -0.07564   -0.60569    0.27710    1    diag
    3      0.132D-02      0.231D-02       -76.06327400     75.298644   -0.09216   -0.71723    0.32803    2    diag
    4      0.501D-03      0.217D-03       -76.06347466     75.206648   -0.08923   -0.71258    0.32599    3    diag
    5      0.644D-04      0.617D-04       -76.06349723     75.221563   -0.08802   -0.71087    0.32524    4    diag
    6      0.213D-04      0.126D-04       -76.06349877     75.220407   -0.08764   -0.71046    0.32506    5    diag
    7      0.582D-05      0.261D-05       -76.06349885     75.220553   -0.08754   -0.71033    0.32500    6    diag
    8      0.158D-05      0.481D-06       -76.06349885     75.220539   -0.08752   -0.71029    0.32499    7    diag
    9      0.317D-06      0.668D-07       -76.06349885     75.220530   -0.08752   -0.71029    0.32498    8    diag
   10      0.529D-07      0.157D-07       -76.06349885     75.220532   -0.08752   -0.71029    0.32498    9    orth
   11      0.118D-07      0.372D-08       -76.06349885     75.220532   -0.08752   -0.71029    0.32498    9    diag
   12      0.233D-08      0.726D-09       -76.06349885     75.220532   -0.08752   -0.71029    0.32498    0    orth

 Final occupancy:   5

 !RHF STATE  1.1 Energy               -76.063498850832
 Nuclear energy                         8.94474756
 One-electron energy                 -122.61851240
 Two-electron energy                   37.61026599
 Virial quotient                       -1.00216251
 !RHF STATE  1.1 Dipole moment         -0.08752217    -0.71028685     0.32498459
 Dipole moment /Debye                  -0.22244460    -1.80525085     0.82597434

 Orbital energies:

         1.1          2.1          3.1          4.1          5.1          6.1          7.1
    -20.568453    -1.339228    -0.703882    -0.579114    -0.508312     0.017078     0.029633


 HOMO      5.1    -0.508312 =     -13.8319eV
 LUMO      6.1     0.017078 =       0.4647eV
 LUMO-HOMO         0.525390 =      14.2966eV


 **********************************************************************************************************************************
 DATASETS  * FILE   NREC   LENGTH (MB)   RECORD NAMES
              1      18       49.80       500      610      700      900      950      970     1000      129      960     1100   
                                          VAR    BASINP    GEOM    SYMINP    ZMAT    AOBASIS   BASIS     P2S    ABASIS      S 
                                         1400     1410     1200     1210     1080     1600     1650     1700   
                                           T        V       H0       H01     AOSYM     SMH    MOLCAS    OPER   

              2       6       38.39       700     1000      520     2100      200     2101   
                                         GEOM     BASIS   MCVARS     RHF    OPTIONS    RHF  

 PROGRAMS   *        TOTAL    HF-SCF       INT   CCSD(T)    HF-SCF       INT
 CPU TIMES  *     62863.43   4616.92      1.06  51356.94   4471.43   2416.83
 REAL TIME  *     65851.03 SEC
 DISK USED  *        14.28 GB (local),      513.99 GB (total)
 SF USED    *        13.87 GB
 GA USED    *         0.00 MB       (max)       0.00 MB       (current)
 **********************************************************************************************************************************

 Basis set:  JKFIT                   
 Basis size:  1104
 Attributes:
 Sphericals:   T
 Basis set:  MP2FIT                  
 Basis size:  1246
 Attributes:
 Sphericals:   T
 Basis set:  RI                      
 Basis size:   730
 Attributes:
 Sphericals:   T
 Basis set:  TDDFT                   
 Basis size:  1246
 Attributes:
 Sphericals:   T

 PROGRAM * CCSD (Closed-shell coupled cluster)     Authors: C. Hampel, H.-J. Werner, 1991, M. Deegan, P.J. Knowles, 1992


 Convergence thresholds:  THRVAR = 1.00D-08  THRDEN = 1.00D-10

 CCSD(T)     terms to be evaluated (factor= 1.000)


 Number of core orbitals:           1 (   1 )
 Number of closed-shell orbitals:   4 (   4 )
 Number of external orbitals:     729 ( 729 )

 Molecular orbitals read from record     2101.2  Type=RHF/CANONICAL (state 1.1)

 Number of N-1 electron functions:               4
 Number of N-2 electron functions:              10
 Number of singly external CSFs:              2916
 Number of doubly external CSFs:           4252986
 Total number of CSFs:                     4255903

 Length of J-op  integral file:               0.00 MB
 Length of K-op  integral file:              37.04 MB
 Length of 3-ext integral record:             0.00 MB

 For full I/O caching in triples, increase memory by 535.09 Mwords to 2535.14 Mwords.

 Integral transformation finished. Total CPU:2604.54 sec, npass=  1  Memory used:1010.01 MW

 Reference energy:                    -76.06349885

 MP2 singlet pair energy:              -0.19250912
 MP2 triplet pair energy:              -0.10244176
 MP2 correlation energy:               -0.29495088
 MP2 total energy:                    -76.35844973

 SCS-MP2 correlation energy:           -0.29475248   (PS=  1.200000  PT=  0.333333)
 SCS-MP2 total energy:                -76.35825133

 ITER.      SQ.NORM     CORR.ENERGY   TOTAL ENERGY   ENERGY CHANGE        DEN1      VAR(S)    VAR(P)  DIIS     TIME  TIME/IT
   1      1.06455802    -0.29477796   -76.35827681     0.00017292     0.00620081  0.83D-03  0.11D-02  1  1  3131.35   548.25
   2      1.06820202    -0.29502162   -76.35852047    -0.00024366    -0.00501653  0.16D-04  0.12D-03  2  2  3652.02   547.90
   3      1.06967963    -0.29510523   -76.35860408    -0.00008361    -0.00104890  0.83D-05  0.70D-05  3  3  4176.18   548.73
   4      1.07018034    -0.29510374   -76.35860259     0.00000149    -0.00024200  0.53D-06  0.77D-06  4  4  4696.75   548.13
   5      1.07028854    -0.29510208   -76.35860094     0.00000165    -0.00003267  0.17D-06  0.53D-07  5  5  5218.29   547.95
   6      1.07032550    -0.29509942   -76.35859827     0.00000266    -0.00000809  0.17D-07  0.43D-08  6  6  5739.47   548.16
   7      1.07033330    -0.29509891   -76.35859776     0.00000051    -0.00000069  0.12D-08  0.63D-09  6  1  6263.91   548.46
   8      1.07033489    -0.29509883   -76.35859768     0.00000008     0.00000008  0.19D-09  0.72D-10  6  2  6785.58   548.44
   9      1.07033555    -0.29509878   -76.35859763     0.00000005    -0.00000000  0.12D-10  0.73D-11  6  3  7307.04   548.32
  10      1.07033563    -0.29509878   -76.35859763     0.00000000     0.00000005  0.18D-11  0.83D-12  6  4  7829.26   548.22
  11      1.07033562    -0.29509878   -76.35859763    -0.00000000     0.00000002  0.39D-12  0.14D-12  6  5  8355.24   548.45
  12      1.07033561    -0.29509878   -76.35859763    -0.00000000     0.00000001  0.80D-13  0.20D-13  6  6  8881.71   548.88
  13      1.07033560    -0.29509878   -76.35859764    -0.00000000     0.00000000  0.12D-13  0.36D-14  6  1  9410.58   549.33
  14      1.07033560    -0.29509878   -76.35859764    -0.00000000     0.00000000  0.14D-14  0.71D-15  6  2  9939.19   549.73
  15      1.07033560    -0.29509878   -76.35859764    -0.00000000     0.00000000  0.15D-15  0.95D-16  6  3 10469.03   550.09
  16      1.07033560    -0.29509878   -76.35859764    -0.00000000     0.00000000  0.21D-16  0.14D-16  6  4 10998.30   550.35

 Norm of t1 vector:      0.03806458      S-energy:    -0.00000000      T1 diagnostic:  0.00951614
                                                                       D1 diagnostic:  0.01968556


 Total CPU time for triples:   3603.48 sec


 RESULTS
 =======

  Reference energy                    -76.063498850834
  CCSD singlet pair energy             -0.204655946652
  CCSD triplet pair energy             -0.090442838038
  CCSD correlation energy              -0.295098784749

  Triples (T) contribution             -0.009937618970
  Total correlation energy             -0.305036403719

  CCSD total energy                   -76.358597635582
  CCSD[T] energy                      -76.368854216538
  CCSD-T energy                       -76.368387184988
 !CCSD(T) total energy                -76.368535254553

 Timing summary (sec):

 STEP                 CPU(USER)    SYS     CPU(TOT)    WALL
 Transformation       2607.24    101.19   2708.43   2716.80
 CCSD iterations      8391.44    394.57   8786.01   8807.18
 Triples              3603.48    127.86   3731.34   3736.15

 Program statistics:

 Available memory in ccsd:              1999999921
 Min. memory needed in ccsd:              19268142
 Max. memory used in ccsd:                22427508
 Max. memory used in cckext:              14646566 (16 integral passes)



 **********************************************************************************************************************************
 DATASETS  * FILE   NREC   LENGTH (MB)   RECORD NAMES
              1      19     6330.40       500      610      700      900      950      970     1000      129      960     1100   
                                          VAR    BASINP    GEOM    SYMINP    ZMAT    AOBASIS   BASIS     P2S    ABASIS      S 
                                         1400     1410     1200     1210     1080     1600     1650     1700     1380   
                                           T        V       H0       H01     AOSYM     SMH    MOLCAS    OPER     JKOP   

              2       6       38.39       700     1000      520     2100      200     2101   
                                         GEOM     BASIS   MCVARS     RHF    OPTIONS    RHF  

 PROGRAMS   *        TOTAL   CCSD(T)    HF-SCF       INT   CCSD(T)    HF-SCF       INT
 CPU TIMES  *     77465.94  14602.50   4616.92      1.06  51356.94   4471.43   2416.83
 REAL TIME  *     81112.16 SEC
 DISK USED  *        14.28 GB (local),      513.99 GB (total)
 SF USED    *        13.87 GB
 GA USED    *         0.00 MB       (max)       0.00 MB       (current)
 **********************************************************************************************************************************

 Running procedure: SET_MONOMER2

 Dummy atoms: O2  H3  H4


 Recomputing one-electron integrals since nuclear charges changed


 PROGRAM * SEWARD (Integral evaluation for generally contracted gaussian basis sets)     Author: Roland Lindh, 1990

 Geometry written to block  1 of record 700


 Point group  C1  



 ATOMIC COORDINATES

 NR  ATOM    CHARGE       X              Y              Z

   1  O2      0.00   -0.132091856   -0.427456049    5.428616238
   2  H3      0.00    1.200731980   -1.541827545    5.988353116
   3  H4      0.00   -1.735713445   -1.363059454    5.806183518
   4  C1      6.00   -6.193010455    2.801518980    2.403542658
   5  H41     1.00   -4.656285171    1.699997622    3.119937832
   6  H42     1.00   -5.973046335    4.726205038    2.982932688
   7  H43     1.00   -7.940251230    2.077186956    3.118237078
   8  H44     1.00   -6.176569838    2.685300823    0.384937212

 Bond lengths in Bohr (Angstrom)

 1-2  1.825253018  1-3  1.894601009  4-5  2.021904040  4-6  2.022002335  4-7  2.021953343
     ( 0.965882301)     ( 1.002579678)     ( 1.069945541)     ( 1.069997556)     ( 1.069971630)

 4-8  2.022015060
     ( 1.070004290)

 Bond angles

  2-1-3  104.80057086   5-4-6  109.53398059   5-4-7  109.65604535   5-4-8  108.43490854

  6-4-7  109.49436728   6-4-8  109.86987750   7-4-8  109.83468330

 NUCLEAR CHARGE:                   10
 NUMBER OF PRIMITIVE AOS:        1046
 NUMBER OF SYMMETRY AOS:          786
 NUMBER OF CONTRACTIONS:          734   (  734A   )
 NUMBER OF CORE ORBITALS:           1   (    1A   )
 NUMBER OF VALENCE ORBITALS:        8   (    8A   )

 MOLECULE CHANGED: INITIALIZING OCCUPATION AND DUMP RECORDS


 NUCLEAR REPULSION ENERGY   13.68681606

 Basis set:  JKFIT                   
 Basis size:  1104
 Attributes:
 Sphericals:   T
 Basis set:  MP2FIT                  
 Basis size:  1246
 Attributes:
 Sphericals:   T
 Basis set:  RI                      
 Basis size:   730
 Attributes:
 Sphericals:   T
 Basis set:  TDDFT                   
 Basis size:  1246
 Attributes:
 Sphericals:   T

 Eigenvalues of metric

         1 0.106E-05 0.206E-05 0.316E-05 0.466E-05 0.486E-05 0.663E-05 0.878E-05 0.902E-05


 Contracted 2-electron integrals neglected if value below      1.0D-14

 OPERATOR DM      FOR CENTER  0  COORDINATES:    0.000000    0.000000    0.000000


 **********************************************************************************************************************************
 DATASETS  * FILE   NREC   LENGTH (MB)   RECORD NAMES
              1      18       49.80       500      610      700      900      950      970     1000      129      960     1100   
                                          VAR    BASINP    GEOM    SYMINP    ZMAT    AOBASIS   BASIS     P2S    ABASIS      S 
                                         1400     1410     1200     1210     1080     1600     1650     1700   
                                           T        V       H0       H01     AOSYM     SMH    MOLCAS    OPER   

              2       6       38.39       700     1000      520     2100      200     2101   
                                         GEOM     BASIS   MCVARS     RHF    OPTIONS    RHF  

 PROGRAMS   *        TOTAL       INT   CCSD(T)    HF-SCF       INT   CCSD(T)    HF-SCF       INT
 CPU TIMES  *     77466.89      0.95  14602.50   4616.92      1.06  51356.94   4471.43   2416.83
 REAL TIME  *     81114.49 SEC
 DISK USED  *        14.28 GB (local),      513.99 GB (total)
 SF USED    *        13.87 GB
 GA USED    *         0.00 MB       (max)       0.00 MB       (current)
 **********************************************************************************************************************************


 PROGRAM * RHF-SCF (CLOSED SHELL)       Authors: W. Meyer, H.-J. Werner


 NUMBER OF ELECTRONS:       5+    5-    SPACE SYMMETRY=1    SPIN SYMMETRY: Singlet 
 CONVERGENCE THRESHOLDS:    1.00E-08 (Density)    1.00E-11 (Energy)
 MAX. NUMBER OF ITERATIONS:       60
 INTERPOLATION TYPE:            DIIS
 INTERPOLATION STEPS:              2 (START)      1 (STEP)
 LEVEL SHIFTS:                  0.00 (CLOSED)  0.00 (OPEN) 



 Orbital guess generated from atomic densities. Full valence occupancy:    9

 Molecular orbital dump at record        2102.2

 Initial occupancy:   5

 ITERATION    DDIFF          GRAD             ENERGY        2-EL.EN.            DIPOLE MOMENTS         DIIS   ORB.
    1      0.000D+00      0.000D+00       -40.19676553     53.509907    0.00410   -0.00276   -0.00131    0    start
    2      0.000D+00      0.198D-02       -40.21405772     52.218483    0.00128   -0.00087   -0.00039    1    diag
    3      0.953D-03      0.769D-03       -40.21634114     52.673989    0.00181   -0.00123   -0.00056    2    diag
    4      0.262D-03      0.192D-03       -40.21666146     52.619252    0.00161   -0.00110   -0.00049    3    diag
    5      0.103D-03      0.248D-04       -40.21666695     52.621410    0.00158   -0.00108   -0.00048    4    diag
    6      0.341D-04      0.204D-05       -40.21666699     52.621538    0.00158   -0.00108   -0.00048    5    diag
    7      0.563D-05      0.166D-06       -40.21666699     52.621500    0.00158   -0.00108   -0.00048    6    diag
    8      0.320D-06      0.136D-07       -40.21666699     52.621501    0.00158   -0.00108   -0.00048    7    diag
    9      0.575D-07      0.167D-08       -40.21666699     52.621501    0.00158   -0.00108   -0.00048    8    diag
   10      0.101D-07      0.465D-09       -40.21666699     52.621501    0.00158   -0.00108   -0.00048    9    orth
   11      0.109D-08      0.667D-10       -40.21666699     52.621501    0.00158   -0.00108   -0.00048    0    orth

 Final occupancy:   5

 !RHF STATE  1.1 Energy               -40.216666990393
 Nuclear energy                        13.68681606
 One-electron energy                  -80.21423347
 Two-electron energy                   26.31075042
 Virial quotient                       -0.99832810
 !RHF STATE  1.1 Dipole moment          0.00158073    -0.00107559    -0.00048103
 Dipole moment /Debye                   0.00401756    -0.00273371    -0.00122258

 Orbital energies:

         1.1          2.1          3.1          4.1          5.1          6.1          7.1
    -11.196017    -0.950605    -0.551931    -0.549996    -0.547818     0.020241     0.031629


 HOMO      5.1    -0.547818 =     -14.9069eV
 LUMO      6.1     0.020241 =       0.5508eV
 LUMO-HOMO         0.568058 =      15.4576eV


 **********************************************************************************************************************************
 DATASETS  * FILE   NREC   LENGTH (MB)   RECORD NAMES
              1      18       49.80       500      610      700      900      950      970     1000      129      960     1100   
                                          VAR    BASINP    GEOM    SYMINP    ZMAT    AOBASIS   BASIS     P2S    ABASIS      S 
                                         1400     1410     1200     1210     1080     1600     1650     1700   
                                           T        V       H0       H01     AOSYM     SMH    MOLCAS    OPER   

              2       7       62.47       700     1000      520     2100      200     2101     2102   
                                         GEOM     BASIS   MCVARS     RHF    OPTIONS    RHF      RHF  

 PROGRAMS   *        TOTAL    HF-SCF       INT   CCSD(T)    HF-SCF       INT   CCSD(T)    HF-SCF       INT
 CPU TIMES  *     81602.28   4135.38      0.95  14602.50   4616.92      1.06  51356.94   4471.43   2416.83
 REAL TIME  *     85604.97 SEC
 DISK USED  *        14.28 GB (local),      513.99 GB (total)
 SF USED    *        13.87 GB
 GA USED    *         0.00 MB       (max)       0.00 MB       (current)
 **********************************************************************************************************************************

 Basis set:  JKFIT                   
 Basis size:  1104
 Attributes:
 Sphericals:   T
 Basis set:  MP2FIT                  
 Basis size:  1246
 Attributes:
 Sphericals:   T
 Basis set:  RI                      
 Basis size:   730
 Attributes:
 Sphericals:   T
 Basis set:  TDDFT                   
 Basis size:  1246
 Attributes:
 Sphericals:   T

 PROGRAM * CCSD (Closed-shell coupled cluster)     Authors: C. Hampel, H.-J. Werner, 1991, M. Deegan, P.J. Knowles, 1992


 Convergence thresholds:  THRVAR = 1.00D-08  THRDEN = 1.00D-10

 CCSD(T)     terms to be evaluated (factor= 1.000)


 Number of core orbitals:           1 (   1 )
 Number of closed-shell orbitals:   4 (   4 )
 Number of external orbitals:     729 ( 729 )

 Molecular orbitals read from record     2102.2  Type=RHF/CANONICAL (state 1.1)

 Number of N-1 electron functions:               4
 Number of N-2 electron functions:              10
 Number of singly external CSFs:              2916
 Number of doubly external CSFs:           4252986
 Total number of CSFs:                     4255903

 Length of J-op  integral file:               0.00 MB
 Length of K-op  integral file:              37.04 MB
 Length of 3-ext integral record:             0.00 MB

 For full I/O caching in triples, increase memory by 535.09 Mwords to 2535.14 Mwords.

 Integral transformation finished. Total CPU:2507.13 sec, npass=  1  Memory used:1010.01 MW

 Reference energy:                    -40.21666699

 MP2 singlet pair energy:              -0.15788057
 MP2 triplet pair energy:              -0.05682308
 MP2 correlation energy:               -0.21470365
 MP2 total energy:                    -40.43137064

 SCS-MP2 correlation energy:           -0.22481327   (PS=  1.200000  PT=  0.333333)
 SCS-MP2 total energy:                -40.44148026

 ITER.      SQ.NORM     CORR.ENERGY   TOTAL ENERGY   ENERGY CHANGE        DEN1      VAR(S)    VAR(P)  DIIS     TIME  TIME/IT
   1      1.07073094    -0.22924463   -40.44591162    -0.01454098    -0.00880870  0.58D-03  0.96D-03  1  1  3018.64   531.16
   2      1.07565257    -0.23033936   -40.44700635    -0.00109473    -0.00537195  0.15D-04  0.11D-03  2  2  3532.48   535.02
   3      1.07738934    -0.23037986   -40.44704685    -0.00004050    -0.00128269  0.20D-05  0.63D-05  3  3  4047.51   536.93
   4      1.07777976    -0.23038159   -40.44704858    -0.00000173    -0.00020103  0.14D-06  0.36D-06  4  4  4562.20   537.44
   5      1.07783415    -0.23038535   -40.44705234    -0.00000376    -0.00001098  0.13D-07  0.24D-07  5  5  5077.09   537.92
   6      1.07784429    -0.23038404   -40.44705103     0.00000131    -0.00000413  0.79D-09  0.17D-08  6  6  5589.34   537.93
   7      1.07784562    -0.23038366   -40.44705065     0.00000038    -0.00000074  0.52D-10  0.13D-09  6  1  6103.01   537.98
   8      1.07784554    -0.23038372   -40.44705071    -0.00000006     0.00000024  0.56D-11  0.80D-11  6  3  6618.00   538.23
   9      1.07784568    -0.23038370   -40.44705069     0.00000002    -0.00000009  0.40D-12  0.57D-12  6  2  7134.51   538.57
  10      1.07784568    -0.23038370   -40.44705069     0.00000000     0.00000001  0.55D-13  0.61D-13  6  4  7653.68   539.20
  11      1.07784568    -0.23038370   -40.44705069     0.00000000     0.00000000  0.12D-13  0.10D-13  6  2  8172.03   539.58
  12      1.07784568    -0.23038370   -40.44705069     0.00000000     0.00000000  0.43D-15  0.51D-15  6  5  8689.47   539.87
  13      1.07784568    -0.23038370   -40.44705069     0.00000000     0.00000000  0.52D-16  0.60D-16  6  1  9209.99   540.34
  14      1.07784568    -0.23038370   -40.44705069     0.00000000    -0.00000000  0.82D-17  0.10D-16  6  6  9729.18   540.65

 Norm of t1 vector:      0.03186033      S-energy:    -0.00000000      T1 diagnostic:  0.00796508
                                                                       D1 diagnostic:  0.01279410

 Total CPU time for triples:   3579.38 sec


 RESULTS
 =======

  Reference energy                    -40.216666990393
  CCSD singlet pair energy             -0.175401445608
  CCSD triplet pair energy             -0.054982250572
  CCSD correlation energy              -0.230383696215

  Triples (T) contribution             -0.007018856162
  Total correlation energy             -0.237402552378

  CCSD total energy                   -40.447050686609
  CCSD[T] energy                      -40.454293383588
  CCSD-T energy                       -40.454002588211
 !CCSD(T) total energy                -40.454069542771

 Timing summary (sec):

 STEP                 CPU(USER)    SYS     CPU(TOT)    WALL
 Transformation       2509.78     97.81   2607.59   2612.23
 CCSD iterations      7219.79    339.56   7559.35   7570.59
 Triples              3579.38    130.18   3709.56   3713.94

 Program statistics:

 Available memory in ccsd:              1999999916
 Min. memory needed in ccsd:              19268142
 Max. memory used in ccsd:                22427508
 Max. memory used in cckext:              14646566 (14 integral passes)



 **********************************************************************************************************************************
 DATASETS  * FILE   NREC   LENGTH (MB)   RECORD NAMES
              1      19     6330.40       500      610      700      900      950      970     1000      129      960     1100   
                                          VAR    BASINP    GEOM    SYMINP    ZMAT    AOBASIS   BASIS     P2S    ABASIS      S 
                                         1400     1410     1200     1210     1080     1600     1650     1700     1380   
                                           T        V       H0       H01     AOSYM     SMH    MOLCAS    OPER     JKOP   

              2       7       62.47       700     1000      520     2100      200     2101     2102   
                                         GEOM     BASIS   MCVARS     RHF    OPTIONS    RHF      RHF  

 PROGRAMS   *        TOTAL   CCSD(T)    HF-SCF       INT   CCSD(T)    HF-SCF       INT   CCSD(T)    HF-SCF       INT
 CPU TIMES  *     94911.56  13309.29   4135.38      0.95  14602.50   4616.92      1.06  51356.94   4471.43   2416.83
 REAL TIME  *     99502.68 SEC
 DISK USED  *        14.28 GB (local),      513.99 GB (total)
 SF USED    *        13.87 GB
 GA USED    *         0.00 MB       (max)       0.00 MB       (current)
 **********************************************************************************************************************************
 Molecular orbitals read from record     2102.2  Type=RHF/CANONICAL (state 1.1)
 Occupation numbers read from record     2102.2  Type=RHF/RHF (state 1.1)
 Orbital energies read from record       2102.2  Type=RHF/CANONICAL (state 1.1)
 Redundancy group numbers read from rec  2102.2  Type=RHF/RHF (state 1.1)

 CCSD(T)/aug-cc-pV5Z energy=    -40.454069542771

         CCSD(T)          HF-SCF         CCSD(T)          HF-SCF         CCSD(T)          HF-SCF
    -40.45406954    -40.21666699    -76.36853525    -76.06349885   -116.82315798   -116.27994926
 **********************************************************************************************************************************
 Molpro calculation terminated
