
 Primary working directories    : /scratch/klimes/400919/molpro.rXTcd7sqpZ
 Secondary working directories  : /scratch/klimes/400919/molpro.rXTcd7sqpZ
 Wavefunction directory         : /scratch/klimes/400919/
 Main file repository           : /scratch/klimes/400919/molpro.rXTcd7sqpZ/

 id        : karlovklimes

 Nodes                      nprocs
 nc-05.cc.karlov.mff.cuni.cz    4

 Using customized tuning parameters: mindgm=1; mindgv=20; mindgc=4; mindgr=1; noblas=0; minvec=7
 default implementation of scratch files=sf  


 Variables initialized (930), CPU time= 0.01 sec
                                                                                 !gdirect
 memory,2000,m
 gthresh,orbital=1d-10,energy=1d-10,grid=1d-8
 
 symmetry,nosym
 angstrom
 geometry={
 O3        -0.151700000000      2.697200000000     -0.844800000000
 H5         0.533400000000      2.998100000000     -1.454900000000
 H6        -1.003200000000      2.770600000000     -1.357600000000
 C1        -3.277200000000      1.482500000000      1.271900000000
 H41        -2.464000000000      0.899600000000      1.651000000000
 H42        -3.160800000000      2.501000000000      1.578500000000
 H43        -4.201800000000      1.099200000000      1.650100000000
 H44        -3.268500000000      1.421000000000      0.203700000000
 }
 
 nkerna=1
 nkernb=1
 
 gf=0
 sing=1
 thrdum=1d-4
 gridthr=1d-8
 
 basis={
 set,orbital
 default,av5z
 set,jkfit
 default,av5z/jkfit
 set,mp2fit
 default,av5z/mp2fit
 set,ri
 default,av5z/optri
 set,tddft
 default,av5z/mp2fit
 }
 
 proc set_monomer1
 dummy,4,5,6,7,8
 endproc
 
 proc set_monomer2
 dummy,1,2,3
 endproc
 
                                                                                 !1234 energy
 {hf,accu=1.d-16}
 ccsd(t)
 
 set_monomer1
 {hf,accu=1.d-16}
 ccsd(t)
 
 set_monomer2
 {hf,accu=1.d-16}
 ccsd(t)
 
 Commands  initialized (760), CPU time= 0.01 sec, 617 directives.
 Default parameters read. Elapsed time= 0.18 sec

 Checking input...
 Passed
1


                                         ***  PROGRAM SYSTEM MOLPRO  ***
                                       Copyright, TTI GmbH Stuttgart, 2015
                                    Version 2019.1 linked Jan 14 2019 13:09:19


 **********************************************************************************************************************************
 LABEL *                                                                                 
  64 bit mpp version                                                                     DATE: 14-Mar-20          TIME: 12:28:11  
 **********************************************************************************************************************************

 SHA1:             d688ac825633d238f2093ded1675ba87ccd55965
 **********************************************************************************************************************************

 THRESHOLDS:

 ZERO    =  1.00D-12  ONEINT  =  1.00D-12  TWOINT  =  1.00D-11  PREFAC  =  1.00D-14  XXXXXX  =  1.00D-09  EORDER  =  1.00D-04
 ENERGY  =  1.00D-10  ETEST   =  0.00D+00  EDENS   =  0.00D+00  THRDEDEF=  1.00D-06  GRADIENT=  1.00D-02  STEP    =  1.00D-03
 ORBITAL =  1.00D-10  CIVEC   =  1.00D-05  COEFF   =  1.00D-04  PRINTCI =  5.00D-02  PUNCHCI =  9.90D+01  OPTGRAD =  3.00D-04
 OPTENERG=  1.00D-06  OPTSTEP =  3.00D-04  THRGRAD =  1.00D-10  COMPRESS=  1.00D-11  VARMIN  =  1.00D-07  VARMAX  =  1.00D-03
 THRDOUB =  0.00D+00  THRDIV  =  1.00D-05  THRRED  =  1.00D-07  THRPSP  =  1.00D+00  THRDC   =  1.00D-10  THRCS   =  1.00D-10
 THRNRM  =  1.00D-08  THREQ   =  0.00D+00  THRDE   =  1.00D+00  THRREF  =  1.00D-05  SPARFAC =  1.00D+00  THRDLP  =  1.00D-07
 THRDIA  =  1.00D-10  THRDLS  =  1.00D-07  THRGPS  =  0.00D+00  THRKEX  =  0.00D+00  THRDIS  =  2.00D-01  THRVAR  =  1.00D-10
 THRLOC  =  1.00D-06  THRGAP  =  1.00D-06  THRLOCT = -1.00D+00  THRGAPT = -1.00D+00  THRORB  =  1.00D-06  THRMLTP =  0.00D+00
 THRCPQCI=  1.00D-10  KEXTA   =  0.00D+00  THRCOARS=  0.00D+00  SYMTOL  =  1.00D-06  GRADTOL =  1.00D-06  THROVL  =  1.00D-08
 THRORTH =  1.00D-08  GRID    =  1.00D-08  GRIDMAX =  1.00D-03  DTMAX   =  0.00D+00  THROCCDE=  1.00D-01  THROCCDE=  1.00D-01
 THRPRINT=  2.50D-01


 Variable memory set to 2000000000 words,  buffer space 

 ZSYMEL=NOSYM
 ZUNIT=ANG


Geometry recognized as XYZ

 SETTING NKERNA         =         1.00000000                                  
 SETTING NKERNB         =         1.00000000                                  
 SETTING GF             =     0.00000000D+00                                  
 SETTING SING           =         1.00000000                                  
 SETTING THRDUM         =     1.00000000D-04                                  
 SETTING GRIDTHR        =     1.00000000D-08                                  
 SETTING BASIS          =    AV5Z


 Recomputing integrals since basis changed


 Using spherical harmonics

 Library entry O      S aug-cc-pV5Z          selected for orbital group  1
 Library entry O      P aug-cc-pV5Z          selected for orbital group  1
 Library entry O      D aug-cc-pV5Z          selected for orbital group  1
 Library entry O      F aug-cc-pV5Z          selected for orbital group  1
 Library entry O      G aug-cc-pV5Z          selected for orbital group  1
 Library entry O      H aug-cc-pV5Z          selected for orbital group  1
 Library entry H      S aug-cc-pV5Z          selected for orbital group  2
 Library entry H      P aug-cc-pV5Z          selected for orbital group  2
 Library entry H      D aug-cc-pV5Z          selected for orbital group  2
 Library entry H      F aug-cc-pV5Z          selected for orbital group  2
 Library entry H      G aug-cc-pV5Z          selected for orbital group  2
 Library entry C      S aug-cc-pV5Z          selected for orbital group  3
 Library entry C      P aug-cc-pV5Z          selected for orbital group  3
 Library entry C      D aug-cc-pV5Z          selected for orbital group  3
 Library entry C      F aug-cc-pV5Z          selected for orbital group  3
 Library entry C      G aug-cc-pV5Z          selected for orbital group  3
 Library entry C      H aug-cc-pV5Z          selected for orbital group  3


 PROGRAM * SEWARD (Integral evaluation for generally contracted gaussian basis sets)     Author: Roland Lindh, 1990

 Geometry written to block  1 of record 700


 Point group  C1  



 ATOMIC COORDINATES

 NR  ATOM    CHARGE       X              Y              Z

   1  O3      8.00   -0.286671453    5.096969303   -1.596440630
   2  H5      1.00    1.007979915    5.665587894   -2.749362539
   3  H6      1.00   -1.895773248    5.235675201   -2.565492187
   4  C1      6.00   -6.193010455    2.801518980    2.403542658
   5  H41     1.00   -4.656285171    1.699997622    3.119937832
   6  H42     1.00   -5.973046335    4.726205038    2.982932688
   7  H43     1.00   -7.940251230    2.077186956    3.118237078
   8  H44     1.00   -6.176569838    2.685300823    0.384937212

 Bond lengths in Bohr (Angstrom)

 1-2  1.824466550  1-3  1.883483165  4-5  2.021904040  4-6  2.022002335  4-7  2.021953343
     ( 0.965466121)     ( 0.996696368)     ( 1.069945541)     ( 1.069997556)     ( 1.069971630)

 4-8  2.022015060
     ( 1.070004290)

 Bond angles

  2-1-3  104.96066383   5-4-6  109.53398059   5-4-7  109.65604535   5-4-8  108.43490854

  6-4-7  109.49436728   6-4-8  109.86987750   7-4-8  109.83468330

 NUCLEAR CHARGE:                   20
 NUMBER OF PRIMITIVE AOS:        1046
 NUMBER OF SYMMETRY AOS:          786
 NUMBER OF CONTRACTIONS:          734   (  734A   )
 NUMBER OF CORE ORBITALS:           2   (    2A   )
 NUMBER OF VALENCE ORBITALS:       14   (   14A   )


 NUCLEAR REPULSION ENERGY   35.80046073


 Basis set:  JKFIT                   
 Basis size:  1104
 Attributes:
 Sphericals:   T
 Basis set:  MP2FIT                  
 Basis size:  1246
 Attributes:
 Sphericals:   T
 Basis set:  RI                      
 Basis size:   730
 Attributes:
 Sphericals:   T
 Basis set:  TDDFT                   
 Basis size:  1246
 Attributes:
 Sphericals:   T

 **********************************************************************************************************************************


 Eigenvalues of metric

         1 0.154E-05 0.186E-05 0.352E-05 0.489E-05 0.545E-05 0.758E-05 0.791E-05 0.911E-05


 Contracted 2-electron integrals neglected if value below      1.0D-14
 AO integral compression algorithm  1   Integral accuracy      1.0D-14

     144244.212 MB (compressed) written to integral file ( 45.7%)

     Node minimum: 33513.013 MB, node maximum: 37075.288 MB


 NUMBER OF SORTED TWO-ELECTRON INTEGRALS: 9095363064.     BUFFER LENGTH:  32768
 NUMBER OF SEGMENTS: 190  SEGMENT LENGTH:   47999780      RECORD LENGTH: 131072

 Memory used in sort:      48.16 MW

 SORT1 READ 39465657057. AND WROTE  6567941581. INTEGRALS IN  75261 RECORDS. CPU TIME:  1084.45 SEC, REAL TIME:  1228.25 SEC
 SORT2 READ 26275208391. AND WROTE 36381317385. INTEGRALS IN 565724 RECORDS. CPU TIME:   103.73 SEC, REAL TIME:   911.48 SEC

 Node minimum:  9095228192.  Node maximum:  9095430501. integrals

 OPERATOR DM      FOR CENTER  0  COORDINATES:    0.000000    0.000000    0.000000


 **********************************************************************************************************************************
 DATASETS  * FILE   NREC   LENGTH (MB)   RECORD NAMES
              1      18       49.80       500      610      700      900      950      970     1000      129      960     1100   
                                          VAR    BASINP    GEOM    SYMINP    ZMAT    AOBASIS   BASIS     P2S    ABASIS      S 
                                         1400     1410     1200     1210     1080     1600     1650     1700   
                                           T        V       H0       H01     AOSYM     SMH    MOLCAS    OPER   

 PROGRAMS   *        TOTAL       INT
 CPU TIMES  *      2180.22   2180.01
 REAL TIME  *      3210.50 SEC
 DISK USED  *        50.44 MB (local),      459.38 GB (total)
 GA USED    *         0.00 MB       (max)       0.00 MB       (current)
 **********************************************************************************************************************************


 PROGRAM * RHF-SCF (CLOSED SHELL)       Authors: W. Meyer, H.-J. Werner


 NUMBER OF ELECTRONS:      10+   10-    SPACE SYMMETRY=1    SPIN SYMMETRY: Singlet 
 CONVERGENCE THRESHOLDS:    1.00E-08 (Density)    1.00E-11 (Energy)
 MAX. NUMBER OF ITERATIONS:       60
 INTERPOLATION TYPE:            DIIS
 INTERPOLATION STEPS:              2 (START)      1 (STEP)
 LEVEL SHIFTS:                  0.00 (CLOSED)  0.00 (OPEN) 



 Orbital guess generated from atomic densities. Full valence occupancy:   16

 Molecular orbital dump at record        2100.2

 Initial occupancy:  10

 ITERATION    DDIFF          GRAD             ENERGY        2-EL.EN.            DIPOLE MOMENTS         DIIS   ORB.
    1      0.000D+00      0.000D+00      -116.22158979    157.339060   -0.16738    0.35794   -1.08725    0    start
    2      0.000D+00      0.292D-02      -116.26601146    152.270968   -0.04915    0.20820   -0.60711    1    diag
    3      0.162D-02      0.173D-02      -116.27993103    154.374922   -0.07826    0.24680   -0.72935    2    diag
    4      0.560D-03      0.255D-03      -116.28059489    154.261702   -0.07550    0.24349   -0.71883    3    diag
    5      0.122D-03      0.750D-04      -116.28066482    154.256808   -0.07469    0.24354   -0.71836    4    diag
    6      0.490D-04      0.182D-04      -116.28066871    154.262415   -0.07431    0.24332   -0.71763    5    diag
    7      0.174D-04      0.367D-05      -116.28066894    154.260736   -0.07427    0.24334   -0.71765    6    diag
    8      0.539D-05      0.946D-06      -116.28066896    154.260914   -0.07422    0.24332   -0.71760    7    diag
    9      0.135D-05      0.222D-06      -116.28066896    154.260888   -0.07421    0.24331   -0.71758    8    diag
   10      0.291D-06      0.257D-07      -116.28066896    154.260889   -0.07421    0.24331   -0.71758    9    orth
   11      0.623D-07      0.584D-08      -116.28066896    154.260890   -0.07421    0.24331   -0.71758    9    diag
   12      0.502D-08      0.153D-08      -116.28066896    154.260890   -0.07421    0.24331   -0.71758    0    orth

 Final occupancy:  10

 !RHF STATE  1.1 Energy              -116.280668963468
 Nuclear energy                        35.80046073
 One-electron energy                 -229.21157487
 Two-electron energy                   77.13044518
 Virial quotient                       -1.00074302
 !RHF STATE  1.1 Dipole moment         -0.07421197     0.24331400    -0.71757799
 Dipole moment /Debye                  -0.18861565     0.61840199    -1.82378187

 Orbital energies:

         1.1          2.1          3.1          4.1          5.1          6.1          7.1          8.1          9.1         10.1
    -20.567605   -11.191731    -1.340324    -0.946139    -0.705612    -0.579265    -0.547701    -0.545416    -0.543318    -0.508231

        11.1         12.1
      0.020727     0.029982


 HOMO     10.1    -0.508231 =     -13.8297eV
 LUMO     11.1     0.020727 =       0.5640eV
 LUMO-HOMO         0.528957 =      14.3937eV


 **********************************************************************************************************************************
 DATASETS  * FILE   NREC   LENGTH (MB)   RECORD NAMES
              1      18       49.80       500      610      700      900      950      970     1000      129      960     1100   
                                          VAR    BASINP    GEOM    SYMINP    ZMAT    AOBASIS   BASIS     P2S    ABASIS      S 
                                         1400     1410     1200     1210     1080     1600     1650     1700   
                                           T        V       H0       H01     AOSYM     SMH    MOLCAS    OPER   

              2       4       13.79       700     1000      520     2100   
                                         GEOM     BASIS   MCVARS     RHF  

 PROGRAMS   *        TOTAL    HF-SCF       INT
 CPU TIMES  *      4380.94   2200.72   2180.01
 REAL TIME  *      5686.37 SEC
 DISK USED  *       102.61 MB (local),      459.59 GB (total)
 SF USED    *         2.16 MB
 GA USED    *         0.00 MB       (max)       0.00 MB       (current)
 **********************************************************************************************************************************

 Basis set:  JKFIT                   
 Basis size:  1104
 Attributes:
 Sphericals:   T
 Basis set:  MP2FIT                  
 Basis size:  1246
 Attributes:
 Sphericals:   T
 Basis set:  RI                      
 Basis size:   730
 Attributes:
 Sphericals:   T
 Basis set:  TDDFT                   
 Basis size:  1246
 Attributes:
 Sphericals:   T

 PROGRAM * CCSD (Closed-shell coupled cluster)     Authors: C. Hampel, H.-J. Werner, 1991, M. Deegan, P.J. Knowles, 1992


 Convergence thresholds:  THRVAR = 1.00D-08  THRDEN = 1.00D-10

 CCSD(T)     terms to be evaluated (factor= 1.000)


 Number of core orbitals:           2 (   2 )
 Number of closed-shell orbitals:   8 (   8 )
 Number of external orbitals:     724 ( 724 )

 Molecular orbitals read from record     2100.2  Type=RHF/CANONICAL (state 1.1)

 Number of N-1 electron functions:               8
 Number of N-2 electron functions:              36
 Number of singly external CSFs:              5792
 Number of doubly external CSFs:          16776528
 Total number of CSFs:                    16782321

 Length of J-op  integral file:               0.00 MB
 Length of K-op  integral file:              37.04 MB
 Length of 3-ext integral record:             0.00 MB

 For full I/O caching in triples, increase memory by 2034.74 Mwords to 4034.79 Mwords.

 Integral transformation finished. Total CPU:2775.43 sec, npass=  1  Memory used:1826.26 MW

 Reference energy:                   -116.28066896

 MP2 singlet pair energy:              -0.35035411
 MP2 triplet pair energy:              -0.15952783
 MP2 correlation energy:               -0.50988195
 MP2 total energy:                   -116.79055091

 SCS-MP2 correlation energy:           -0.51968670   (PS=  1.200000  PT=  0.333333)
 SCS-MP2 total energy:               -116.80035566

 ITER.      SQ.NORM     CORR.ENERGY   TOTAL ENERGY   ENERGY CHANGE        DEN1      VAR(S)    VAR(P)  DIIS     TIME  TIME/IT
   1      1.13527595    -0.52424814  -116.80491710    -0.01436619    -0.00264082  0.14D-02  0.20D-02  1  1  3872.40  1114.13
   2      1.14368444    -0.52557960  -116.80624856    -0.00133146    -0.01026356  0.31D-04  0.26D-03  2  2  4976.83  1118.60
   3      1.14700601    -0.52570859  -116.80637755    -0.00012899    -0.00239835  0.11D-04  0.14D-04  3  3  6081.80  1119.85
   4      1.14791881    -0.52570608  -116.80637504     0.00000251    -0.00046184  0.65D-06  0.13D-05  4  4  7190.13  1121.32
   5      1.14808410    -0.52570795  -116.80637691    -0.00000187    -0.00004454  0.20D-06  0.91D-07  5  5  8294.18  1121.75
   6      1.14813184    -0.52570498  -116.80637394     0.00000296    -0.00001037  0.21D-07  0.75D-08  6  6  9400.10  1122.17
   7      1.14814226    -0.52570373  -116.80637269     0.00000125    -0.00000214  0.20D-08  0.93D-09  6  2 10503.34  1122.13
   8      1.14814466    -0.52570355  -116.80637251     0.00000018    -0.00000012  0.31D-09  0.98D-10  6  1 11607.38  1122.17
   9      1.14814557    -0.52570349  -116.80637246     0.00000005    -0.00000004  0.23D-10  0.15D-10  6  3 12711.79  1122.15
  10      1.14814567    -0.52570350  -116.80637246    -0.00000001     0.00000011  0.25D-11  0.17D-11  6  4 13815.56  1122.07
  11      1.14814564    -0.52570350  -116.80637247    -0.00000001     0.00000007  0.39D-12  0.24D-12  6  5 14920.87  1122.07
  12      1.14814561    -0.52570350  -116.80637247    -0.00000000     0.00000002  0.83D-13  0.30D-13  6  6 16024.59  1122.12
  13      1.14814559    -0.52570351  -116.80637247    -0.00000000     0.00000001  0.16D-13  0.44D-14  6  2 17132.44  1122.37
  14      1.14814558    -0.52570351  -116.80637247    -0.00000000     0.00000000  0.25D-14  0.95D-15  6  1 18236.53  1122.38
  15      1.14814558    -0.52570351  -116.80637247    -0.00000000     0.00000000  0.33D-15  0.15D-15  6  3 19345.38  1122.65
  16      1.14814558    -0.52570351  -116.80637247    -0.00000000    -0.00000000  0.50D-16  0.24D-16  6  4 20451.57  1122.69
  17      1.14814558    -0.52570351  -116.80637247     0.00000000    -0.00000000  0.19D-16  0.83D-17  6  5 21557.95  1122.70

 Norm of t1 vector:      0.04978950      S-energy:    -0.00000000      T1 diagnostic:  0.00880162
                                                                       D1 diagnostic:  0.01976391

   CPU time for triples:   3307.36 sec for i =  1 -  4 /  8 (~  14.3 % done)
   CPU time for triples:   3302.77 sec for i =  5 -  5 /  8 (~  26.8 % done)
   CPU time for triples:   4969.32 sec for i =  6 -  6 /  8 (~  44.6 % done)
   CPU time for triples:   4969.90 sec for i =  7 -  7 /  8 (~  68.8 % done)
   CPU time for triples:   6623.58 sec for i =  8 -  8 /  8 (  100.0 % done)

 Total CPU time for triples:  23198.84 sec


 RESULTS
 =======

  Reference energy                   -116.280668963469
  CCSD singlet pair energy             -0.379948297019
  CCSD triplet pair energy             -0.145755209186
  CCSD correlation energy              -0.525703506439

  Triples (T) contribution             -0.017003900664
  Total correlation energy             -0.542707407103

  CCSD total energy                  -116.806372469908
  CCSD[T] energy                     -116.823918805931
  CCSD-T energy                      -116.823161244275
 !CCSD(T) total energy               -116.823376370572

 Timing summary (sec):

 STEP                 CPU(USER)    SYS     CPU(TOT)    WALL
 Transformation       2781.68     59.97   2841.65   2853.04
 CCSD iterations     18776.68    259.72  19036.40  19086.95
 Triples             23198.84    167.03  23365.87  23402.85

 Program statistics:

 Available memory in ccsd:              1999999734
 Min. memory needed in ccsd:              48755833
 Max. memory used in ccsd:                63342105
 Max. memory used in cckext:              42809278 (17 integral passes)



 **********************************************************************************************************************************
 DATASETS  * FILE   NREC   LENGTH (MB)   RECORD NAMES
              1      19    12452.38       500      610      700      900      950      970     1000      129      960     1100   
                                          VAR    BASINP    GEOM    SYMINP    ZMAT    AOBASIS   BASIS     P2S    ABASIS      S 
                                         1400     1410     1200     1210     1080     1600     1650     1700     1380   
                                           T        V       H0       H01     AOSYM     SMH    MOLCAS    OPER     JKOP   

              2       4       13.79       700     1000      520     2100   
                                         GEOM     BASIS   MCVARS     RHF  

 PROGRAMS   *        TOTAL   CCSD(T)    HF-SCF       INT
 CPU TIMES  *     49138.40  44757.45   2200.72   2180.01
 REAL TIME  *     51030.34 SEC
 DISK USED  *        14.28 GB (local),      510.86 GB (total)
 SF USED    *        13.87 GB
 GA USED    *         0.00 MB       (max)       0.00 MB       (current)
 **********************************************************************************************************************************

 Running procedure: SET_MONOMER1

 Dummy atoms: C1  H41  H42  H43  H44


 Recomputing one-electron integrals since nuclear charges changed


 PROGRAM * SEWARD (Integral evaluation for generally contracted gaussian basis sets)     Author: Roland Lindh, 1990

 Geometry written to block  1 of record 700


 Point group  C1  



 ATOMIC COORDINATES

 NR  ATOM    CHARGE       X              Y              Z

   1  O3      8.00   -0.286671453    5.096969303   -1.596440630
   2  H5      1.00    1.007979915    5.665587894   -2.749362539
   3  H6      1.00   -1.895773248    5.235675201   -2.565492187
   4  C1      0.00   -6.193010455    2.801518980    2.403542658
   5  H41     0.00   -4.656285171    1.699997622    3.119937832
   6  H42     0.00   -5.973046335    4.726205038    2.982932688
   7  H43     0.00   -7.940251230    2.077186956    3.118237078
   8  H44     0.00   -6.176569838    2.685300823    0.384937212

 Bond lengths in Bohr (Angstrom)

 1-2  1.824466550  1-3  1.883483165  4-5  2.021904040  4-6  2.022002335  4-7  2.021953343
     ( 0.965466121)     ( 0.996696368)     ( 1.069945541)     ( 1.069997556)     ( 1.069971630)

 4-8  2.022015060
     ( 1.070004290)

 Bond angles

  2-1-3  104.96066383   5-4-6  109.53398059   5-4-7  109.65604535   5-4-8  108.43490854

  6-4-7  109.49436728   6-4-8  109.86987750   7-4-8  109.83468330

 NUCLEAR CHARGE:                   10
 NUMBER OF PRIMITIVE AOS:        1046
 NUMBER OF SYMMETRY AOS:          786
 NUMBER OF CONTRACTIONS:          734   (  734A   )
 NUMBER OF CORE ORBITALS:           1   (    1A   )
 NUMBER OF VALENCE ORBITALS:        6   (    6A   )

 MOLECULE CHANGED: INITIALIZING OCCUPATION AND DUMP RECORDS


 NUCLEAR REPULSION ENERGY    8.97229507

 Basis set:  JKFIT                   
 Basis size:  1104
 Attributes:
 Sphericals:   T
 Basis set:  MP2FIT                  
 Basis size:  1246
 Attributes:
 Sphericals:   T
 Basis set:  RI                      
 Basis size:   730
 Attributes:
 Sphericals:   T
 Basis set:  TDDFT                   
 Basis size:  1246
 Attributes:
 Sphericals:   T

 Eigenvalues of metric

         1 0.154E-05 0.186E-05 0.352E-05 0.489E-05 0.545E-05 0.758E-05 0.791E-05 0.911E-05


 Contracted 2-electron integrals neglected if value below      1.0D-14

 OPERATOR DM      FOR CENTER  0  COORDINATES:    0.000000    0.000000    0.000000


 **********************************************************************************************************************************
 DATASETS  * FILE   NREC   LENGTH (MB)   RECORD NAMES
              1      18       49.80       500      610      700      900      950      970     1000      129      960     1100   
                                          VAR    BASINP    GEOM    SYMINP    ZMAT    AOBASIS   BASIS     P2S    ABASIS      S 
                                         1400     1410     1200     1210     1080     1600     1650     1700   
                                           T        V       H0       H01     AOSYM     SMH    MOLCAS    OPER   

              2       5       24.61       700     1000      520     2100      200   
                                         GEOM     BASIS   MCVARS     RHF    OPTIONS    

 PROGRAMS   *        TOTAL       INT   CCSD(T)    HF-SCF       INT
 CPU TIMES  *     49139.27      0.87  44757.45   2200.72   2180.01
 REAL TIME  *     51033.07 SEC
 DISK USED  *        14.28 GB (local),      510.89 GB (total)
 SF USED    *        13.87 GB
 GA USED    *         0.00 MB       (max)       0.00 MB       (current)
 **********************************************************************************************************************************


 PROGRAM * RHF-SCF (CLOSED SHELL)       Authors: W. Meyer, H.-J. Werner


 NUMBER OF ELECTRONS:       5+    5-    SPACE SYMMETRY=1    SPIN SYMMETRY: Singlet 
 CONVERGENCE THRESHOLDS:    1.00E-08 (Density)    1.00E-11 (Energy)
 MAX. NUMBER OF ITERATIONS:       60
 INTERPOLATION TYPE:            DIIS
 INTERPOLATION STEPS:              2 (START)      1 (STEP)
 LEVEL SHIFTS:                  0.00 (CLOSED)  0.00 (OPEN) 



 Orbital guess generated from atomic densities. Full valence occupancy:    7

 Molecular orbital dump at record        2101.2

 Initial occupancy:   5

 ITERATION    DDIFF          GRAD             ENERGY        2-EL.EN.            DIPOLE MOMENTS         DIIS   ORB.
    1      0.000D+00      0.000D+00       -76.02532027     77.380902   -0.17154    0.36106   -1.08713    0    start
    2      0.000D+00      0.361D-02       -76.05219839     73.707143   -0.08955    0.21020   -0.62920    1    diag
    3      0.131D-02      0.230D-02       -76.06393691     75.342156   -0.10804    0.24824   -0.74389    2    diag
    4      0.496D-03      0.216D-03       -76.06413507     75.250374   -0.10541    0.24693   -0.73923    3    diag
    5      0.637D-04      0.611D-04       -76.06415698     75.265130   -0.10434    0.24646   -0.73752    4    diag
    6      0.213D-04      0.123D-04       -76.06415844     75.264010   -0.10401    0.24636   -0.73712    5    diag
    7      0.574D-05      0.254D-05       -76.06415852     75.264156   -0.10392    0.24633   -0.73699    6    diag
    8      0.158D-05      0.475D-06       -76.06415852     75.264143   -0.10391    0.24632   -0.73695    7    diag
    9      0.305D-06      0.654D-07       -76.06415852     75.264133   -0.10390    0.24632   -0.73695    8    diag
   10      0.351D-07      0.151D-07       -76.06415852     75.264136   -0.10390    0.24632   -0.73695    9    orth
   11      0.836D-08      0.341D-08       -76.06415852     75.264136   -0.10390    0.24632   -0.73695    0    orth

 Final occupancy:   5

 !RHF STATE  1.1 Energy               -76.064158519750
 Nuclear energy                         8.97229507
 One-electron energy                 -122.66852149
 Two-electron energy                   37.63206790
 Virial quotient                       -1.00203336
 !RHF STATE  1.1 Dipole moment         -0.10390343     0.24631538    -0.73694673
 Dipole moment /Debye                  -0.26407887     0.62603024    -1.87300906

 Orbital energies:

         1.1          2.1          3.1          4.1          5.1          6.1          7.1
    -20.567870    -1.340566    -0.705813    -0.579447    -0.508496     0.018150     0.027502


 HOMO      5.1    -0.508496 =     -13.8369eV
 LUMO      6.1     0.018150 =       0.4939eV
 LUMO-HOMO         0.526646 =      14.3308eV


 **********************************************************************************************************************************
 DATASETS  * FILE   NREC   LENGTH (MB)   RECORD NAMES
              1      18       49.80       500      610      700      900      950      970     1000      129      960     1100   
                                          VAR    BASINP    GEOM    SYMINP    ZMAT    AOBASIS   BASIS     P2S    ABASIS      S 
                                         1400     1410     1200     1210     1080     1600     1650     1700   
                                           T        V       H0       H01     AOSYM     SMH    MOLCAS    OPER   

              2       6       38.39       700     1000      520     2100      200     2101   
                                         GEOM     BASIS   MCVARS     RHF    OPTIONS    RHF  

 PROGRAMS   *        TOTAL    HF-SCF       INT   CCSD(T)    HF-SCF       INT
 CPU TIMES  *     51040.67   1901.40      0.87  44757.45   2200.72   2180.01
 REAL TIME  *     53058.46 SEC
 DISK USED  *        14.28 GB (local),      510.89 GB (total)
 SF USED    *        13.87 GB
 GA USED    *         0.00 MB       (max)       0.00 MB       (current)
 **********************************************************************************************************************************

 Basis set:  JKFIT                   
 Basis size:  1104
 Attributes:
 Sphericals:   T
 Basis set:  MP2FIT                  
 Basis size:  1246
 Attributes:
 Sphericals:   T
 Basis set:  RI                      
 Basis size:   730
 Attributes:
 Sphericals:   T
 Basis set:  TDDFT                   
 Basis size:  1246
 Attributes:
 Sphericals:   T

 PROGRAM * CCSD (Closed-shell coupled cluster)     Authors: C. Hampel, H.-J. Werner, 1991, M. Deegan, P.J. Knowles, 1992


 Convergence thresholds:  THRVAR = 1.00D-08  THRDEN = 1.00D-10

 CCSD(T)     terms to be evaluated (factor= 1.000)


 Number of core orbitals:           1 (   1 )
 Number of closed-shell orbitals:   4 (   4 )
 Number of external orbitals:     729 ( 729 )

 Molecular orbitals read from record     2101.2  Type=RHF/CANONICAL (state 1.1)

 Number of N-1 electron functions:               4
 Number of N-2 electron functions:              10
 Number of singly external CSFs:              2916
 Number of doubly external CSFs:           4252986
 Total number of CSFs:                     4255903

 Length of J-op  integral file:               0.00 MB
 Length of K-op  integral file:              37.04 MB
 Length of 3-ext integral record:             0.00 MB

 For full I/O caching in triples, increase memory by 535.09 Mwords to 2535.14 Mwords.

 Integral transformation finished. Total CPU:1468.36 sec, npass=  1  Memory used:1010.01 MW

 Reference energy:                    -76.06415852

 MP2 singlet pair energy:              -0.19233596
 MP2 triplet pair energy:              -0.10235430
 MP2 correlation energy:               -0.29469026
 MP2 total energy:                    -76.35884878

 SCS-MP2 correlation energy:           -0.29449027   (PS=  1.200000  PT=  0.333333)
 SCS-MP2 total energy:                -76.35864879

 ITER.      SQ.NORM     CORR.ENERGY   TOTAL ENERGY   ENERGY CHANGE        DEN1      VAR(S)    VAR(P)  DIIS     TIME  TIME/IT
   1      1.06434725    -0.29455547   -76.35871399     0.00013479     0.00611913  0.82D-03  0.11D-02  1  1  1833.54   372.96
   2      1.06795603    -0.29479831   -76.35895683    -0.00024284    -0.00498567  0.16D-04  0.12D-03  2  2  2198.54   374.62
   3      1.06941134    -0.29487994   -76.35903846    -0.00008163    -0.00103765  0.81D-05  0.69D-05  3  3  2563.39   375.01
   4      1.06990351    -0.29487833   -76.35903685     0.00000161    -0.00023854  0.52D-06  0.75D-06  4  4  2928.13   375.20
   5      1.07000950    -0.29487667   -76.35903519     0.00000166    -0.00003195  0.17D-06  0.52D-07  5  5  3292.94   375.32
   6      1.07004581    -0.29487403   -76.35903255     0.00000264    -0.00000795  0.17D-07  0.41D-08  6  6  3658.43   375.54
   7      1.07005346    -0.29487353   -76.35903205     0.00000050    -0.00000068  0.12D-08  0.60D-09  6  1  4022.52   375.55
   8      1.07005501    -0.29487345   -76.35903197     0.00000008     0.00000009  0.18D-09  0.70D-10  6  2  4387.86   375.62
   9      1.07005565    -0.29487341   -76.35903192     0.00000005    -0.00000000  0.12D-10  0.72D-11  6  3  4753.01   375.68
  10      1.07005573    -0.29487340   -76.35903192     0.00000000     0.00000005  0.17D-11  0.83D-12  6  4  5118.06   375.73
  11      1.07005572    -0.29487340   -76.35903192    -0.00000000     0.00000002  0.37D-12  0.13D-12  6  5  5482.37   375.74
  12      1.07005571    -0.29487340   -76.35903192    -0.00000000     0.00000001  0.74D-13  0.19D-13  6  6  5846.92   375.71
  13      1.07005570    -0.29487340   -76.35903192    -0.00000000     0.00000000  0.11D-13  0.34D-14  6  1  6211.93   375.74
  14      1.07005570    -0.29487341   -76.35903192    -0.00000000     0.00000000  0.13D-14  0.68D-15  6  2  6575.92   375.70
  15      1.07005570    -0.29487341   -76.35903193    -0.00000000     0.00000000  0.14D-15  0.92D-16  6  3  6941.37   375.75
  16      1.07005570    -0.29487341   -76.35903193    -0.00000000     0.00000000  0.19D-16  0.13D-16  6  4  7307.45   375.83

 Norm of t1 vector:      0.03783133      S-energy:    -0.00000000      T1 diagnostic:  0.00945783
                                                                       D1 diagnostic:  0.01955384


 Total CPU time for triples:   3402.16 sec


 RESULTS
 =======

  Reference energy                    -76.064158519749
  CCSD singlet pair energy             -0.204449659993
  CCSD triplet pair energy             -0.090423744776
  CCSD correlation energy              -0.294873405352

  Triples (T) contribution             -0.009901583790
  Total correlation energy             -0.304774989141

  CCSD total energy                   -76.359031925101
  CCSD[T] energy                      -76.369249475982
  CCSD-T energy                       -76.368786944610
 !CCSD(T) total energy                -76.368933508891

 Timing summary (sec):

 STEP                 CPU(USER)    SYS     CPU(TOT)    WALL
 Transformation       1470.30     30.77   1501.07   1503.46
 CCSD iterations      5837.52    166.04   6003.56   6014.13
 Triples              3402.16     23.34   3425.50   3431.02

 Program statistics:

 Available memory in ccsd:              1999999921
 Min. memory needed in ccsd:              19268142
 Max. memory used in ccsd:                22427508
 Max. memory used in cckext:              14646566 (16 integral passes)



 **********************************************************************************************************************************
 DATASETS  * FILE   NREC   LENGTH (MB)   RECORD NAMES
              1      19     6330.40       500      610      700      900      950      970     1000      129      960     1100   
                                          VAR    BASINP    GEOM    SYMINP    ZMAT    AOBASIS   BASIS     P2S    ABASIS      S 
                                         1400     1410     1200     1210     1080     1600     1650     1700     1380   
                                           T        V       H0       H01     AOSYM     SMH    MOLCAS    OPER     JKOP   

              2       6       38.39       700     1000      520     2100      200     2101   
                                         GEOM     BASIS   MCVARS     RHF    OPTIONS    RHF  

 PROGRAMS   *        TOTAL   CCSD(T)    HF-SCF       INT   CCSD(T)    HF-SCF       INT
 CPU TIMES  *     61750.90  10710.21   1901.40      0.87  44757.45   2200.72   2180.01
 REAL TIME  *     64008.39 SEC
 DISK USED  *        14.28 GB (local),      510.89 GB (total)
 SF USED    *        13.87 GB
 GA USED    *         0.00 MB       (max)       0.00 MB       (current)
 **********************************************************************************************************************************

 Running procedure: SET_MONOMER2

 Dummy atoms: O3  H5  H6


 Recomputing one-electron integrals since nuclear charges changed


 PROGRAM * SEWARD (Integral evaluation for generally contracted gaussian basis sets)     Author: Roland Lindh, 1990

 Geometry written to block  1 of record 700


 Point group  C1  



 ATOMIC COORDINATES

 NR  ATOM    CHARGE       X              Y              Z

   1  O3      0.00   -0.286671453    5.096969303   -1.596440630
   2  H5      0.00    1.007979915    5.665587894   -2.749362539
   3  H6      0.00   -1.895773248    5.235675201   -2.565492187
   4  C1      6.00   -6.193010455    2.801518980    2.403542658
   5  H41     1.00   -4.656285171    1.699997622    3.119937832
   6  H42     1.00   -5.973046335    4.726205038    2.982932688
   7  H43     1.00   -7.940251230    2.077186956    3.118237078
   8  H44     1.00   -6.176569838    2.685300823    0.384937212

 Bond lengths in Bohr (Angstrom)

 1-2  1.824466550  1-3  1.883483165  4-5  2.021904040  4-6  2.022002335  4-7  2.021953343
     ( 0.965466121)     ( 0.996696368)     ( 1.069945541)     ( 1.069997556)     ( 1.069971630)

 4-8  2.022015060
     ( 1.070004290)

 Bond angles

  2-1-3  104.96066383   5-4-6  109.53398059   5-4-7  109.65604535   5-4-8  108.43490854

  6-4-7  109.49436728   6-4-8  109.86987750   7-4-8  109.83468330

 NUCLEAR CHARGE:                   10
 NUMBER OF PRIMITIVE AOS:        1046
 NUMBER OF SYMMETRY AOS:          786
 NUMBER OF CONTRACTIONS:          734   (  734A   )
 NUMBER OF CORE ORBITALS:           1   (    1A   )
 NUMBER OF VALENCE ORBITALS:        8   (    8A   )

 MOLECULE CHANGED: INITIALIZING OCCUPATION AND DUMP RECORDS


 NUCLEAR REPULSION ENERGY   13.68681606

 Basis set:  JKFIT                   
 Basis size:  1104
 Attributes:
 Sphericals:   T
 Basis set:  MP2FIT                  
 Basis size:  1246
 Attributes:
 Sphericals:   T
 Basis set:  RI                      
 Basis size:   730
 Attributes:
 Sphericals:   T
 Basis set:  TDDFT                   
 Basis size:  1246
 Attributes:
 Sphericals:   T

 Eigenvalues of metric

         1 0.154E-05 0.186E-05 0.352E-05 0.489E-05 0.545E-05 0.758E-05 0.791E-05 0.911E-05


 Contracted 2-electron integrals neglected if value below      1.0D-14

 OPERATOR DM      FOR CENTER  0  COORDINATES:    0.000000    0.000000    0.000000


 **********************************************************************************************************************************
 DATASETS  * FILE   NREC   LENGTH (MB)   RECORD NAMES
              1      18       49.80       500      610      700      900      950      970     1000      129      960     1100   
                                          VAR    BASINP    GEOM    SYMINP    ZMAT    AOBASIS   BASIS     P2S    ABASIS      S 
                                         1400     1410     1200     1210     1080     1600     1650     1700   
                                           T        V       H0       H01     AOSYM     SMH    MOLCAS    OPER   

              2       6       38.39       700     1000      520     2100      200     2101   
                                         GEOM     BASIS   MCVARS     RHF    OPTIONS    RHF  

 PROGRAMS   *        TOTAL       INT   CCSD(T)    HF-SCF       INT   CCSD(T)    HF-SCF       INT
 CPU TIMES  *     61751.80      0.90  10710.21   1901.40      0.87  44757.45   2200.72   2180.01
 REAL TIME  *     64010.41 SEC
 DISK USED  *        14.28 GB (local),      510.89 GB (total)
 SF USED    *        13.87 GB
 GA USED    *         0.00 MB       (max)       0.00 MB       (current)
 **********************************************************************************************************************************


 PROGRAM * RHF-SCF (CLOSED SHELL)       Authors: W. Meyer, H.-J. Werner


 NUMBER OF ELECTRONS:       5+    5-    SPACE SYMMETRY=1    SPIN SYMMETRY: Singlet 
 CONVERGENCE THRESHOLDS:    1.00E-08 (Density)    1.00E-11 (Energy)
 MAX. NUMBER OF ITERATIONS:       60
 INTERPOLATION TYPE:            DIIS
 INTERPOLATION STEPS:              2 (START)      1 (STEP)
 LEVEL SHIFTS:                  0.00 (CLOSED)  0.00 (OPEN) 



 Orbital guess generated from atomic densities. Full valence occupancy:    9

 Molecular orbital dump at record        2102.2

 Initial occupancy:   5

 ITERATION    DDIFF          GRAD             ENERGY        2-EL.EN.            DIPOLE MOMENTS         DIIS   ORB.
    1      0.000D+00      0.000D+00       -40.19676513     53.509900    0.00411   -0.00276   -0.00131    0    start
    2      0.000D+00      0.198D-02       -40.21405734     52.218476    0.00129   -0.00087   -0.00038    1    diag
    3      0.947D-03      0.769D-03       -40.21634077     52.673983    0.00182   -0.00123   -0.00055    2    diag
    4      0.258D-03      0.192D-03       -40.21666109     52.619246    0.00162   -0.00110   -0.00049    3    diag
    5      0.963D-04      0.248D-04       -40.21666658     52.621404    0.00159   -0.00108   -0.00048    4    diag
    6      0.324D-04      0.204D-05       -40.21666662     52.621532    0.00159   -0.00108   -0.00048    5    diag
    7      0.614D-05      0.166D-06       -40.21666662     52.621494    0.00159   -0.00108   -0.00048    6    diag
    8      0.407D-06      0.136D-07       -40.21666662     52.621495    0.00159   -0.00108   -0.00048    7    diag
    9      0.532D-07      0.167D-08       -40.21666662     52.621495    0.00159   -0.00108   -0.00048    8    diag
   10      0.108D-07      0.465D-09       -40.21666662     52.621495    0.00159   -0.00108   -0.00048    9    orth
   11      0.117D-08      0.667D-10       -40.21666662     52.621495    0.00159   -0.00108   -0.00048    0    orth

 Final occupancy:   5

 !RHF STATE  1.1 Energy               -40.216666618913
 Nuclear energy                        13.68681606
 One-electron energy                  -80.21423015
 Two-electron energy                   26.31074747
 Virial quotient                       -0.99832816
 !RHF STATE  1.1 Dipole moment          0.00158978    -0.00107834    -0.00047523
 Dipole moment /Debye                   0.00404056    -0.00274068    -0.00120783

 Orbital energies:

         1.1          2.1          3.1          4.1          5.1          6.1          7.1
    -11.196017    -0.950605    -0.551931    -0.549996    -0.547818     0.020496     0.030149


 HOMO      5.1    -0.547818 =     -14.9069eV
 LUMO      6.1     0.020496 =       0.5577eV
 LUMO-HOMO         0.568314 =      15.4646eV


 **********************************************************************************************************************************
 DATASETS  * FILE   NREC   LENGTH (MB)   RECORD NAMES
              1      18       49.80       500      610      700      900      950      970     1000      129      960     1100   
                                          VAR    BASINP    GEOM    SYMINP    ZMAT    AOBASIS   BASIS     P2S    ABASIS      S 
                                         1400     1410     1200     1210     1080     1600     1650     1700   
                                           T        V       H0       H01     AOSYM     SMH    MOLCAS    OPER   

              2       7       62.47       700     1000      520     2100      200     2101     2102   
                                         GEOM     BASIS   MCVARS     RHF    OPTIONS    RHF      RHF  

 PROGRAMS   *        TOTAL    HF-SCF       INT   CCSD(T)    HF-SCF       INT   CCSD(T)    HF-SCF       INT
 CPU TIMES  *     63659.95   1908.15      0.90  10710.21   1901.40      0.87  44757.45   2200.72   2180.01
 REAL TIME  *     66041.61 SEC
 DISK USED  *        14.28 GB (local),      510.89 GB (total)
 SF USED    *        13.87 GB
 GA USED    *         0.00 MB       (max)       0.00 MB       (current)
 **********************************************************************************************************************************

 Basis set:  JKFIT                   
 Basis size:  1104
 Attributes:
 Sphericals:   T
 Basis set:  MP2FIT                  
 Basis size:  1246
 Attributes:
 Sphericals:   T
 Basis set:  RI                      
 Basis size:   730
 Attributes:
 Sphericals:   T
 Basis set:  TDDFT                   
 Basis size:  1246
 Attributes:
 Sphericals:   T

 PROGRAM * CCSD (Closed-shell coupled cluster)     Authors: C. Hampel, H.-J. Werner, 1991, M. Deegan, P.J. Knowles, 1992


 Convergence thresholds:  THRVAR = 1.00D-08  THRDEN = 1.00D-10

 CCSD(T)     terms to be evaluated (factor= 1.000)


 Number of core orbitals:           1 (   1 )
 Number of closed-shell orbitals:   4 (   4 )
 Number of external orbitals:     729 ( 729 )

 Molecular orbitals read from record     2102.2  Type=RHF/CANONICAL (state 1.1)

 Number of N-1 electron functions:               4
 Number of N-2 electron functions:              10
 Number of singly external CSFs:              2916
 Number of doubly external CSFs:           4252986
 Total number of CSFs:                     4255903

 Length of J-op  integral file:               0.00 MB
 Length of K-op  integral file:              37.04 MB
 Length of 3-ext integral record:             0.00 MB

 For full I/O caching in triples, increase memory by 535.09 Mwords to 2535.14 Mwords.

 Integral transformation finished. Total CPU:1455.70 sec, npass=  1  Memory used:1010.01 MW

 Reference energy:                    -40.21666662

 MP2 singlet pair energy:              -0.15787562
 MP2 triplet pair energy:              -0.05682265
 MP2 correlation energy:               -0.21469827
 MP2 total energy:                    -40.43136489

 SCS-MP2 correlation energy:           -0.22480706   (PS=  1.200000  PT=  0.333333)
 SCS-MP2 total energy:                -40.44147368

 ITER.      SQ.NORM     CORR.ENERGY   TOTAL ENERGY   ENERGY CHANGE        DEN1      VAR(S)    VAR(P)  DIIS     TIME  TIME/IT
   1      1.07073145    -0.22924159   -40.44590821    -0.01454332    -0.00881136  0.58D-03  0.96D-03  1  1  1822.67   374.71
   2      1.07565323    -0.23033632   -40.44700294    -0.00109473    -0.00537198  0.15D-04  0.11D-03  2  2  2187.26   375.07
   3      1.07738977    -0.23037683   -40.44704344    -0.00004051    -0.00128240  0.20D-05  0.63D-05  3  3  2551.26   374.98
   4      1.07778013    -0.23037856   -40.44704517    -0.00000173    -0.00020098  0.14D-06  0.35D-06  4  4  2914.83   374.86
   5      1.07783448    -0.23038232   -40.44704894    -0.00000376    -0.00001096  0.13D-07  0.24D-07  5  5  3278.28   374.79
   6      1.07784461    -0.23038100   -40.44704762     0.00000132    -0.00000414  0.77D-09  0.17D-08  6  6  3643.23   374.94
   7      1.07784592    -0.23038063   -40.44704725     0.00000037    -0.00000073  0.52D-10  0.13D-09  6  1  4006.67   374.90
   8      1.07784585    -0.23038068   -40.44704730    -0.00000006     0.00000024  0.54D-11  0.78D-11  6  3  4371.40   374.99
   9      1.07784598    -0.23038066   -40.44704728     0.00000002    -0.00000009  0.38D-12  0.55D-12  6  2  4735.51   374.99
  10      1.07784598    -0.23038066   -40.44704728     0.00000000     0.00000001  0.52D-13  0.59D-13  6  4  5099.42   374.99
  11      1.07784599    -0.23038066   -40.44704728     0.00000000    -0.00000000  0.53D-14  0.63D-14  6  5  5464.01   375.04
  12      1.07784599    -0.23038066   -40.44704728     0.00000000     0.00000000  0.15D-15  0.64D-15  6  6  5827.76   375.02
  13      1.07784598    -0.23038066   -40.44704728    -0.00000000     0.00000000  0.13D-16  0.73D-16  6  1  6191.94   375.00
  14      1.07784598    -0.23038066   -40.44704728    -0.00000000     0.00000000  0.26D-17  0.14D-16  6  3  6556.37   375.00

 Norm of t1 vector:      0.03185960      S-energy:     0.00000000      T1 diagnostic:  0.00796490
                                                                       D1 diagnostic:  0.01279366

 Total CPU time for triples:   3405.89 sec


 RESULTS
 =======

  Reference energy                    -40.216666618910
  CCSD singlet pair energy             -0.175398769097
  CCSD triplet pair energy             -0.054981892872
  CCSD correlation energy              -0.230380661966

  Triples (T) contribution             -0.007018599660
  Total correlation energy             -0.237399261626

  CCSD total energy                   -40.447047280876
  CCSD[T] energy                      -40.454289719622
  CCSD-T energy                       -40.453998926129
 !CCSD(T) total energy                -40.454065880536

 Timing summary (sec):

 STEP                 CPU(USER)    SYS     CPU(TOT)    WALL
 Transformation       1457.64     30.41   1488.05   1490.50
 CCSD iterations      5099.10    142.52   5241.62   5250.86
 Triples              3405.89     21.69   3427.58   3433.08

 Program statistics:

 Available memory in ccsd:              1999999916
 Min. memory needed in ccsd:              19268142
 Max. memory used in ccsd:                22427508
 Max. memory used in cckext:              14646566 (14 integral passes)



 **********************************************************************************************************************************
 DATASETS  * FILE   NREC   LENGTH (MB)   RECORD NAMES
              1      19     6330.40       500      610      700      900      950      970     1000      129      960     1100   
                                          VAR    BASINP    GEOM    SYMINP    ZMAT    AOBASIS   BASIS     P2S    ABASIS      S 
                                         1400     1410     1200     1210     1080     1600     1650     1700     1380   
                                           T        V       H0       H01     AOSYM     SMH    MOLCAS    OPER     JKOP   

              2       7       62.47       700     1000      520     2100      200     2101     2102   
                                         GEOM     BASIS   MCVARS     RHF    OPTIONS    RHF      RHF  

 PROGRAMS   *        TOTAL   CCSD(T)    HF-SCF       INT   CCSD(T)    HF-SCF       INT   CCSD(T)    HF-SCF       INT
 CPU TIMES  *     73622.87   9962.91   1908.15      0.90  10710.21   1901.40      0.87  44757.45   2200.72   2180.01
 REAL TIME  *     76217.37 SEC
 DISK USED  *        14.28 GB (local),      510.89 GB (total)
 SF USED    *        13.87 GB
 GA USED    *         0.00 MB       (max)       0.00 MB       (current)
 **********************************************************************************************************************************
 Molecular orbitals read from record     2102.2  Type=RHF/CANONICAL (state 1.1)
 Occupation numbers read from record     2102.2  Type=RHF/RHF (state 1.1)
 Orbital energies read from record       2102.2  Type=RHF/CANONICAL (state 1.1)
 Redundancy group numbers read from rec  2102.2  Type=RHF/RHF (state 1.1)

 CCSD(T)/aug-cc-pV5Z energy=    -40.454065880536

         CCSD(T)          HF-SCF         CCSD(T)          HF-SCF         CCSD(T)          HF-SCF
    -40.45406588    -40.21666662    -76.36893351    -76.06415852   -116.82337637   -116.28066896
 **********************************************************************************************************************************
 Molpro calculation terminated
