
 Primary working directories    : /scratch/klimes/400920/molpro.seSjPwx96w
 Secondary working directories  : /scratch/klimes/400920/molpro.seSjPwx96w
 Wavefunction directory         : /scratch/klimes/400920/
 Main file repository           : /scratch/klimes/400920/molpro.seSjPwx96w/

 id        : karlovklimes

 Nodes                      nprocs
 nc-05.cc.karlov.mff.cuni.cz    4

 Using customized tuning parameters: mindgm=1; mindgv=20; mindgc=4; mindgr=1; noblas=0; minvec=7
 default implementation of scratch files=sf  


 Variables initialized (930), CPU time= 0.01 sec
                                                                                 !gdirect
 memory,2000,m
 gthresh,orbital=1d-10,energy=1d-10,grid=1d-8
 
 symmetry,nosym
 angstrom
 geometry={
 O4        -2.158000000000     -1.371300000000     -0.952200000000
 H7        -2.663200000000     -0.760300000000     -1.523700000000
 H8        -1.370200000000     -0.860500000000     -0.644400000000
 C1        -3.277200000000      1.482500000000      1.271900000000
 H41        -2.464000000000      0.899600000000      1.651000000000
 H42        -3.160800000000      2.501000000000      1.578500000000
 H43        -4.201800000000      1.099200000000      1.650100000000
 H44        -3.268500000000      1.421000000000      0.203700000000
 }
 
 nkerna=1
 nkernb=1
 
 gf=0
 sing=1
 thrdum=1d-4
 gridthr=1d-8
 
 basis={
 set,orbital
 default,av5z
 set,jkfit
 default,av5z/jkfit
 set,mp2fit
 default,av5z/mp2fit
 set,ri
 default,av5z/optri
 set,tddft
 default,av5z/mp2fit
 }
 
 proc set_monomer1
 dummy,4,5,6,7,8
 endproc
 
 proc set_monomer2
 dummy,1,2,3
 endproc
 
                                                                                 !1234 energy
 {hf,accu=1.d-16}
 ccsd(t)
 
 set_monomer1
 {hf,accu=1.d-16}
 ccsd(t)
 
 set_monomer2
 {hf,accu=1.d-16}
 ccsd(t)
 
 Commands  initialized (760), CPU time= 0.01 sec, 617 directives.
 Default parameters read. Elapsed time= 0.16 sec

 Checking input...
 Passed
1


                                         ***  PROGRAM SYSTEM MOLPRO  ***
                                       Copyright, TTI GmbH Stuttgart, 2015
                                    Version 2019.1 linked Jan 14 2019 13:09:19


 **********************************************************************************************************************************
 LABEL *                                                                                 
  64 bit mpp version                                                                     DATE: 14-Mar-20          TIME: 12:28:41  
 **********************************************************************************************************************************

 SHA1:             d688ac825633d238f2093ded1675ba87ccd55965
 **********************************************************************************************************************************

 THRESHOLDS:

 ZERO    =  1.00D-12  ONEINT  =  1.00D-12  TWOINT  =  1.00D-11  PREFAC  =  1.00D-14  XXXXXX  =  1.00D-09  EORDER  =  1.00D-04
 ENERGY  =  1.00D-10  ETEST   =  0.00D+00  EDENS   =  0.00D+00  THRDEDEF=  1.00D-06  GRADIENT=  1.00D-02  STEP    =  1.00D-03
 ORBITAL =  1.00D-10  CIVEC   =  1.00D-05  COEFF   =  1.00D-04  PRINTCI =  5.00D-02  PUNCHCI =  9.90D+01  OPTGRAD =  3.00D-04
 OPTENERG=  1.00D-06  OPTSTEP =  3.00D-04  THRGRAD =  1.00D-10  COMPRESS=  1.00D-11  VARMIN  =  1.00D-07  VARMAX  =  1.00D-03
 THRDOUB =  0.00D+00  THRDIV  =  1.00D-05  THRRED  =  1.00D-07  THRPSP  =  1.00D+00  THRDC   =  1.00D-10  THRCS   =  1.00D-10
 THRNRM  =  1.00D-08  THREQ   =  0.00D+00  THRDE   =  1.00D+00  THRREF  =  1.00D-05  SPARFAC =  1.00D+00  THRDLP  =  1.00D-07
 THRDIA  =  1.00D-10  THRDLS  =  1.00D-07  THRGPS  =  0.00D+00  THRKEX  =  0.00D+00  THRDIS  =  2.00D-01  THRVAR  =  1.00D-10
 THRLOC  =  1.00D-06  THRGAP  =  1.00D-06  THRLOCT = -1.00D+00  THRGAPT = -1.00D+00  THRORB  =  1.00D-06  THRMLTP =  0.00D+00
 THRCPQCI=  1.00D-10  KEXTA   =  0.00D+00  THRCOARS=  0.00D+00  SYMTOL  =  1.00D-06  GRADTOL =  1.00D-06  THROVL  =  1.00D-08
 THRORTH =  1.00D-08  GRID    =  1.00D-08  GRIDMAX =  1.00D-03  DTMAX   =  0.00D+00  THROCCDE=  1.00D-01  THROCCDE=  1.00D-01
 THRPRINT=  2.50D-01


 Variable memory set to 2000000000 words,  buffer space 

 ZSYMEL=NOSYM
 ZUNIT=ANG


Geometry recognized as XYZ

 SETTING NKERNA         =         1.00000000                                  
 SETTING NKERNB         =         1.00000000                                  
 SETTING GF             =     0.00000000D+00                                  
 SETTING SING           =         1.00000000                                  
 SETTING THRDUM         =     1.00000000D-04                                  
 SETTING GRIDTHR        =     1.00000000D-08                                  
 SETTING BASIS          =    AV5Z


 Recomputing integrals since basis changed


 Using spherical harmonics

 Library entry O      S aug-cc-pV5Z          selected for orbital group  1
 Library entry O      P aug-cc-pV5Z          selected for orbital group  1
 Library entry O      D aug-cc-pV5Z          selected for orbital group  1
 Library entry O      F aug-cc-pV5Z          selected for orbital group  1
 Library entry O      G aug-cc-pV5Z          selected for orbital group  1
 Library entry O      H aug-cc-pV5Z          selected for orbital group  1
 Library entry H      S aug-cc-pV5Z          selected for orbital group  2
 Library entry H      P aug-cc-pV5Z          selected for orbital group  2
 Library entry H      D aug-cc-pV5Z          selected for orbital group  2
 Library entry H      F aug-cc-pV5Z          selected for orbital group  2
 Library entry H      G aug-cc-pV5Z          selected for orbital group  2
 Library entry C      S aug-cc-pV5Z          selected for orbital group  3
 Library entry C      P aug-cc-pV5Z          selected for orbital group  3
 Library entry C      D aug-cc-pV5Z          selected for orbital group  3
 Library entry C      F aug-cc-pV5Z          selected for orbital group  3
 Library entry C      G aug-cc-pV5Z          selected for orbital group  3
 Library entry C      H aug-cc-pV5Z          selected for orbital group  3


 PROGRAM * SEWARD (Integral evaluation for generally contracted gaussian basis sets)     Author: Roland Lindh, 1990

 Geometry written to block  1 of record 700


 Point group  C1  



 ATOMIC COORDINATES

 NR  ATOM    CHARGE       X              Y              Z

   1  O4      8.00   -4.078028977   -2.591381435   -1.799397216
   2  H7      1.00   -5.032718615   -1.436758773   -2.879375696
   3  H8      1.00   -2.589302736   -1.626109330   -1.217739515
   4  C1      6.00   -6.193010455    2.801518980    2.403542658
   5  H41     1.00   -4.656285171    1.699997622    3.119937832
   6  H42     1.00   -5.973046335    4.726205038    2.982932688
   7  H43     1.00   -7.940251230    2.077186956    3.118237078
   8  H44     1.00   -6.176569838    2.685300823    0.384937212

 Bond lengths in Bohr (Angstrom)

 1-2  1.846872847  1-3  1.867185512  4-5  2.021904040  4-6  2.022002335  4-7  2.021953343
     ( 0.977323022)     ( 0.988072022)     ( 1.069945541)     ( 1.069997556)     ( 1.069971630)

 4-8  2.022015060
     ( 1.070004290)

 Bond angles

  2-1-3  105.73056797   5-4-6  109.53398059   5-4-7  109.65604535   5-4-8  108.43490854

  6-4-7  109.49436728   6-4-8  109.86987750   7-4-8  109.83468330

 NUCLEAR CHARGE:                   20
 NUMBER OF PRIMITIVE AOS:        1046
 NUMBER OF SYMMETRY AOS:          786
 NUMBER OF CONTRACTIONS:          734   (  734A   )
 NUMBER OF CORE ORBITALS:           2   (    2A   )
 NUMBER OF VALENCE ORBITALS:       14   (   14A   )


 NUCLEAR REPULSION ENERGY   36.73664214


 Basis set:  JKFIT                   
 Basis size:  1104
 Attributes:
 Sphericals:   T
 Basis set:  MP2FIT                  
 Basis size:  1246
 Attributes:
 Sphericals:   T
 Basis set:  RI                      
 Basis size:   730
 Attributes:
 Sphericals:   T
 Basis set:  TDDFT                   
 Basis size:  1246
 Attributes:
 Sphericals:   T

 **********************************************************************************************************************************


 Eigenvalues of metric

         1 0.186E-05 0.295E-05 0.353E-05 0.385E-05 0.515E-05 0.713E-05 0.773E-05 0.918E-05


 Contracted 2-electron integrals neglected if value below      1.0D-14
 AO integral compression algorithm  1   Integral accuracy      1.0D-14

     159848.333 MB (compressed) written to integral file ( 50.6%)

     Node minimum: 38036.832 MB, node maximum: 40963.146 MB


 NUMBER OF SORTED TWO-ELECTRON INTEGRALS: 9095363064.     BUFFER LENGTH:  32768
 NUMBER OF SEGMENTS: 190  SEGMENT LENGTH:   47999780      RECORD LENGTH: 131072

 Memory used in sort:      48.16 MW

 SORT1 READ 39471791889. AND WROTE  7195787178. INTEGRALS IN  82437 RECORDS. CPU TIME:  1054.06 SEC, REAL TIME:  1193.51 SEC
 SORT2 READ 28786904113. AND WROTE 36381317385. INTEGRALS IN 616372 RECORDS. CPU TIME:   150.76 SEC, REAL TIME:   928.12 SEC

 Node minimum:  9095228192.  Node maximum:  9095430501. integrals

 OPERATOR DM      FOR CENTER  0  COORDINATES:    0.000000    0.000000    0.000000


 **********************************************************************************************************************************
 DATASETS  * FILE   NREC   LENGTH (MB)   RECORD NAMES
              1      18       49.80       500      610      700      900      950      970     1000      129      960     1100   
                                          VAR    BASINP    GEOM    SYMINP    ZMAT    AOBASIS   BASIS     P2S    ABASIS      S 
                                         1400     1410     1200     1210     1080     1600     1650     1700   
                                           T        V       H0       H01     AOSYM     SMH    MOLCAS    OPER   

 PROGRAMS   *        TOTAL       INT
 CPU TIMES  *      2191.21   2190.99
 REAL TIME  *      3165.98 SEC
 DISK USED  *        50.44 MB (local),      505.13 GB (total)
 GA USED    *         0.00 MB       (max)       0.00 MB       (current)
 **********************************************************************************************************************************


 PROGRAM * RHF-SCF (CLOSED SHELL)       Authors: W. Meyer, H.-J. Werner


 NUMBER OF ELECTRONS:      10+   10-    SPACE SYMMETRY=1    SPIN SYMMETRY: Singlet 
 CONVERGENCE THRESHOLDS:    1.00E-08 (Density)    1.00E-11 (Energy)
 MAX. NUMBER OF ITERATIONS:       60
 INTERPOLATION TYPE:            DIIS
 INTERPOLATION STEPS:              2 (START)      1 (STEP)
 LEVEL SHIFTS:                  0.00 (CLOSED)  0.00 (OPEN) 



 Orbital guess generated from atomic densities. Full valence occupancy:   16

 Molecular orbital dump at record        2100.2

 Initial occupancy:  10

 ITERATION    DDIFF          GRAD             ENERGY        2-EL.EN.            DIPOLE MOMENTS         DIIS   ORB.
    1      0.000D+00      0.000D+00      -116.22150747    158.931857    0.28057    1.08424   -0.25369    0    start
    2      0.000D+00      0.292D-02      -116.26582008    154.067092    0.13310    0.61350   -0.10917    1    diag
    3      0.161D-02      0.172D-02      -116.27957492    156.108555    0.17084    0.73387   -0.14761    2    diag
    4      0.557D-03      0.256D-03      -116.28024566    155.996079    0.16832    0.72333   -0.14658    3    diag
    5      0.125D-03      0.752D-04      -116.28031630    155.990742    0.16774    0.72314   -0.14625    4    diag
    6      0.517D-04      0.183D-04      -116.28032024    155.996437    0.16746    0.72242   -0.14608    5    diag
    7      0.183D-04      0.367D-05      -116.28032048    155.994703    0.16745    0.72245   -0.14610    6    diag
    8      0.539D-05      0.940D-06      -116.28032049    155.994887    0.16741    0.72239   -0.14608    7    diag
    9      0.120D-05      0.222D-06      -116.28032050    155.994860    0.16741    0.72237   -0.14607    8    diag
   10      0.293D-06      0.265D-07      -116.28032050    155.994861    0.16740    0.72237   -0.14607    9    orth
   11      0.619D-07      0.640D-08      -116.28032050    155.994862    0.16740    0.72237   -0.14607    9    diag
   12      0.494D-08      0.177D-08      -116.28032050    155.994862    0.16740    0.72237   -0.14607    0    orth

 Final occupancy:  10

 !RHF STATE  1.1 Energy              -116.280320495862
 Nuclear energy                        36.73664214
 One-electron energy                 -231.01439387
 Two-electron energy                   77.99743124
 Virial quotient                       -1.00078797
 !RHF STATE  1.1 Dipole moment          0.16740414     0.72236601    -0.14607173
 Dipole moment /Debye                   0.42547103     1.83595100    -0.37125299

 Orbital energies:

         1.1          2.1          3.1          4.1          5.1          6.1          7.1          8.1          9.1         10.1
    -20.566836   -11.199706    -1.338332    -0.954158    -0.705585    -0.577772    -0.555902    -0.553050    -0.551647    -0.506778

        11.1         12.1
      0.020125     0.033357


 HOMO     10.1    -0.506778 =     -13.7901eV
 LUMO     11.1     0.020125 =       0.5476eV
 LUMO-HOMO         0.526904 =      14.3378eV


 **********************************************************************************************************************************
 DATASETS  * FILE   NREC   LENGTH (MB)   RECORD NAMES
              1      18       49.80       500      610      700      900      950      970     1000      129      960     1100   
                                          VAR    BASINP    GEOM    SYMINP    ZMAT    AOBASIS   BASIS     P2S    ABASIS      S 
                                         1400     1410     1200     1210     1080     1600     1650     1700   
                                           T        V       H0       H01     AOSYM     SMH    MOLCAS    OPER   

              2       4       13.79       700     1000      520     2100   
                                         GEOM     BASIS   MCVARS     RHF  

 PROGRAMS   *        TOTAL    HF-SCF       INT
 CPU TIMES  *      4175.52   1984.31   2190.99
 REAL TIME  *      5432.93 SEC
 DISK USED  *       102.61 MB (local),      505.34 GB (total)
 SF USED    *         2.16 MB
 GA USED    *         0.00 MB       (max)       0.00 MB       (current)
 **********************************************************************************************************************************

 Basis set:  JKFIT                   
 Basis size:  1104
 Attributes:
 Sphericals:   T
 Basis set:  MP2FIT                  
 Basis size:  1246
 Attributes:
 Sphericals:   T
 Basis set:  RI                      
 Basis size:   730
 Attributes:
 Sphericals:   T
 Basis set:  TDDFT                   
 Basis size:  1246
 Attributes:
 Sphericals:   T

 PROGRAM * CCSD (Closed-shell coupled cluster)     Authors: C. Hampel, H.-J. Werner, 1991, M. Deegan, P.J. Knowles, 1992


 Convergence thresholds:  THRVAR = 1.00D-08  THRDEN = 1.00D-10

 CCSD(T)     terms to be evaluated (factor= 1.000)


 Number of core orbitals:           2 (   2 )
 Number of closed-shell orbitals:   8 (   8 )
 Number of external orbitals:     724 ( 724 )

 Molecular orbitals read from record     2100.2  Type=RHF/CANONICAL (state 1.1)

 Number of N-1 electron functions:               8
 Number of N-2 electron functions:              36
 Number of singly external CSFs:              5792
 Number of doubly external CSFs:          16776528
 Total number of CSFs:                    16782321

 Length of J-op  integral file:               0.00 MB
 Length of K-op  integral file:              37.04 MB
 Length of 3-ext integral record:             0.00 MB

 For full I/O caching in triples, increase memory by 2034.74 Mwords to 4034.79 Mwords.

 Integral transformation finished. Total CPU:2564.66 sec, npass=  1  Memory used:1826.26 MW

 Reference energy:                   -116.28032050

 MP2 singlet pair energy:              -0.35048886
 MP2 triplet pair energy:              -0.15975723
 MP2 correlation energy:               -0.51024609
 MP2 total energy:                   -116.79056658

 SCS-MP2 correlation energy:           -0.51999113   (PS=  1.200000  PT=  0.333333)
 SCS-MP2 total energy:               -116.80031162

 ITER.      SQ.NORM     CORR.ENERGY   TOTAL ENERGY   ENERGY CHANGE        DEN1      VAR(S)    VAR(P)  DIIS     TIME  TIME/IT
   1      1.13545135    -0.52462627  -116.80494676    -0.01438018    -0.00263315  0.14D-02  0.20D-02  1  1  3709.25  1156.25
   2      1.14388520    -0.52596246  -116.80628296    -0.00133620    -0.01027705  0.32D-04  0.26D-03  2  2  4853.90  1160.89
   3      1.14722747    -0.52609130  -116.80641180    -0.00012884    -0.00240594  0.11D-04  0.14D-04  3  3  6002.85  1163.58
   4      1.14814666    -0.52608788  -116.80640838     0.00000342    -0.00046458  0.65D-06  0.13D-05  4  4  7150.41  1164.31
   5      1.14831553    -0.52608969  -116.80641019    -0.00000181    -0.00004571  0.21D-06  0.94D-07  5  5  8298.15  1164.67
   6      1.14836405    -0.52608671  -116.80640721     0.00000298    -0.00001052  0.22D-07  0.79D-08  6  6  9446.67  1165.34
   7      1.14837453    -0.52608545  -116.80640594     0.00000126    -0.00000214  0.22D-08  0.11D-08  6  2 10594.78  1165.70
   8      1.14837698    -0.52608523  -116.80640573     0.00000021    -0.00000020  0.39D-09  0.12D-09  6  1 11747.12  1166.24
   9      1.14837792    -0.52608518  -116.80640568     0.00000005    -0.00000001  0.35D-10  0.18D-10  6  3 12893.37  1166.20
  10      1.14837807    -0.52608518  -116.80640568    -0.00000000     0.00000009  0.39D-11  0.25D-11  6  4 14039.98  1166.00
  11      1.14837804    -0.52608519  -116.80640569    -0.00000001     0.00000008  0.67D-12  0.33D-12  6  5 15189.70  1166.16
  12      1.14837802    -0.52608519  -116.80640569    -0.00000000     0.00000002  0.12D-12  0.44D-13  6  6 16336.88  1166.25
  13      1.14837800    -0.52608519  -116.80640569    -0.00000000     0.00000001  0.23D-13  0.69D-14  6  2 17484.71  1166.27
  14      1.14837800    -0.52608519  -116.80640569    -0.00000000     0.00000000  0.35D-14  0.14D-14  6  1 18632.00  1166.19
  15      1.14837799    -0.52608519  -116.80640569    -0.00000000    -0.00000000  0.42D-15  0.23D-15  6  3 19780.76  1166.18
  16      1.14837799    -0.52608519  -116.80640569    -0.00000000    -0.00000000  0.76D-16  0.35D-16  6  4 20931.11  1166.26
  17      1.14837799    -0.52608519  -116.80640569     0.00000000    -0.00000000  0.22D-16  0.76D-17  6  5 22080.27  1166.30

 Norm of t1 vector:      0.05015873      S-energy:    -0.00000000      T1 diagnostic:  0.00886689
                                                                       D1 diagnostic:  0.02017531

   CPU time for triples:   3402.27 sec for i =  1 -  4 /  8 (~  14.3 % done)
   CPU time for triples:   6816.46 sec for i =  5 -  6 /  8 (~  44.6 % done)
   CPU time for triples:   5113.31 sec for i =  7 -  7 /  8 (~  68.8 % done)
   CPU time for triples:   8539.22 sec for i =  8 -  8 /  8 (  100.0 % done)

 Total CPU time for triples:  23871.32 sec


 RESULTS
 =======

  Reference energy                   -116.280320495860
  CCSD singlet pair energy             -0.380074576681
  CCSD triplet pair energy             -0.146010615752
  CCSD correlation energy              -0.526085192778

  Triples (T) contribution             -0.017082894464
  Total correlation energy             -0.543168087242

  CCSD total energy                  -116.806405688637
  CCSD[T] energy                     -116.824034357957
  CCSD-T energy                      -116.823271304081
 !CCSD(T) total energy               -116.823488583102

 Timing summary (sec):

 STEP                 CPU(USER)    SYS     CPU(TOT)    WALL
 Transformation       2570.66     86.74   2657.40   2666.86
 CCSD iterations     19510.02    281.69  19791.71  19828.14
 Triples             23871.32    395.72  24267.04  24290.85

 Program statistics:

 Available memory in ccsd:              1999999734
 Min. memory needed in ccsd:              48755833
 Max. memory used in ccsd:                63342105
 Max. memory used in cckext:              42809278 (17 integral passes)



 **********************************************************************************************************************************
 DATASETS  * FILE   NREC   LENGTH (MB)   RECORD NAMES
              1      19    12452.38       500      610      700      900      950      970     1000      129      960     1100   
                                          VAR    BASINP    GEOM    SYMINP    ZMAT    AOBASIS   BASIS     P2S    ABASIS      S 
                                         1400     1410     1200     1210     1080     1600     1650     1700     1380   
                                           T        V       H0       H01     AOSYM     SMH    MOLCAS    OPER     JKOP   

              2       4       13.79       700     1000      520     2100   
                                         GEOM     BASIS   MCVARS     RHF  

 PROGRAMS   *        TOTAL   CCSD(T)    HF-SCF       INT
 CPU TIMES  *     50127.79  45952.26   1984.31   2190.99
 REAL TIME  *     52220.89 SEC
 DISK USED  *        14.28 GB (local),      556.61 GB (total)
 SF USED    *        13.87 GB
 GA USED    *         0.00 MB       (max)       0.00 MB       (current)
 **********************************************************************************************************************************

 Running procedure: SET_MONOMER1

 Dummy atoms: C1  H41  H42  H43  H44


 Recomputing one-electron integrals since nuclear charges changed


 PROGRAM * SEWARD (Integral evaluation for generally contracted gaussian basis sets)     Author: Roland Lindh, 1990

 Geometry written to block  1 of record 700


 Point group  C1  



 ATOMIC COORDINATES

 NR  ATOM    CHARGE       X              Y              Z

   1  O4      8.00   -4.078028977   -2.591381435   -1.799397216
   2  H7      1.00   -5.032718615   -1.436758773   -2.879375696
   3  H8      1.00   -2.589302736   -1.626109330   -1.217739515
   4  C1      0.00   -6.193010455    2.801518980    2.403542658
   5  H41     0.00   -4.656285171    1.699997622    3.119937832
   6  H42     0.00   -5.973046335    4.726205038    2.982932688
   7  H43     0.00   -7.940251230    2.077186956    3.118237078
   8  H44     0.00   -6.176569838    2.685300823    0.384937212

 Bond lengths in Bohr (Angstrom)

 1-2  1.846872847  1-3  1.867185512  4-5  2.021904040  4-6  2.022002335  4-7  2.021953343
     ( 0.977323022)     ( 0.988072022)     ( 1.069945541)     ( 1.069997556)     ( 1.069971630)

 4-8  2.022015060
     ( 1.070004290)

 Bond angles

  2-1-3  105.73056797   5-4-6  109.53398059   5-4-7  109.65604535   5-4-8  108.43490854

  6-4-7  109.49436728   6-4-8  109.86987750   7-4-8  109.83468330

 NUCLEAR CHARGE:                   10
 NUMBER OF PRIMITIVE AOS:        1046
 NUMBER OF SYMMETRY AOS:          786
 NUMBER OF CONTRACTIONS:          734   (  734A   )
 NUMBER OF CORE ORBITALS:           1   (    1A   )
 NUMBER OF VALENCE ORBITALS:        6   (    6A   )

 MOLECULE CHANGED: INITIALIZING OCCUPATION AND DUMP RECORDS


 NUCLEAR REPULSION ENERGY    8.95390023

 Basis set:  JKFIT                   
 Basis size:  1104
 Attributes:
 Sphericals:   T
 Basis set:  MP2FIT                  
 Basis size:  1246
 Attributes:
 Sphericals:   T
 Basis set:  RI                      
 Basis size:   730
 Attributes:
 Sphericals:   T
 Basis set:  TDDFT                   
 Basis size:  1246
 Attributes:
 Sphericals:   T

 Eigenvalues of metric

         1 0.186E-05 0.295E-05 0.353E-05 0.385E-05 0.515E-05 0.713E-05 0.773E-05 0.918E-05


 Contracted 2-electron integrals neglected if value below      1.0D-14

 OPERATOR DM      FOR CENTER  0  COORDINATES:    0.000000    0.000000    0.000000


 **********************************************************************************************************************************
 DATASETS  * FILE   NREC   LENGTH (MB)   RECORD NAMES
              1      18       49.80       500      610      700      900      950      970     1000      129      960     1100   
                                          VAR    BASINP    GEOM    SYMINP    ZMAT    AOBASIS   BASIS     P2S    ABASIS      S 
                                         1400     1410     1200     1210     1080     1600     1650     1700   
                                           T        V       H0       H01     AOSYM     SMH    MOLCAS    OPER   

              2       5       24.61       700     1000      520     2100      200   
                                         GEOM     BASIS   MCVARS     RHF    OPTIONS    

 PROGRAMS   *        TOTAL       INT   CCSD(T)    HF-SCF       INT
 CPU TIMES  *     50128.68      0.88  45952.26   1984.31   2190.99
 REAL TIME  *     52223.51 SEC
 DISK USED  *        14.28 GB (local),      556.64 GB (total)
 SF USED    *        13.87 GB
 GA USED    *         0.00 MB       (max)       0.00 MB       (current)
 **********************************************************************************************************************************


 PROGRAM * RHF-SCF (CLOSED SHELL)       Authors: W. Meyer, H.-J. Werner


 NUMBER OF ELECTRONS:       5+    5-    SPACE SYMMETRY=1    SPIN SYMMETRY: Singlet 
 CONVERGENCE THRESHOLDS:    1.00E-08 (Density)    1.00E-11 (Energy)
 MAX. NUMBER OF ITERATIONS:       60
 INTERPOLATION TYPE:            DIIS
 INTERPOLATION STEPS:              2 (START)      1 (STEP)
 LEVEL SHIFTS:                  0.00 (CLOSED)  0.00 (OPEN) 



 Orbital guess generated from atomic densities. Full valence occupancy:    7

 Molecular orbital dump at record        2101.2

 Initial occupancy:   5

 ITERATION    DDIFF          GRAD             ENERGY        2-EL.EN.            DIPOLE MOMENTS         DIIS   ORB.
    1      0.000D+00      0.000D+00       -76.02553474     77.358118    0.27715    1.08796   -0.25375    0    start
    2      0.000D+00      0.360D-02       -76.05229697     73.682508    0.15757    0.62960   -0.14867    1    diag
    3      0.130D-02      0.230D-02       -76.06402346     75.318467    0.18684    0.74405   -0.17529    2    diag
    4      0.495D-03      0.215D-03       -76.06422123     75.226634    0.18506    0.73923   -0.17453    3    diag
    5      0.619D-04      0.609D-04       -76.06424294     75.241282    0.18437    0.73744   -0.17426    4    diag
    6      0.196D-04      0.123D-04       -76.06424439     75.240165    0.18418    0.73701   -0.17421    5    diag
    7      0.526D-05      0.252D-05       -76.06424447     75.240313    0.18413    0.73688   -0.17419    6    diag
    8      0.139D-05      0.477D-06       -76.06424447     75.240301    0.18412    0.73684   -0.17418    7    diag
    9      0.263D-06      0.662D-07       -76.06424447     75.240291    0.18411    0.73683   -0.17418    8    diag
   10      0.461D-07      0.149D-07       -76.06424447     75.240294    0.18411    0.73683   -0.17418    9    orth
   11      0.946D-08      0.264D-08       -76.06424447     75.240293    0.18411    0.73683   -0.17418    0    orth

 Final occupancy:   5

 !RHF STATE  1.1 Energy               -76.064244468740
 Nuclear energy                         8.95390023
 One-electron energy                 -122.63829139
 Two-electron energy                   37.62014669
 Virial quotient                       -1.00214708
 !RHF STATE  1.1 Dipole moment          0.18411466     0.73683100    -0.17418174
 Dipole moment /Debye                   0.46794213     1.87271493    -0.44269682

 Orbital energies:

         1.1          2.1          3.1          4.1          5.1          6.1          7.1
    -20.567827    -1.339057    -0.706271    -0.577731    -0.508114     0.015345     0.031790


 HOMO      5.1    -0.508114 =     -13.8265eV
 LUMO      6.1     0.015345 =       0.4176eV
 LUMO-HOMO         0.523458 =      14.2440eV


 **********************************************************************************************************************************
 DATASETS  * FILE   NREC   LENGTH (MB)   RECORD NAMES
              1      18       49.80       500      610      700      900      950      970     1000      129      960     1100   
                                          VAR    BASINP    GEOM    SYMINP    ZMAT    AOBASIS   BASIS     P2S    ABASIS      S 
                                         1400     1410     1200     1210     1080     1600     1650     1700   
                                           T        V       H0       H01     AOSYM     SMH    MOLCAS    OPER   

              2       6       38.39       700     1000      520     2100      200     2101   
                                         GEOM     BASIS   MCVARS     RHF    OPTIONS    RHF  

 PROGRAMS   *        TOTAL    HF-SCF       INT   CCSD(T)    HF-SCF       INT
 CPU TIMES  *     52005.69   1877.01      0.88  45952.26   1984.31   2190.99
 REAL TIME  *     54228.90 SEC
 DISK USED  *        14.28 GB (local),      556.64 GB (total)
 SF USED    *        13.87 GB
 GA USED    *         0.00 MB       (max)       0.00 MB       (current)
 **********************************************************************************************************************************

 Basis set:  JKFIT                   
 Basis size:  1104
 Attributes:
 Sphericals:   T
 Basis set:  MP2FIT                  
 Basis size:  1246
 Attributes:
 Sphericals:   T
 Basis set:  RI                      
 Basis size:   730
 Attributes:
 Sphericals:   T
 Basis set:  TDDFT                   
 Basis size:  1246
 Attributes:
 Sphericals:   T

 PROGRAM * CCSD (Closed-shell coupled cluster)     Authors: C. Hampel, H.-J. Werner, 1991, M. Deegan, P.J. Knowles, 1992


 Convergence thresholds:  THRVAR = 1.00D-08  THRDEN = 1.00D-10

 CCSD(T)     terms to be evaluated (factor= 1.000)


 Number of core orbitals:           1 (   1 )
 Number of closed-shell orbitals:   4 (   4 )
 Number of external orbitals:     729 ( 729 )

 Molecular orbitals read from record     2101.2  Type=RHF/CANONICAL (state 1.1)

 Number of N-1 electron functions:               4
 Number of N-2 electron functions:              10
 Number of singly external CSFs:              2916
 Number of doubly external CSFs:           4252986
 Total number of CSFs:                     4255903

 Length of J-op  integral file:               0.00 MB
 Length of K-op  integral file:              37.04 MB
 Length of 3-ext integral record:             0.00 MB

 For full I/O caching in triples, increase memory by 535.09 Mwords to 2535.14 Mwords.

 Integral transformation finished. Total CPU:1367.98 sec, npass=  1  Memory used:1010.01 MW

 Reference energy:                    -76.06424447

 MP2 singlet pair energy:              -0.19239543
 MP2 triplet pair energy:              -0.10238076
 MP2 correlation energy:               -0.29477619
 MP2 total energy:                    -76.35902066

 SCS-MP2 correlation energy:           -0.29457810   (PS=  1.200000  PT=  0.333333)
 SCS-MP2 total energy:                -76.35882257

 ITER.      SQ.NORM     CORR.ENERGY   TOTAL ENERGY   ENERGY CHANGE        DEN1      VAR(S)    VAR(P)  DIIS     TIME  TIME/IT
   1      1.06441906    -0.29462249   -76.35886696     0.00015370     0.00615092  0.83D-03  0.11D-02  1  1  1744.13   384.67
   2      1.06803768    -0.29486526   -76.35910973    -0.00024277    -0.00499472  0.16D-04  0.12D-03  2  2  2121.83   386.69
   3      1.06949752    -0.29494739   -76.35919186    -0.00008213    -0.00104031  0.82D-05  0.70D-05  3  3  2498.96   387.35
   4      1.06998999    -0.29494579   -76.35919026     0.00000159    -0.00023891  0.53D-06  0.78D-06  4  4  2876.60   387.71
   5      1.07009797    -0.29494411   -76.35918858     0.00000168    -0.00003296  0.17D-06  0.55D-07  5  5  3253.27   387.80
   6      1.07013449    -0.29494153   -76.35918600     0.00000258    -0.00000794  0.19D-07  0.48D-08  6  6  3630.71   388.01
   7      1.07014260    -0.29494099   -76.35918546     0.00000054    -0.00000075  0.17D-08  0.84D-09  6  1  4007.72   388.08
   8      1.07014451    -0.29494087   -76.35918534     0.00000012    -0.00000011  0.26D-09  0.10D-09  6  2  4385.12   388.18
   9      1.07014521    -0.29494083   -76.35918530     0.00000004     0.00000007  0.22D-10  0.97D-11  6  3  4763.22   388.34
  10      1.07014536    -0.29494082   -76.35918529     0.00000001     0.00000003  0.24D-11  0.14D-11  6  4  5140.18   388.35
  11      1.07014536    -0.29494082   -76.35918529    -0.00000000     0.00000002  0.55D-12  0.18D-12  6  5  5516.45   388.31
  12      1.07014536    -0.29494082   -76.35918529    -0.00000000     0.00000001  0.96D-13  0.29D-13  6  6  5893.28   388.29
  13      1.07014535    -0.29494082   -76.35918529    -0.00000000     0.00000000  0.17D-13  0.54D-14  6  1  6270.69   388.33
  14      1.07014535    -0.29494082   -76.35918529    -0.00000000     0.00000000  0.19D-14  0.86D-15  6  2  6647.50   388.31
  15      1.07014535    -0.29494082   -76.35918529    -0.00000000     0.00000000  0.21D-15  0.14D-15  6  3  7024.37   388.29
  16      1.07014535    -0.29494082   -76.35918529    -0.00000000    -0.00000000  0.48D-16  0.21D-16  6  4  7400.84   388.27

 Norm of t1 vector:      0.03787603      S-energy:    -0.00000000      T1 diagnostic:  0.00946901
                                                                       D1 diagnostic:  0.01957414


 Total CPU time for triples:   3516.22 sec


 RESULTS
 =======

  Reference energy                    -76.064244468741
  CCSD singlet pair energy             -0.204514774647
  CCSD triplet pair energy             -0.090426046370
  CCSD correlation energy              -0.294940821721

  Triples (T) contribution             -0.009914546229
  Total correlation energy             -0.304855367950

  CCSD total energy                   -76.359185290461
  CCSD[T] energy                      -76.369416521722
  CCSD-T energy                       -76.368952987622
 !CCSD(T) total energy                -76.369099836690

 Timing summary (sec):

 STEP                 CPU(USER)    SYS     CPU(TOT)    WALL
 Transformation       1369.89     42.61   1412.50   1414.06
 CCSD iterations      6031.31    175.29   6206.60   6213.20
 Triples              3516.22     58.52   3574.74   3578.10

 Program statistics:

 Available memory in ccsd:              1999999921
 Min. memory needed in ccsd:              19268142
 Max. memory used in ccsd:                22427508
 Max. memory used in cckext:              14646566 (16 integral passes)



 **********************************************************************************************************************************
 DATASETS  * FILE   NREC   LENGTH (MB)   RECORD NAMES
              1      19     6330.40       500      610      700      900      950      970     1000      129      960     1100   
                                          VAR    BASINP    GEOM    SYMINP    ZMAT    AOBASIS   BASIS     P2S    ABASIS      S 
                                         1400     1410     1200     1210     1080     1600     1650     1700     1380   
                                           T        V       H0       H01     AOSYM     SMH    MOLCAS    OPER     JKOP   

              2       6       38.39       700     1000      520     2100      200     2101   
                                         GEOM     BASIS   MCVARS     RHF    OPTIONS    RHF  

 PROGRAMS   *        TOTAL   CCSD(T)    HF-SCF       INT   CCSD(T)    HF-SCF       INT
 CPU TIMES  *     62923.39  10917.70   1877.01      0.88  45952.26   1984.31   2190.99
 REAL TIME  *     65435.61 SEC
 DISK USED  *        14.28 GB (local),      556.64 GB (total)
 SF USED    *        13.87 GB
 GA USED    *         0.00 MB       (max)       0.00 MB       (current)
 **********************************************************************************************************************************

 Running procedure: SET_MONOMER2

 Dummy atoms: O4  H7  H8


 Recomputing one-electron integrals since nuclear charges changed


 PROGRAM * SEWARD (Integral evaluation for generally contracted gaussian basis sets)     Author: Roland Lindh, 1990

 Geometry written to block  1 of record 700


 Point group  C1  



 ATOMIC COORDINATES

 NR  ATOM    CHARGE       X              Y              Z

   1  O4      0.00   -4.078028977   -2.591381435   -1.799397216
   2  H7      0.00   -5.032718615   -1.436758773   -2.879375696
   3  H8      0.00   -2.589302736   -1.626109330   -1.217739515
   4  C1      6.00   -6.193010455    2.801518980    2.403542658
   5  H41     1.00   -4.656285171    1.699997622    3.119937832
   6  H42     1.00   -5.973046335    4.726205038    2.982932688
   7  H43     1.00   -7.940251230    2.077186956    3.118237078
   8  H44     1.00   -6.176569838    2.685300823    0.384937212

 Bond lengths in Bohr (Angstrom)

 1-2  1.846872847  1-3  1.867185512  4-5  2.021904040  4-6  2.022002335  4-7  2.021953343
     ( 0.977323022)     ( 0.988072022)     ( 1.069945541)     ( 1.069997556)     ( 1.069971630)

 4-8  2.022015060
     ( 1.070004290)

 Bond angles

  2-1-3  105.73056797   5-4-6  109.53398059   5-4-7  109.65604535   5-4-8  108.43490854

  6-4-7  109.49436728   6-4-8  109.86987750   7-4-8  109.83468330

 NUCLEAR CHARGE:                   10
 NUMBER OF PRIMITIVE AOS:        1046
 NUMBER OF SYMMETRY AOS:          786
 NUMBER OF CONTRACTIONS:          734   (  734A   )
 NUMBER OF CORE ORBITALS:           1   (    1A   )
 NUMBER OF VALENCE ORBITALS:        8   (    8A   )

 MOLECULE CHANGED: INITIALIZING OCCUPATION AND DUMP RECORDS


 NUCLEAR REPULSION ENERGY   13.68681606

 Basis set:  JKFIT                   
 Basis size:  1104
 Attributes:
 Sphericals:   T
 Basis set:  MP2FIT                  
 Basis size:  1246
 Attributes:
 Sphericals:   T
 Basis set:  RI                      
 Basis size:   730
 Attributes:
 Sphericals:   T
 Basis set:  TDDFT                   
 Basis size:  1246
 Attributes:
 Sphericals:   T

 Eigenvalues of metric

         1 0.186E-05 0.295E-05 0.353E-05 0.385E-05 0.515E-05 0.713E-05 0.773E-05 0.918E-05


 Contracted 2-electron integrals neglected if value below      1.0D-14

 OPERATOR DM      FOR CENTER  0  COORDINATES:    0.000000    0.000000    0.000000


 **********************************************************************************************************************************
 DATASETS  * FILE   NREC   LENGTH (MB)   RECORD NAMES
              1      18       49.80       500      610      700      900      950      970     1000      129      960     1100   
                                          VAR    BASINP    GEOM    SYMINP    ZMAT    AOBASIS   BASIS     P2S    ABASIS      S 
                                         1400     1410     1200     1210     1080     1600     1650     1700   
                                           T        V       H0       H01     AOSYM     SMH    MOLCAS    OPER   

              2       6       38.39       700     1000      520     2100      200     2101   
                                         GEOM     BASIS   MCVARS     RHF    OPTIONS    RHF  

 PROGRAMS   *        TOTAL       INT   CCSD(T)    HF-SCF       INT   CCSD(T)    HF-SCF       INT
 CPU TIMES  *     62924.28      0.88  10917.70   1877.01      0.88  45952.26   1984.31   2190.99
 REAL TIME  *     65437.58 SEC
 DISK USED  *        14.28 GB (local),      556.64 GB (total)
 SF USED    *        13.87 GB
 GA USED    *         0.00 MB       (max)       0.00 MB       (current)
 **********************************************************************************************************************************


 PROGRAM * RHF-SCF (CLOSED SHELL)       Authors: W. Meyer, H.-J. Werner


 NUMBER OF ELECTRONS:       5+    5-    SPACE SYMMETRY=1    SPIN SYMMETRY: Singlet 
 CONVERGENCE THRESHOLDS:    1.00E-08 (Density)    1.00E-11 (Energy)
 MAX. NUMBER OF ITERATIONS:       60
 INTERPOLATION TYPE:            DIIS
 INTERPOLATION STEPS:              2 (START)      1 (STEP)
 LEVEL SHIFTS:                  0.00 (CLOSED)  0.00 (OPEN) 



 Orbital guess generated from atomic densities. Full valence occupancy:    9

 Molecular orbital dump at record        2102.2

 Initial occupancy:   5

 ITERATION    DDIFF          GRAD             ENERGY        2-EL.EN.            DIPOLE MOMENTS         DIIS   ORB.
    1      0.000D+00      0.000D+00       -40.19676535     53.509904    0.00411   -0.00276   -0.00130    0    start
    2      0.000D+00      0.198D-02       -40.21405755     52.218480    0.00128   -0.00087   -0.00038    1    diag
    3      0.947D-03      0.769D-03       -40.21634098     52.673986    0.00182   -0.00123   -0.00055    2    diag
    4      0.259D-03      0.192D-03       -40.21666131     52.619249    0.00162   -0.00110   -0.00048    3    diag
    5      0.101D-03      0.248D-04       -40.21666679     52.621407    0.00159   -0.00108   -0.00047    4    diag
    6      0.347D-04      0.204D-05       -40.21666683     52.621535    0.00159   -0.00108   -0.00047    5    diag
    7      0.603D-05      0.166D-06       -40.21666683     52.621497    0.00159   -0.00108   -0.00047    6    diag
    8      0.346D-06      0.136D-07       -40.21666683     52.621498    0.00159   -0.00108   -0.00047    7    diag
    9      0.564D-07      0.167D-08       -40.21666683     52.621498    0.00159   -0.00108   -0.00047    8    diag
   10      0.105D-07      0.465D-09       -40.21666683     52.621498    0.00159   -0.00108   -0.00047    9    orth
   11      0.117D-08      0.667D-10       -40.21666683     52.621498    0.00159   -0.00108   -0.00047    0    orth

 Final occupancy:   5

 !RHF STATE  1.1 Energy               -40.216666834712
 Nuclear energy                        13.68681606
 One-electron energy                  -80.21423191
 Two-electron energy                   26.31074902
 Virial quotient                       -0.99832814
 !RHF STATE  1.1 Dipole moment          0.00158539    -0.00108023    -0.00047408
 Dipole moment /Debye                   0.00402939    -0.00274550    -0.00120492

 Orbital energies:

         1.1          2.1          3.1          4.1          5.1          6.1          7.1
    -11.196017    -0.950605    -0.551931    -0.549996    -0.547817     0.021686     0.033418


 HOMO      5.1    -0.547817 =     -14.9069eV
 LUMO      6.1     0.021686 =       0.5901eV
 LUMO-HOMO         0.569503 =      15.4970eV


 **********************************************************************************************************************************
 DATASETS  * FILE   NREC   LENGTH (MB)   RECORD NAMES
              1      18       49.80       500      610      700      900      950      970     1000      129      960     1100   
                                          VAR    BASINP    GEOM    SYMINP    ZMAT    AOBASIS   BASIS     P2S    ABASIS      S 
                                         1400     1410     1200     1210     1080     1600     1650     1700   
                                           T        V       H0       H01     AOSYM     SMH    MOLCAS    OPER   

              2       7       62.47       700     1000      520     2100      200     2101     2102   
                                         GEOM     BASIS   MCVARS     RHF    OPTIONS    RHF      RHF  

 PROGRAMS   *        TOTAL    HF-SCF       INT   CCSD(T)    HF-SCF       INT   CCSD(T)    HF-SCF       INT
 CPU TIMES  *     64801.71   1877.43      0.88  10917.70   1877.01      0.88  45952.26   1984.31   2190.99
 REAL TIME  *     67440.55 SEC
 DISK USED  *        14.28 GB (local),      556.64 GB (total)
 SF USED    *        13.87 GB
 GA USED    *         0.00 MB       (max)       0.00 MB       (current)
 **********************************************************************************************************************************

 Basis set:  JKFIT                   
 Basis size:  1104
 Attributes:
 Sphericals:   T
 Basis set:  MP2FIT                  
 Basis size:  1246
 Attributes:
 Sphericals:   T
 Basis set:  RI                      
 Basis size:   730
 Attributes:
 Sphericals:   T
 Basis set:  TDDFT                   
 Basis size:  1246
 Attributes:
 Sphericals:   T

 PROGRAM * CCSD (Closed-shell coupled cluster)     Authors: C. Hampel, H.-J. Werner, 1991, M. Deegan, P.J. Knowles, 1992


 Convergence thresholds:  THRVAR = 1.00D-08  THRDEN = 1.00D-10

 CCSD(T)     terms to be evaluated (factor= 1.000)


 Number of core orbitals:           1 (   1 )
 Number of closed-shell orbitals:   4 (   4 )
 Number of external orbitals:     729 ( 729 )

 Molecular orbitals read from record     2102.2  Type=RHF/CANONICAL (state 1.1)

 Number of N-1 electron functions:               4
 Number of N-2 electron functions:              10
 Number of singly external CSFs:              2916
 Number of doubly external CSFs:           4252986
 Total number of CSFs:                     4255903

 Length of J-op  integral file:               0.00 MB
 Length of K-op  integral file:              37.04 MB
 Length of 3-ext integral record:             0.00 MB

 For full I/O caching in triples, increase memory by 535.09 Mwords to 2535.14 Mwords.

 Integral transformation finished. Total CPU:1348.18 sec, npass=  1  Memory used:1010.01 MW

 Reference energy:                    -40.21666683

 MP2 singlet pair energy:              -0.15787855
 MP2 triplet pair energy:              -0.05682294
 MP2 correlation energy:               -0.21470149
 MP2 total energy:                    -40.43136833

 SCS-MP2 correlation energy:           -0.22481076   (PS=  1.200000  PT=  0.333333)
 SCS-MP2 total energy:                -40.44147759

 ITER.      SQ.NORM     CORR.ENERGY   TOTAL ENERGY   ENERGY CHANGE        DEN1      VAR(S)    VAR(P)  DIIS     TIME  TIME/IT
   1      1.07073112    -0.22924332   -40.44591016    -0.01454183    -0.00880960  0.58D-03  0.96D-03  1  1  1723.74   384.04
   2      1.07565284    -0.23033805   -40.44700488    -0.00109472    -0.00537200  0.15D-04  0.11D-03  2  2  2099.97   385.76
   3      1.07738952    -0.23037855   -40.44704538    -0.00004050    -0.00128259  0.20D-05  0.63D-05  3  3  2475.86   386.30
   4      1.07777991    -0.23038028   -40.44704711    -0.00000173    -0.00020101  0.14D-06  0.36D-06  4  4  2852.60   386.62
   5      1.07783430    -0.23038403   -40.44705087    -0.00000376    -0.00001098  0.13D-07  0.24D-07  5  5  3229.03   386.81
   6      1.07784443    -0.23038273   -40.44704956     0.00000131    -0.00000412  0.79D-09  0.17D-08  6  6  3605.98   387.02
   7      1.07784577    -0.23038235   -40.44704918     0.00000038    -0.00000075  0.53D-10  0.13D-09  6  1  3982.56   387.17
   8      1.07784569    -0.23038240   -40.44704924    -0.00000005     0.00000024  0.57D-11  0.84D-11  6  3  4359.20   387.26
   9      1.07784583    -0.23038238   -40.44704922     0.00000002    -0.00000009  0.42D-12  0.60D-12  6  2  4735.84   387.32
  10      1.07784583    -0.23038238   -40.44704922     0.00000000     0.00000001  0.56D-13  0.63D-13  6  4  5112.65   387.41
  11      1.07784584    -0.23038238   -40.44704922     0.00000000     0.00000000  0.57D-14  0.64D-14  6  5  5488.48   387.37
  12      1.07784584    -0.23038238   -40.44704922     0.00000000     0.00000000  0.17D-15  0.65D-15  6  6  5864.45   387.36
  13      1.07784583    -0.23038238   -40.44704922    -0.00000000     0.00000000  0.15D-16  0.74D-16  6  1  6240.86   387.37
  14      1.07784583    -0.23038238   -40.44704922    -0.00000000     0.00000000  0.26D-17  0.13D-16  6  3  6617.29   387.41

 Norm of t1 vector:      0.03186003      S-energy:     0.00000000      T1 diagnostic:  0.00796501
                                                                       D1 diagnostic:  0.01279372

 Total CPU time for triples:   3478.39 sec


 RESULTS
 =======

  Reference energy                    -40.216666834709
  CCSD singlet pair energy             -0.175400248517
  CCSD triplet pair energy             -0.054982133626
  CCSD correlation energy              -0.230382382143

  Triples (T) contribution             -0.007018763142
  Total correlation energy             -0.237401145285

  CCSD total energy                   -40.447049216852
  CCSD[T] energy                      -40.454291818114
  CCSD-T energy                       -40.454001024468
 !CCSD(T) total energy                -40.454067979994

 Timing summary (sec):

 STEP                 CPU(USER)    SYS     CPU(TOT)    WALL
 Transformation       1350.26     40.74   1391.00   1392.58
 CCSD iterations      5267.42    150.79   5418.21   5424.65
 Triples              3478.39     55.94   3534.33   3538.00

 Program statistics:

 Available memory in ccsd:              1999999916
 Min. memory needed in ccsd:              19268142
 Max. memory used in ccsd:                22427508
 Max. memory used in cckext:              14646566 (14 integral passes)



 **********************************************************************************************************************************
 DATASETS  * FILE   NREC   LENGTH (MB)   RECORD NAMES
              1      19     6330.40       500      610      700      900      950      970     1000      129      960     1100   
                                          VAR    BASINP    GEOM    SYMINP    ZMAT    AOBASIS   BASIS     P2S    ABASIS      S 
                                         1400     1410     1200     1210     1080     1600     1650     1700     1380   
                                           T        V       H0       H01     AOSYM     SMH    MOLCAS    OPER     JKOP   

              2       7       62.47       700     1000      520     2100      200     2101     2102   
                                         GEOM     BASIS   MCVARS     RHF    OPTIONS    RHF      RHF  

 PROGRAMS   *        TOTAL   CCSD(T)    HF-SCF       INT   CCSD(T)    HF-SCF       INT   CCSD(T)    HF-SCF       INT
 CPU TIMES  *     74898.07  10096.35   1877.43      0.88  10917.70   1877.01      0.88  45952.26   1984.31   2190.99
 REAL TIME  *     77797.13 SEC
 DISK USED  *        14.28 GB (local),      556.64 GB (total)
 SF USED    *        13.87 GB
 GA USED    *         0.00 MB       (max)       0.00 MB       (current)
 **********************************************************************************************************************************
 Molecular orbitals read from record     2102.2  Type=RHF/CANONICAL (state 1.1)
 Occupation numbers read from record     2102.2  Type=RHF/RHF (state 1.1)
 Orbital energies read from record       2102.2  Type=RHF/CANONICAL (state 1.1)
 Redundancy group numbers read from rec  2102.2  Type=RHF/RHF (state 1.1)

 CCSD(T)/aug-cc-pV5Z energy=    -40.454067979994

         CCSD(T)          HF-SCF         CCSD(T)          HF-SCF         CCSD(T)          HF-SCF
    -40.45406798    -40.21666683    -76.36909984    -76.06424447   -116.82348858   -116.28032050
 **********************************************************************************************************************************
 Molpro calculation terminated
