
 Primary working directories    : /scratch/klimes/400921/molpro.sGdcEV1jHY
 Secondary working directories  : /scratch/klimes/400921/molpro.sGdcEV1jHY
 Wavefunction directory         : /scratch/klimes/400921/
 Main file repository           : /scratch/klimes/400921/molpro.sGdcEV1jHY/

 id        : karlovklimes

 Nodes                      nprocs
 nc-07.cc.karlov.mff.cuni.cz    4

 Using customized tuning parameters: mindgm=1; mindgv=20; mindgc=4; mindgr=1; noblas=0; minvec=7
 default implementation of scratch files=sf  


 Variables initialized (930), CPU time= 0.01 sec
                                                                                 !gdirect
 memory,2000,m
 gthresh,orbital=1d-10,energy=1d-10,grid=1d-8
 
 symmetry,nosym
 angstrom
 geometry={
 O5        -0.319200000000      2.341100000000      3.764400000000
 H9         0.407500000000      2.568500000000      4.358500000000
 H10        -0.153000000000      1.405800000000      3.495900000000
 C1        -3.277200000000      1.482500000000      1.271900000000
 H41        -2.464000000000      0.899600000000      1.651000000000
 H42        -3.160800000000      2.501000000000      1.578500000000
 H43        -4.201800000000      1.099200000000      1.650100000000
 H44        -3.268500000000      1.421000000000      0.203700000000
 }
 
 nkerna=1
 nkernb=1
 
 gf=0
 sing=1
 thrdum=1d-4
 gridthr=1d-8
 
 basis={
 set,orbital
 default,av5z
 set,jkfit
 default,av5z/jkfit
 set,mp2fit
 default,av5z/mp2fit
 set,ri
 default,av5z/optri
 set,tddft
 default,av5z/mp2fit
 }
 
 proc set_monomer1
 dummy,4,5,6,7,8
 endproc
 
 proc set_monomer2
 dummy,1,2,3
 endproc
 
                                                                                 !1234 energy
 {hf,accu=1.d-16}
 ccsd(t)
 
 set_monomer1
 {hf,accu=1.d-16}
 ccsd(t)
 
 set_monomer2
 {hf,accu=1.d-16}
 ccsd(t)
 
 Commands  initialized (760), CPU time= 0.01 sec, 617 directives.
 Default parameters read. Elapsed time= 0.21 sec

 Checking input...
 Passed
1


                                         ***  PROGRAM SYSTEM MOLPRO  ***
                                       Copyright, TTI GmbH Stuttgart, 2015
                                    Version 2019.1 linked Jan 14 2019 13:09:19


 **********************************************************************************************************************************
 LABEL *                                                                                 
  64 bit mpp version                                                                     DATE: 14-Mar-20          TIME: 12:29:31  
 **********************************************************************************************************************************

 SHA1:             d688ac825633d238f2093ded1675ba87ccd55965
 **********************************************************************************************************************************

 THRESHOLDS:

 ZERO    =  1.00D-12  ONEINT  =  1.00D-12  TWOINT  =  1.00D-11  PREFAC  =  1.00D-14  XXXXXX  =  1.00D-09  EORDER  =  1.00D-04
 ENERGY  =  1.00D-10  ETEST   =  0.00D+00  EDENS   =  0.00D+00  THRDEDEF=  1.00D-06  GRADIENT=  1.00D-02  STEP    =  1.00D-03
 ORBITAL =  1.00D-10  CIVEC   =  1.00D-05  COEFF   =  1.00D-04  PRINTCI =  5.00D-02  PUNCHCI =  9.90D+01  OPTGRAD =  3.00D-04
 OPTENERG=  1.00D-06  OPTSTEP =  3.00D-04  THRGRAD =  1.00D-10  COMPRESS=  1.00D-11  VARMIN  =  1.00D-07  VARMAX  =  1.00D-03
 THRDOUB =  0.00D+00  THRDIV  =  1.00D-05  THRRED  =  1.00D-07  THRPSP  =  1.00D+00  THRDC   =  1.00D-10  THRCS   =  1.00D-10
 THRNRM  =  1.00D-08  THREQ   =  0.00D+00  THRDE   =  1.00D+00  THRREF  =  1.00D-05  SPARFAC =  1.00D+00  THRDLP  =  1.00D-07
 THRDIA  =  1.00D-10  THRDLS  =  1.00D-07  THRGPS  =  0.00D+00  THRKEX  =  0.00D+00  THRDIS  =  2.00D-01  THRVAR  =  1.00D-10
 THRLOC  =  1.00D-06  THRGAP  =  1.00D-06  THRLOCT = -1.00D+00  THRGAPT = -1.00D+00  THRORB  =  1.00D-06  THRMLTP =  0.00D+00
 THRCPQCI=  1.00D-10  KEXTA   =  0.00D+00  THRCOARS=  0.00D+00  SYMTOL  =  1.00D-06  GRADTOL =  1.00D-06  THROVL  =  1.00D-08
 THRORTH =  1.00D-08  GRID    =  1.00D-08  GRIDMAX =  1.00D-03  DTMAX   =  0.00D+00  THROCCDE=  1.00D-01  THROCCDE=  1.00D-01
 THRPRINT=  2.50D-01


 Variable memory set to 2000000000 words,  buffer space 

 ZSYMEL=NOSYM
 ZUNIT=ANG


Geometry recognized as XYZ

 SETTING NKERNA         =         1.00000000                                  
 SETTING NKERNB         =         1.00000000                                  
 SETTING GF             =     0.00000000D+00                                  
 SETTING SING           =         1.00000000                                  
 SETTING THRDUM         =     1.00000000D-04                                  
 SETTING GRIDTHR        =     1.00000000D-08                                  
 SETTING BASIS          =    AV5Z


 Recomputing integrals since basis changed


 Using spherical harmonics

 Library entry O      S aug-cc-pV5Z          selected for orbital group  1
 Library entry O      P aug-cc-pV5Z          selected for orbital group  1
 Library entry O      D aug-cc-pV5Z          selected for orbital group  1
 Library entry O      F aug-cc-pV5Z          selected for orbital group  1
 Library entry O      G aug-cc-pV5Z          selected for orbital group  1
 Library entry O      H aug-cc-pV5Z          selected for orbital group  1
 Library entry H      S aug-cc-pV5Z          selected for orbital group  2
 Library entry H      P aug-cc-pV5Z          selected for orbital group  2
 Library entry H      D aug-cc-pV5Z          selected for orbital group  2
 Library entry H      F aug-cc-pV5Z          selected for orbital group  2
 Library entry H      G aug-cc-pV5Z          selected for orbital group  2
 Library entry C      S aug-cc-pV5Z          selected for orbital group  3
 Library entry C      P aug-cc-pV5Z          selected for orbital group  3
 Library entry C      D aug-cc-pV5Z          selected for orbital group  3
 Library entry C      F aug-cc-pV5Z          selected for orbital group  3
 Library entry C      G aug-cc-pV5Z          selected for orbital group  3
 Library entry C      H aug-cc-pV5Z          selected for orbital group  3


 PROGRAM * SEWARD (Integral evaluation for generally contracted gaussian basis sets)     Author: Roland Lindh, 1990

 Geometry written to block  1 of record 700


 Point group  C1  



 ATOMIC COORDINATES

 NR  ATOM    CHARGE       X              Y              Z

   1  O5      8.00   -0.603200579    4.424037830    7.113685023
   2  H9      1.00    0.770063396    4.853761551    8.236371314
   3  H10     1.00   -0.289128097    2.656576986    6.606293559
   4  C1      6.00   -6.193010455    2.801518980    2.403542658
   5  H41     1.00   -4.656285171    1.699997622    3.119937832
   6  H42     1.00   -5.973046335    4.726205038    2.982932688
   7  H43     1.00   -7.940251230    2.077186956    3.118237078
   8  H44     1.00   -6.176569838    2.685300823    0.384937212

 Bond lengths in Bohr (Angstrom)

 1-2  1.825086553  1-3  1.865477274  4-5  2.021904040  4-6  2.022002335  4-7  2.021953343
     ( 0.965794212)     ( 0.987168061)     ( 1.069945541)     ( 1.069997556)     ( 1.069971630)

 4-8  2.022015060
     ( 1.070004290)

 Bond angles

  2-1-3  105.29057030   5-4-6  109.53398059   5-4-7  109.65604535   5-4-8  108.43490854

  6-4-7  109.49436728   6-4-8  109.86987750   7-4-8  109.83468330

 NUCLEAR CHARGE:                   20
 NUMBER OF PRIMITIVE AOS:        1046
 NUMBER OF SYMMETRY AOS:          786
 NUMBER OF CONTRACTIONS:          734   (  734A   )
 NUMBER OF CORE ORBITALS:           2   (    2A   )
 NUMBER OF VALENCE ORBITALS:       14   (   14A   )


 NUCLEAR REPULSION ENERGY   35.83278858


 Basis set:  JKFIT                   
 Basis size:  1104
 Attributes:
 Sphericals:   T
 Basis set:  MP2FIT                  
 Basis size:  1246
 Attributes:
 Sphericals:   T
 Basis set:  RI                      
 Basis size:   730
 Attributes:
 Sphericals:   T
 Basis set:  TDDFT                   
 Basis size:  1246
 Attributes:
 Sphericals:   T

 **********************************************************************************************************************************


 Eigenvalues of metric

         1 0.196E-05 0.299E-05 0.377E-05 0.480E-05 0.515E-05 0.741E-05 0.869E-05 0.963E-05


 Contracted 2-electron integrals neglected if value below      1.0D-14
 AO integral compression algorithm  1   Integral accuracy      1.0D-14

     142843.576 MB (compressed) written to integral file ( 45.2%)

     Node minimum: 29802.365 MB, node maximum: 39538.131 MB


 NUMBER OF SORTED TWO-ELECTRON INTEGRALS: 9095363064.     BUFFER LENGTH:  32768
 NUMBER OF SEGMENTS: 190  SEGMENT LENGTH:   47999780      RECORD LENGTH: 131072

 Memory used in sort:      48.16 MW

 SORT1 READ 39468177345. AND WROTE  6513886045. INTEGRALS IN  74641 RECORDS. CPU TIME:   739.46 SEC, REAL TIME:   872.38 SEC
 SORT2 READ 26059117166. AND WROTE 36381317385. INTEGRALS IN 547328 RECORDS. CPU TIME:   118.45 SEC, REAL TIME:   356.93 SEC

 Node minimum:  9095228192.  Node maximum:  9095430501. integrals

 OPERATOR DM      FOR CENTER  0  COORDINATES:    0.000000    0.000000    0.000000


 **********************************************************************************************************************************
 DATASETS  * FILE   NREC   LENGTH (MB)   RECORD NAMES
              1      18       49.80       500      610      700      900      950      970     1000      129      960     1100   
                                          VAR    BASINP    GEOM    SYMINP    ZMAT    AOBASIS   BASIS     P2S    ABASIS      S 
                                         1400     1410     1200     1210     1080     1600     1650     1700   
                                           T        V       H0       H01     AOSYM     SMH    MOLCAS    OPER   

 PROGRAMS   *        TOTAL       INT
 CPU TIMES  *      1825.93   1825.71
 REAL TIME  *      2262.11 SEC
 DISK USED  *        50.44 MB (local),      458.27 GB (total)
 GA USED    *         0.00 MB       (max)       0.00 MB       (current)
 **********************************************************************************************************************************


 PROGRAM * RHF-SCF (CLOSED SHELL)       Authors: W. Meyer, H.-J. Werner


 NUMBER OF ELECTRONS:      10+   10-    SPACE SYMMETRY=1    SPIN SYMMETRY: Singlet 
 CONVERGENCE THRESHOLDS:    1.00E-08 (Density)    1.00E-11 (Energy)
 MAX. NUMBER OF ITERATIONS:       60
 INTERPOLATION TYPE:            DIIS
 INTERPOLATION STEPS:              2 (START)      1 (STEP)
 LEVEL SHIFTS:                  0.00 (CLOSED)  0.00 (OPEN) 



 Orbital guess generated from atomic densities. Full valence occupancy:   16

 Molecular orbital dump at record        2100.2

 Initial occupancy:  10

 ITERATION    DDIFF          GRAD             ENERGY        2-EL.EN.            DIPOLE MOMENTS         DIIS   ORB.
    1      0.000D+00      0.000D+00      -116.22263119    157.423110    0.86655   -0.69281    0.31062    0    start
    2      0.000D+00      0.292D-02      -116.26700471    152.360495    0.51447   -0.35484    0.20902    1    diag
    3      0.162D-02      0.172D-02      -116.28072387    154.454391    0.60415   -0.43894    0.23546    2    diag
    4      0.554D-03      0.254D-03      -116.28138352    154.341207    0.59577   -0.43176    0.23245    3    diag
    5      0.123D-03      0.744D-04      -116.28145230    154.336509    0.59551   -0.43083    0.23268    4    diag
    6      0.509D-04      0.180D-04      -116.28145609    154.342071    0.59493   -0.43023    0.23251    5    diag
    7      0.186D-04      0.356D-05      -116.28145631    154.340439    0.59493   -0.43022    0.23251    6    diag
    8      0.553D-05      0.893D-06      -116.28145632    154.340606    0.59488   -0.43017    0.23250    7    diag
    9      0.125D-05      0.216D-06      -116.28145633    154.340581    0.59487   -0.43015    0.23250    8    diag
   10      0.263D-06      0.255D-07      -116.28145633    154.340581    0.59487   -0.43015    0.23250    9    orth
   11      0.587D-07      0.565D-08      -116.28145633    154.340583    0.59487   -0.43015    0.23250    9    diag
   12      0.485D-08      0.148D-08      -116.28145633    154.340583    0.59487   -0.43015    0.23250    0    orth

 Final occupancy:  10

 !RHF STATE  1.1 Energy              -116.281456325810
 Nuclear energy                        35.83278858
 One-electron energy                 -229.28453629
 Two-electron energy                   77.17029138
 Virial quotient                       -1.00061275
 !RHF STATE  1.1 Dipole moment          0.59486515    -0.43014791     0.23249595
 Dipole moment /Debye                   1.51189736    -1.09325533     0.59090707

 Orbital energies:

         1.1          2.1          3.1          4.1          5.1          6.1          7.1          8.1          9.1         10.1
    -20.567089   -11.189729    -1.342644    -0.944149    -0.709088    -0.580092    -0.545798    -0.542666    -0.541845    -0.508877

        11.1         12.1
      0.020973     0.031255


 HOMO     10.1    -0.508877 =     -13.8472eV
 LUMO     11.1     0.020973 =       0.5707eV
 LUMO-HOMO         0.529850 =      14.4180eV


 **********************************************************************************************************************************
 DATASETS  * FILE   NREC   LENGTH (MB)   RECORD NAMES
              1      18       49.80       500      610      700      900      950      970     1000      129      960     1100   
                                          VAR    BASINP    GEOM    SYMINP    ZMAT    AOBASIS   BASIS     P2S    ABASIS      S 
                                         1400     1410     1200     1210     1080     1600     1650     1700   
                                           T        V       H0       H01     AOSYM     SMH    MOLCAS    OPER   

              2       4       13.79       700     1000      520     2100   
                                         GEOM     BASIS   MCVARS     RHF  

 PROGRAMS   *        TOTAL    HF-SCF       INT
 CPU TIMES  *      3876.32   2050.39   1825.71
 REAL TIME  *      4772.33 SEC
 DISK USED  *       102.61 MB (local),      458.48 GB (total)
 SF USED    *         2.16 MB
 GA USED    *         0.00 MB       (max)       0.00 MB       (current)
 **********************************************************************************************************************************

 Basis set:  JKFIT                   
 Basis size:  1104
 Attributes:
 Sphericals:   T
 Basis set:  MP2FIT                  
 Basis size:  1246
 Attributes:
 Sphericals:   T
 Basis set:  RI                      
 Basis size:   730
 Attributes:
 Sphericals:   T
 Basis set:  TDDFT                   
 Basis size:  1246
 Attributes:
 Sphericals:   T

 PROGRAM * CCSD (Closed-shell coupled cluster)     Authors: C. Hampel, H.-J. Werner, 1991, M. Deegan, P.J. Knowles, 1992


 Convergence thresholds:  THRVAR = 1.00D-08  THRDEN = 1.00D-10

 CCSD(T)     terms to be evaluated (factor= 1.000)


 Number of core orbitals:           2 (   2 )
 Number of closed-shell orbitals:   8 (   8 )
 Number of external orbitals:     724 ( 724 )

 Molecular orbitals read from record     2100.2  Type=RHF/CANONICAL (state 1.1)

 Number of N-1 electron functions:               8
 Number of N-2 electron functions:              36
 Number of singly external CSFs:              5792
 Number of doubly external CSFs:          16776528
 Total number of CSFs:                    16782321

 Length of J-op  integral file:               0.00 MB
 Length of K-op  integral file:              37.04 MB
 Length of 3-ext integral record:             0.00 MB

 For full I/O caching in triples, increase memory by 2034.74 Mwords to 4034.79 Mwords.

 Integral transformation finished. Total CPU:3003.50 sec, npass=  1  Memory used:1826.26 MW

 Reference energy:                   -116.28145633

 MP2 singlet pair energy:              -0.35012707
 MP2 triplet pair energy:              -0.15942232
 MP2 correlation energy:               -0.50954938
 MP2 total energy:                   -116.79100571

 SCS-MP2 correlation energy:           -0.51934859   (PS=  1.200000  PT=  0.333333)
 SCS-MP2 total energy:               -116.80080491

 ITER.      SQ.NORM     CORR.ENERGY   TOTAL ENERGY   ENERGY CHANGE        DEN1      VAR(S)    VAR(P)  DIIS     TIME  TIME/IT
   1      1.13498139    -0.52397063  -116.80542696    -0.01442125    -0.00275767  0.14D-02  0.20D-02  1  1  4125.47  1134.58
   2      1.14333311    -0.52529953  -116.80675586    -0.00132890    -0.01021258  0.31D-04  0.25D-03  2  2  5251.97  1140.25
   3      1.14662633    -0.52542573  -116.80688205    -0.00012620    -0.00238855  0.11D-04  0.14D-04  3  3  6349.58  1132.22
   4      1.14752617    -0.52542301  -116.80687934     0.00000272    -0.00045635  0.64D-06  0.12D-05  4  4  7434.77  1124.85
   5      1.14768847    -0.52542486  -116.80688119    -0.00000185    -0.00004394  0.20D-06  0.89D-07  5  5  8518.62  1120.23
   6      1.14773501    -0.52542196  -116.80687828     0.00000290    -0.00001010  0.20D-07  0.72D-08  6  6  9602.54  1117.11
   7      1.14774496    -0.52542074  -116.80687706     0.00000122    -0.00000201  0.19D-08  0.89D-09  6  2 10684.74  1114.68
   8      1.14774725    -0.52542056  -116.80687689     0.00000017    -0.00000010  0.30D-09  0.92D-10  6  1 11767.86  1112.94
   9      1.14774812    -0.52542051  -116.80687684     0.00000005    -0.00000004  0.21D-10  0.14D-10  6  3 12850.09  1111.50
  10      1.14774822    -0.52542051  -116.80687684    -0.00000001     0.00000011  0.23D-11  0.16D-11  6  4 13932.31  1110.36
  11      1.14774819    -0.52542052  -116.80687685    -0.00000001     0.00000007  0.34D-12  0.22D-12  6  5 15015.78  1109.51
  12      1.14774816    -0.52542052  -116.80687685    -0.00000000     0.00000002  0.72D-13  0.28D-13  6  6 16100.20  1108.93
  13      1.14774815    -0.52542052  -116.80687685    -0.00000000     0.00000001  0.14D-13  0.39D-14  6  2 17183.65  1108.36
  14      1.14774814    -0.52542052  -116.80687685    -0.00000000     0.00000000  0.22D-14  0.83D-15  6  1 18266.22  1107.78
  15      1.14774814    -0.52542052  -116.80687685    -0.00000000     0.00000000  0.27D-15  0.12D-15  6  3 19349.12  1107.29
  16      1.14774814    -0.52542052  -116.80687685    -0.00000000    -0.00000000  0.37D-16  0.20D-16  6  4 20434.61  1107.03
  17      1.14774814    -0.52542052  -116.80687685    -0.00000000    -0.00000000  0.12D-16  0.62D-17  6  5 21518.23  1106.70

 Norm of t1 vector:      0.04947924      S-energy:    -0.00000000      T1 diagnostic:  0.00874678
                                                                       D1 diagnostic:  0.01955847

   CPU time for triples:   3311.24 sec for i =  1 -  3 /  8 (~   6.2 % done)
   CPU time for triples:   3333.59 sec for i =  4 -  5 /  8 (~  26.8 % done)
   CPU time for triples:   3356.63 sec for i =  6 -  6 /  8 (~  44.6 % done)
   CPU time for triples:   6702.99 sec for i =  7 -  7 /  8 (~  68.8 % done)
   CPU time for triples:   6694.34 sec for i =  8 -  8 /  8 (  100.0 % done)

 Total CPU time for triples:  23417.76 sec


 RESULTS
 =======

  Reference energy                   -116.281456325811
  CCSD singlet pair energy             -0.379666952540
  CCSD triplet pair energy             -0.145753570902
  CCSD correlation energy              -0.525420523665

  Triples (T) contribution             -0.016957657502
  Total correlation energy             -0.542378181167

  CCSD total energy                  -116.806876849476
  CCSD[T] energy                     -116.824372452445
  CCSD-T energy                      -116.823621516415
 !CCSD(T) total energy               -116.823834506978

 Timing summary (sec):

 STEP                 CPU(USER)    SYS     CPU(TOT)    WALL
 Transformation       3010.29     66.80   3077.09   3084.52
 CCSD iterations     18508.36    283.33  18791.69  18814.94
 Triples             23417.76    178.07  23595.83  23621.79

 Program statistics:

 Available memory in ccsd:              1999999734
 Min. memory needed in ccsd:              48755833
 Max. memory used in ccsd:                63342105
 Max. memory used in cckext:              42809278 (17 integral passes)



 **********************************************************************************************************************************
 DATASETS  * FILE   NREC   LENGTH (MB)   RECORD NAMES
              1      19    12452.38       500      610      700      900      950      970     1000      129      960     1100   
                                          VAR    BASINP    GEOM    SYMINP    ZMAT    AOBASIS   BASIS     P2S    ABASIS      S 
                                         1400     1410     1200     1210     1080     1600     1650     1700     1380   
                                           T        V       H0       H01     AOSYM     SMH    MOLCAS    OPER     JKOP   

              2       4       13.79       700     1000      520     2100   
                                         GEOM     BASIS   MCVARS     RHF  

 PROGRAMS   *        TOTAL   CCSD(T)    HF-SCF       INT
 CPU TIMES  *     48813.00  44936.67   2050.39   1825.71
 REAL TIME  *     50295.79 SEC
 DISK USED  *        14.28 GB (local),      509.75 GB (total)
 SF USED    *        13.87 GB
 GA USED    *         0.00 MB       (max)       0.00 MB       (current)
 **********************************************************************************************************************************

 Running procedure: SET_MONOMER1

 Dummy atoms: C1  H41  H42  H43  H44


 Recomputing one-electron integrals since nuclear charges changed


 PROGRAM * SEWARD (Integral evaluation for generally contracted gaussian basis sets)     Author: Roland Lindh, 1990

 Geometry written to block  1 of record 700


 Point group  C1  



 ATOMIC COORDINATES

 NR  ATOM    CHARGE       X              Y              Z

   1  O5      8.00   -0.603200579    4.424037830    7.113685023
   2  H9      1.00    0.770063396    4.853761551    8.236371314
   3  H10     1.00   -0.289128097    2.656576986    6.606293559
   4  C1      0.00   -6.193010455    2.801518980    2.403542658
   5  H41     0.00   -4.656285171    1.699997622    3.119937832
   6  H42     0.00   -5.973046335    4.726205038    2.982932688
   7  H43     0.00   -7.940251230    2.077186956    3.118237078
   8  H44     0.00   -6.176569838    2.685300823    0.384937212

 Bond lengths in Bohr (Angstrom)

 1-2  1.825086553  1-3  1.865477274  4-5  2.021904040  4-6  2.022002335  4-7  2.021953343
     ( 0.965794212)     ( 0.987168061)     ( 1.069945541)     ( 1.069997556)     ( 1.069971630)

 4-8  2.022015060
     ( 1.070004290)

 Bond angles

  2-1-3  105.29057030   5-4-6  109.53398059   5-4-7  109.65604535   5-4-8  108.43490854

  6-4-7  109.49436728   6-4-8  109.86987750   7-4-8  109.83468330

 NUCLEAR CHARGE:                   10
 NUMBER OF PRIMITIVE AOS:        1046
 NUMBER OF SYMMETRY AOS:          786
 NUMBER OF CONTRACTIONS:          734   (  734A   )
 NUMBER OF CORE ORBITALS:           1   (    1A   )
 NUMBER OF VALENCE ORBITALS:        6   (    6A   )

 MOLECULE CHANGED: INITIALIZING OCCUPATION AND DUMP RECORDS


 NUCLEAR REPULSION ENERGY    9.01266574

 Basis set:  JKFIT                   
 Basis size:  1104
 Attributes:
 Sphericals:   T
 Basis set:  MP2FIT                  
 Basis size:  1246
 Attributes:
 Sphericals:   T
 Basis set:  RI                      
 Basis size:   730
 Attributes:
 Sphericals:   T
 Basis set:  TDDFT                   
 Basis size:  1246
 Attributes:
 Sphericals:   T

 Eigenvalues of metric

         1 0.196E-05 0.299E-05 0.377E-05 0.480E-05 0.515E-05 0.741E-05 0.869E-05 0.963E-05


 Contracted 2-electron integrals neglected if value below      1.0D-14

 OPERATOR DM      FOR CENTER  0  COORDINATES:    0.000000    0.000000    0.000000


 **********************************************************************************************************************************
 DATASETS  * FILE   NREC   LENGTH (MB)   RECORD NAMES
              1      18       49.80       500      610      700      900      950      970     1000      129      960     1100   
                                          VAR    BASINP    GEOM    SYMINP    ZMAT    AOBASIS   BASIS     P2S    ABASIS      S 
                                         1400     1410     1200     1210     1080     1600     1650     1700   
                                           T        V       H0       H01     AOSYM     SMH    MOLCAS    OPER   

              2       5       24.61       700     1000      520     2100      200   
                                         GEOM     BASIS   MCVARS     RHF    OPTIONS    

 PROGRAMS   *        TOTAL       INT   CCSD(T)    HF-SCF       INT
 CPU TIMES  *     48813.90      0.89  44936.67   2050.39   1825.71
 REAL TIME  *     50298.60 SEC
 DISK USED  *        14.28 GB (local),      509.78 GB (total)
 SF USED    *        13.87 GB
 GA USED    *         0.00 MB       (max)       0.00 MB       (current)
 **********************************************************************************************************************************


 PROGRAM * RHF-SCF (CLOSED SHELL)       Authors: W. Meyer, H.-J. Werner


 NUMBER OF ELECTRONS:       5+    5-    SPACE SYMMETRY=1    SPIN SYMMETRY: Singlet 
 CONVERGENCE THRESHOLDS:    1.00E-08 (Density)    1.00E-11 (Energy)
 MAX. NUMBER OF ITERATIONS:       60
 INTERPOLATION TYPE:            DIIS
 INTERPOLATION STEPS:              2 (START)      1 (STEP)
 LEVEL SHIFTS:                  0.00 (CLOSED)  0.00 (OPEN) 



 Orbital guess generated from atomic densities. Full valence occupancy:    7

 Molecular orbital dump at record        2101.2

 Initial occupancy:   5

 ITERATION    DDIFF          GRAD             ENERGY        2-EL.EN.            DIPOLE MOMENTS         DIIS   ORB.
    1      0.000D+00      0.000D+00       -76.02644966     77.438785    0.86246   -0.69117    0.31147    0    start
    2      0.000D+00      0.360D-02       -76.05328319     73.783456    0.50388   -0.39687    0.18482    1    diag
    3      0.130D-02      0.229D-02       -76.06484696     75.406278    0.59384   -0.46924    0.21719    2    diag
    4      0.491D-03      0.215D-03       -76.06504159     75.314849    0.59072   -0.46541    0.21661    3    diag
    5      0.619D-04      0.601D-04       -76.06506254     75.329353    0.58960   -0.46395    0.21643    4    diag
    6      0.194D-04      0.120D-04       -76.06506391     75.328286    0.58936   -0.46358    0.21642    5    diag
    7      0.504D-05      0.245D-05       -76.06506398     75.328430    0.58928   -0.46346    0.21641    6    diag
    8      0.131D-05      0.466D-06       -76.06506398     75.328419    0.58925   -0.46343    0.21640    7    diag
    9      0.243D-06      0.636D-07       -76.06506398     75.328409    0.58925   -0.46343    0.21640    8    diag
   10      0.321D-07      0.143D-07       -76.06506398     75.328412    0.58925   -0.46343    0.21640    9    orth
   11      0.764D-08      0.289D-08       -76.06506398     75.328412    0.58925   -0.46343    0.21640    0    orth

 Final occupancy:   5

 !RHF STATE  1.1 Energy               -76.065063979974
 Nuclear energy                         9.01266574
 One-electron energy                 -122.74193550
 Two-electron energy                   37.66420578
 Virial quotient                       -1.00184293
 !RHF STATE  1.1 Dipole moment          0.58925113    -0.46342957     0.21640385
 Dipole moment /Debye                   1.49762889    -1.17784332     0.55000769

 Orbital energies:

         1.1          2.1          3.1          4.1          5.1          6.1          7.1
    -20.566969    -1.342476    -0.708835    -0.579741    -0.508741     0.018606     0.028830


 HOMO      5.1    -0.508741 =     -13.8436eV
 LUMO      6.1     0.018606 =       0.5063eV
 LUMO-HOMO         0.527347 =      14.3499eV


 **********************************************************************************************************************************
 DATASETS  * FILE   NREC   LENGTH (MB)   RECORD NAMES
              1      18       49.80       500      610      700      900      950      970     1000      129      960     1100   
                                          VAR    BASINP    GEOM    SYMINP    ZMAT    AOBASIS   BASIS     P2S    ABASIS      S 
                                         1400     1410     1200     1210     1080     1600     1650     1700   
                                           T        V       H0       H01     AOSYM     SMH    MOLCAS    OPER   

              2       6       38.39       700     1000      520     2100      200     2101   
                                         GEOM     BASIS   MCVARS     RHF    OPTIONS    RHF  

 PROGRAMS   *        TOTAL    HF-SCF       INT   CCSD(T)    HF-SCF       INT
 CPU TIMES  *     50597.14   1783.24      0.89  44936.67   2050.39   1825.71
 REAL TIME  *     52211.95 SEC
 DISK USED  *        14.28 GB (local),      509.78 GB (total)
 SF USED    *        13.87 GB
 GA USED    *         0.00 MB       (max)       0.00 MB       (current)
 **********************************************************************************************************************************

 Basis set:  JKFIT                   
 Basis size:  1104
 Attributes:
 Sphericals:   T
 Basis set:  MP2FIT                  
 Basis size:  1246
 Attributes:
 Sphericals:   T
 Basis set:  RI                      
 Basis size:   730
 Attributes:
 Sphericals:   T
 Basis set:  TDDFT                   
 Basis size:  1246
 Attributes:
 Sphericals:   T

 PROGRAM * CCSD (Closed-shell coupled cluster)     Authors: C. Hampel, H.-J. Werner, 1991, M. Deegan, P.J. Knowles, 1992


 Convergence thresholds:  THRVAR = 1.00D-08  THRDEN = 1.00D-10

 CCSD(T)     terms to be evaluated (factor= 1.000)


 Number of core orbitals:           1 (   1 )
 Number of closed-shell orbitals:   4 (   4 )
 Number of external orbitals:     729 ( 729 )

 Molecular orbitals read from record     2101.2  Type=RHF/CANONICAL (state 1.1)

 Number of N-1 electron functions:               4
 Number of N-2 electron functions:              10
 Number of singly external CSFs:              2916
 Number of doubly external CSFs:           4252986
 Total number of CSFs:                     4255903

 Length of J-op  integral file:               0.00 MB
 Length of K-op  integral file:              37.04 MB
 Length of 3-ext integral record:             0.00 MB

 For full I/O caching in triples, increase memory by 535.09 Mwords to 2535.14 Mwords.

 Integral transformation finished. Total CPU:1424.12 sec, npass=  1  Memory used:1010.01 MW

 Reference energy:                    -76.06506398

 MP2 singlet pair energy:              -0.19209390
 MP2 triplet pair energy:              -0.10222501
 MP2 correlation energy:               -0.29431891
 MP2 total energy:                    -76.35938289

 SCS-MP2 correlation energy:           -0.29411935   (PS=  1.200000  PT=  0.333333)
 SCS-MP2 total energy:                -76.35918333

 ITER.      SQ.NORM     CORR.ENERGY   TOTAL ENERGY   ENERGY CHANGE        DEN1      VAR(S)    VAR(P)  DIIS     TIME  TIME/IT
   1      1.06403729    -0.29423535   -76.35929933     0.00008356     0.00600553  0.81D-03  0.10D-02  1  1  1787.84   372.23
   2      1.06759541    -0.29447678   -76.35954076    -0.00024142    -0.00494124  0.16D-04  0.12D-03  2  2  2151.75   373.97
   3      1.06901820    -0.29455556   -76.35961954    -0.00007878    -0.00102121  0.80D-05  0.67D-05  3  3  2515.88   374.59
   4      1.06949797    -0.29455376   -76.35961774     0.00000180    -0.00023360  0.51D-06  0.73D-06  4  4  2880.47   375.02
   5      1.06960131    -0.29455209   -76.35961607     0.00000167    -0.00003120  0.16D-06  0.50D-07  5  5  3245.09   375.24
   6      1.06963675    -0.29454950   -76.35961348     0.00000259    -0.00000774  0.16D-07  0.40D-08  6  6  3609.92   375.41
   7      1.06964424    -0.29454900   -76.35961298     0.00000050    -0.00000066  0.11D-08  0.58D-09  6  1  3974.65   375.56
   8      1.06964575    -0.29454892   -76.35961290     0.00000007     0.00000009  0.17D-09  0.66D-10  6  2  4339.65   375.69
   9      1.06964637    -0.29454888   -76.35961286     0.00000005    -0.00000000  0.11D-10  0.66D-11  6  3  4704.50   375.75
  10      1.06964644    -0.29454887   -76.35961285     0.00000000     0.00000004  0.16D-11  0.74D-12  6  4  5070.25   375.86
  11      1.06964644    -0.29454888   -76.35961286    -0.00000000     0.00000002  0.34D-12  0.12D-12  6  5  5436.40   376.03
  12      1.06964643    -0.29454888   -76.35961286    -0.00000000     0.00000001  0.68D-13  0.17D-13  6  6  5801.42   376.06
  13      1.06964642    -0.29454888   -76.35961286    -0.00000000     0.00000000  0.10D-13  0.30D-14  6  1  6165.77   376.06
  14      1.06964642    -0.29454888   -76.35961286    -0.00000000     0.00000000  0.12D-14  0.61D-15  6  2  6529.84   376.05
  15      1.06964642    -0.29454888   -76.35961286    -0.00000000     0.00000000  0.13D-15  0.83D-16  6  3  6894.63   376.06
  16      1.06964642    -0.29454888   -76.35961286    -0.00000000     0.00000000  0.18D-16  0.12D-16  6  4  7259.12   376.09

 Norm of t1 vector:      0.03748919      S-energy:    -0.00000000      T1 diagnostic:  0.00937230
                                                                       D1 diagnostic:  0.01935888


 Total CPU time for triples:   3439.70 sec


 RESULTS
 =======

  Reference energy                    -76.065063979975
  CCSD singlet pair energy             -0.204154038783
  CCSD triplet pair energy             -0.090394839213
  CCSD correlation energy              -0.294548878538

  Triples (T) contribution             -0.009849415870
  Total correlation energy             -0.304398294409

  CCSD total energy                   -76.359612858513
  CCSD[T] energy                      -76.369773853141
  CCSD-T energy                       -76.369317924599
 !CCSD(T) total energy                -76.369462274383

 Timing summary (sec):

 STEP                 CPU(USER)    SYS     CPU(TOT)    WALL
 Transformation       1426.05     31.13   1457.18   1458.81
 CCSD iterations      5833.43    177.86   6011.29   6018.20
 Triples              3439.70     25.21   3464.91   3468.90

 Program statistics:

 Available memory in ccsd:              1999999921
 Min. memory needed in ccsd:              19268142
 Max. memory used in ccsd:                22427508
 Max. memory used in cckext:              14646566 (16 integral passes)



 **********************************************************************************************************************************
 DATASETS  * FILE   NREC   LENGTH (MB)   RECORD NAMES
              1      19     6330.40       500      610      700      900      950      970     1000      129      960     1100   
                                          VAR    BASINP    GEOM    SYMINP    ZMAT    AOBASIS   BASIS     P2S    ABASIS      S 
                                         1400     1410     1200     1210     1080     1600     1650     1700     1380   
                                           T        V       H0       H01     AOSYM     SMH    MOLCAS    OPER     JKOP   

              2       6       38.39       700     1000      520     2100      200     2101   
                                         GEOM     BASIS   MCVARS     RHF    OPTIONS    RHF  

 PROGRAMS   *        TOTAL   CCSD(T)    HF-SCF       INT   CCSD(T)    HF-SCF       INT
 CPU TIMES  *     61296.60  10699.45   1783.24      0.89  44936.67   2050.39   1825.71
 REAL TIME  *     63159.17 SEC
 DISK USED  *        14.28 GB (local),      509.78 GB (total)
 SF USED    *        13.87 GB
 GA USED    *         0.00 MB       (max)       0.00 MB       (current)
 **********************************************************************************************************************************

 Running procedure: SET_MONOMER2

 Dummy atoms: O5  H9  H10


 Recomputing one-electron integrals since nuclear charges changed


 PROGRAM * SEWARD (Integral evaluation for generally contracted gaussian basis sets)     Author: Roland Lindh, 1990

 Geometry written to block  1 of record 700


 Point group  C1  



 ATOMIC COORDINATES

 NR  ATOM    CHARGE       X              Y              Z

   1  O5      0.00   -0.603200579    4.424037830    7.113685023
   2  H9      0.00    0.770063396    4.853761551    8.236371314
   3  H10     0.00   -0.289128097    2.656576986    6.606293559
   4  C1      6.00   -6.193010455    2.801518980    2.403542658
   5  H41     1.00   -4.656285171    1.699997622    3.119937832
   6  H42     1.00   -5.973046335    4.726205038    2.982932688
   7  H43     1.00   -7.940251230    2.077186956    3.118237078
   8  H44     1.00   -6.176569838    2.685300823    0.384937212

 Bond lengths in Bohr (Angstrom)

 1-2  1.825086553  1-3  1.865477274  4-5  2.021904040  4-6  2.022002335  4-7  2.021953343
     ( 0.965794212)     ( 0.987168061)     ( 1.069945541)     ( 1.069997556)     ( 1.069971630)

 4-8  2.022015060
     ( 1.070004290)

 Bond angles

  2-1-3  105.29057030   5-4-6  109.53398059   5-4-7  109.65604535   5-4-8  108.43490854

  6-4-7  109.49436728   6-4-8  109.86987750   7-4-8  109.83468330

 NUCLEAR CHARGE:                   10
 NUMBER OF PRIMITIVE AOS:        1046
 NUMBER OF SYMMETRY AOS:          786
 NUMBER OF CONTRACTIONS:          734   (  734A   )
 NUMBER OF CORE ORBITALS:           1   (    1A   )
 NUMBER OF VALENCE ORBITALS:        8   (    8A   )

 MOLECULE CHANGED: INITIALIZING OCCUPATION AND DUMP RECORDS


 NUCLEAR REPULSION ENERGY   13.68681606

 Basis set:  JKFIT                   
 Basis size:  1104
 Attributes:
 Sphericals:   T
 Basis set:  MP2FIT                  
 Basis size:  1246
 Attributes:
 Sphericals:   T
 Basis set:  RI                      
 Basis size:   730
 Attributes:
 Sphericals:   T
 Basis set:  TDDFT                   
 Basis size:  1246
 Attributes:
 Sphericals:   T

 Eigenvalues of metric

         1 0.196E-05 0.299E-05 0.377E-05 0.480E-05 0.515E-05 0.741E-05 0.869E-05 0.963E-05


 Contracted 2-electron integrals neglected if value below      1.0D-14

 OPERATOR DM      FOR CENTER  0  COORDINATES:    0.000000    0.000000    0.000000


 **********************************************************************************************************************************
 DATASETS  * FILE   NREC   LENGTH (MB)   RECORD NAMES
              1      18       49.80       500      610      700      900      950      970     1000      129      960     1100   
                                          VAR    BASINP    GEOM    SYMINP    ZMAT    AOBASIS   BASIS     P2S    ABASIS      S 
                                         1400     1410     1200     1210     1080     1600     1650     1700   
                                           T        V       H0       H01     AOSYM     SMH    MOLCAS    OPER   

              2       6       38.39       700     1000      520     2100      200     2101   
                                         GEOM     BASIS   MCVARS     RHF    OPTIONS    RHF  

 PROGRAMS   *        TOTAL       INT   CCSD(T)    HF-SCF       INT   CCSD(T)    HF-SCF       INT
 CPU TIMES  *     61297.49      0.88  10699.45   1783.24      0.89  44936.67   2050.39   1825.71
 REAL TIME  *     63161.15 SEC
 DISK USED  *        14.28 GB (local),      509.78 GB (total)
 SF USED    *        13.87 GB
 GA USED    *         0.00 MB       (max)       0.00 MB       (current)
 **********************************************************************************************************************************


 PROGRAM * RHF-SCF (CLOSED SHELL)       Authors: W. Meyer, H.-J. Werner


 NUMBER OF ELECTRONS:       5+    5-    SPACE SYMMETRY=1    SPIN SYMMETRY: Singlet 
 CONVERGENCE THRESHOLDS:    1.00E-08 (Density)    1.00E-11 (Energy)
 MAX. NUMBER OF ITERATIONS:       60
 INTERPOLATION TYPE:            DIIS
 INTERPOLATION STEPS:              2 (START)      1 (STEP)
 LEVEL SHIFTS:                  0.00 (CLOSED)  0.00 (OPEN) 



 Orbital guess generated from atomic densities. Full valence occupancy:    9

 Molecular orbital dump at record        2102.2

 Initial occupancy:   5

 ITERATION    DDIFF          GRAD             ENERGY        2-EL.EN.            DIPOLE MOMENTS         DIIS   ORB.
    1      0.000D+00      0.000D+00       -40.19676530     53.509904    0.00411   -0.00276   -0.00131    0    start
    2      0.000D+00      0.198D-02       -40.21405751     52.218480    0.00128   -0.00087   -0.00039    1    diag
    3      0.949D-03      0.769D-03       -40.21634094     52.673987    0.00182   -0.00123   -0.00055    2    diag
    4      0.259D-03      0.192D-03       -40.21666126     52.619250    0.00161   -0.00110   -0.00049    3    diag
    5      0.101D-03      0.248D-04       -40.21666674     52.621407    0.00159   -0.00108   -0.00048    4    diag
    6      0.352D-04      0.204D-05       -40.21666679     52.621535    0.00159   -0.00108   -0.00048    5    diag
    7      0.614D-05      0.166D-06       -40.21666679     52.621498    0.00158   -0.00108   -0.00048    6    diag
    8      0.352D-06      0.136D-07       -40.21666679     52.621498    0.00159   -0.00108   -0.00048    7    diag
    9      0.571D-07      0.167D-08       -40.21666679     52.621498    0.00158   -0.00108   -0.00048    8    diag
   10      0.106D-07      0.465D-09       -40.21666679     52.621498    0.00158   -0.00108   -0.00048    9    orth
   11      0.107D-08      0.666D-10       -40.21666679     52.621498    0.00158   -0.00108   -0.00048    0    orth

 Final occupancy:   5

 !RHF STATE  1.1 Energy               -40.216666786806
 Nuclear energy                        13.68681606
 One-electron energy                  -80.21423202
 Two-electron energy                   26.31074918
 Virial quotient                       -0.99832815
 !RHF STATE  1.1 Dipole moment          0.00158495    -0.00107794    -0.00047687
 Dipole moment /Debye                   0.00402828    -0.00273967    -0.00121200

 Orbital energies:

         1.1          2.1          3.1          4.1          5.1          6.1          7.1
    -11.196017    -0.950605    -0.551931    -0.549996    -0.547818     0.020649     0.031395


 HOMO      5.1    -0.547818 =     -14.9069eV
 LUMO      6.1     0.020649 =       0.5619eV
 LUMO-HOMO         0.568467 =      15.4688eV


 **********************************************************************************************************************************
 DATASETS  * FILE   NREC   LENGTH (MB)   RECORD NAMES
              1      18       49.80       500      610      700      900      950      970     1000      129      960     1100   
                                          VAR    BASINP    GEOM    SYMINP    ZMAT    AOBASIS   BASIS     P2S    ABASIS      S 
                                         1400     1410     1200     1210     1080     1600     1650     1700   
                                           T        V       H0       H01     AOSYM     SMH    MOLCAS    OPER   

              2       7       62.47       700     1000      520     2100      200     2101     2102   
                                         GEOM     BASIS   MCVARS     RHF    OPTIONS    RHF      RHF  

 PROGRAMS   *        TOTAL    HF-SCF       INT   CCSD(T)    HF-SCF       INT   CCSD(T)    HF-SCF       INT
 CPU TIMES  *     63069.50   1772.01      0.88  10699.45   1783.24      0.89  44936.67   2050.39   1825.71
 REAL TIME  *     65062.58 SEC
 DISK USED  *        14.28 GB (local),      509.78 GB (total)
 SF USED    *        13.87 GB
 GA USED    *         0.00 MB       (max)       0.00 MB       (current)
 **********************************************************************************************************************************

 Basis set:  JKFIT                   
 Basis size:  1104
 Attributes:
 Sphericals:   T
 Basis set:  MP2FIT                  
 Basis size:  1246
 Attributes:
 Sphericals:   T
 Basis set:  RI                      
 Basis size:   730
 Attributes:
 Sphericals:   T
 Basis set:  TDDFT                   
 Basis size:  1246
 Attributes:
 Sphericals:   T

 PROGRAM * CCSD (Closed-shell coupled cluster)     Authors: C. Hampel, H.-J. Werner, 1991, M. Deegan, P.J. Knowles, 1992


 Convergence thresholds:  THRVAR = 1.00D-08  THRDEN = 1.00D-10

 CCSD(T)     terms to be evaluated (factor= 1.000)


 Number of core orbitals:           1 (   1 )
 Number of closed-shell orbitals:   4 (   4 )
 Number of external orbitals:     729 ( 729 )

 Molecular orbitals read from record     2102.2  Type=RHF/CANONICAL (state 1.1)

 Number of N-1 electron functions:               4
 Number of N-2 electron functions:              10
 Number of singly external CSFs:              2916
 Number of doubly external CSFs:           4252986
 Total number of CSFs:                     4255903

 Length of J-op  integral file:               0.00 MB
 Length of K-op  integral file:              37.04 MB
 Length of 3-ext integral record:             0.00 MB

 For full I/O caching in triples, increase memory by 535.09 Mwords to 2535.14 Mwords.

 Integral transformation finished. Total CPU:1393.68 sec, npass=  1  Memory used:1010.01 MW

 Reference energy:                    -40.21666679

 MP2 singlet pair energy:              -0.15787647
 MP2 triplet pair energy:              -0.05682273
 MP2 correlation energy:               -0.21469920
 MP2 total energy:                    -40.43136599

 SCS-MP2 correlation energy:           -0.22480813   (PS=  1.200000  PT=  0.333333)
 SCS-MP2 total energy:                -40.44147492

 ITER.      SQ.NORM     CORR.ENERGY   TOTAL ENERGY   ENERGY CHANGE        DEN1      VAR(S)    VAR(P)  DIIS     TIME  TIME/IT
   1      1.07073135    -0.22924207   -40.44590885    -0.01454287    -0.00881085  0.58D-03  0.96D-03  1  1  1756.05   371.18
   2      1.07565314    -0.23033680   -40.44700359    -0.00109473    -0.00537200  0.15D-04  0.11D-03  2  2  2120.26   373.32
   3      1.07738970    -0.23037730   -40.44704409    -0.00004050    -0.00128244  0.20D-05  0.63D-05  3  3  2484.35   374.21
   4      1.07778007    -0.23037903   -40.44704582    -0.00000173    -0.00020099  0.14D-06  0.35D-06  4  4  2847.54   374.45
   5      1.07783443    -0.23038280   -40.44704958    -0.00000376    -0.00001096  0.13D-07  0.24D-07  5  5  3211.36   374.64
   6      1.07784456    -0.23038148   -40.44704827     0.00000132    -0.00000414  0.78D-09  0.17D-08  6  6  3575.47   374.77
   7      1.07784588    -0.23038111   -40.44704789     0.00000037    -0.00000073  0.52D-10  0.13D-09  6  1  3939.19   374.87
   8      1.07784580    -0.23038116   -40.44704795    -0.00000006     0.00000024  0.54D-11  0.76D-11  6  3  4303.05   374.92
   9      1.07784593    -0.23038114   -40.44704793     0.00000002    -0.00000009  0.38D-12  0.53D-12  6  2  4666.90   374.95
  10      1.07784594    -0.23038114   -40.44704793     0.00000000     0.00000001  0.52D-13  0.58D-13  6  4  5032.42   375.16
  11      1.07784594    -0.23038114   -40.44704793     0.00000000    -0.00000000  0.52D-14  0.63D-14  6  5  5396.31   375.20
  12      1.07784594    -0.23038114   -40.44704793     0.00000000     0.00000000  0.13D-15  0.63D-15  6  6  5760.78   375.27
  13      1.07784594    -0.23038114   -40.44704793    -0.00000000     0.00000000  0.11D-16  0.70D-16  6  1  6124.38   375.26
  14      1.07784594    -0.23038114   -40.44704793    -0.00000000     0.00000000  0.19D-17  0.12D-16  6  3  6487.23   375.23

 Norm of t1 vector:      0.03185968      S-energy:     0.00000000      T1 diagnostic:  0.00796492
                                                                       D1 diagnostic:  0.01279374

 Total CPU time for triples:   3439.94 sec


 RESULTS
 =======

  Reference energy                    -40.216666786805
  CCSD singlet pair energy             -0.175399177966
  CCSD triplet pair energy             -0.054981962753
  CCSD correlation energy              -0.230381140712

  Triples (T) contribution             -0.007018658413
  Total correlation energy             -0.237399799125

  CCSD total energy                   -40.447047927517
  CCSD[T] energy                      -40.454290422659
  CCSD-T energy                       -40.453999631421
 !CCSD(T) total energy                -40.454066585929

 Timing summary (sec):

 STEP                 CPU(USER)    SYS     CPU(TOT)    WALL
 Transformation       1395.61     30.57   1426.18   1427.74
 CCSD iterations      5092.00    155.97   5247.97   5254.00
 Triples              3439.94     25.07   3465.01   3469.03

 Program statistics:

 Available memory in ccsd:              1999999916
 Min. memory needed in ccsd:              19268142
 Max. memory used in ccsd:                22427508
 Max. memory used in cckext:              14646566 (14 integral passes)



 **********************************************************************************************************************************
 DATASETS  * FILE   NREC   LENGTH (MB)   RECORD NAMES
              1      19     6330.40       500      610      700      900      950      970     1000      129      960     1100   
                                          VAR    BASINP    GEOM    SYMINP    ZMAT    AOBASIS   BASIS     P2S    ABASIS      S 
                                         1400     1410     1200     1210     1080     1600     1650     1700     1380   
                                           T        V       H0       H01     AOSYM     SMH    MOLCAS    OPER     JKOP   

              2       7       62.47       700     1000      520     2100      200     2101     2102   
                                         GEOM     BASIS   MCVARS     RHF    OPTIONS    RHF      RHF  

 PROGRAMS   *        TOTAL   CCSD(T)    HF-SCF       INT   CCSD(T)    HF-SCF       INT   CCSD(T)    HF-SCF       INT
 CPU TIMES  *     72997.31   9927.80   1772.01      0.88  10699.45   1783.24      0.89  44936.67   2050.39   1825.71
 REAL TIME  *     75214.65 SEC
 DISK USED  *        14.28 GB (local),      509.78 GB (total)
 SF USED    *        13.87 GB
 GA USED    *         0.00 MB       (max)       0.00 MB       (current)
 **********************************************************************************************************************************
 Molecular orbitals read from record     2102.2  Type=RHF/CANONICAL (state 1.1)
 Occupation numbers read from record     2102.2  Type=RHF/RHF (state 1.1)
 Orbital energies read from record       2102.2  Type=RHF/CANONICAL (state 1.1)
 Redundancy group numbers read from rec  2102.2  Type=RHF/RHF (state 1.1)

 CCSD(T)/aug-cc-pV5Z energy=    -40.454066585929

         CCSD(T)          HF-SCF         CCSD(T)          HF-SCF         CCSD(T)          HF-SCF
    -40.45406659    -40.21666679    -76.36946227    -76.06506398   -116.82383451   -116.28145633
 **********************************************************************************************************************************
 Molpro calculation terminated
