
 Primary working directories    : /scratch/klimes/400922/molpro.gb3DRY5fG6
 Secondary working directories  : /scratch/klimes/400922/molpro.gb3DRY5fG6
 Wavefunction directory         : /scratch/klimes/400922/
 Main file repository           : /scratch/klimes/400922/molpro.gb3DRY5fG6/

 id        : karlovklimes

 Nodes                      nprocs
 nc-22.cc.karlov.mff.cuni.cz    4

 Using customized tuning parameters: mindgm=1; mindgv=20; mindgc=4; mindgr=1; noblas=0; minvec=7
 default implementation of scratch files=sf  


 Variables initialized (930), CPU time= 0.02 sec
                                                                                 !gdirect
 memory,2000,m
 gthresh,orbital=1d-10,energy=1d-10,grid=1d-8
 
 symmetry,nosym
 angstrom
 geometry={
 O6        -0.534600000000      4.167800000000      1.543100000000
 H11        -0.433700000000      3.518000000000      2.262500000000
 H12        -0.341300000000      3.668400000000      0.725200000000
 C1        -3.277200000000      1.482500000000      1.271900000000
 H41        -2.464000000000      0.899600000000      1.651000000000
 H42        -3.160800000000      2.501000000000      1.578500000000
 H43        -4.201800000000      1.099200000000      1.650100000000
 H44        -3.268500000000      1.421000000000      0.203700000000
 }
 
 nkerna=1
 nkernb=1
 
 gf=0
 sing=1
 thrdum=1d-4
 gridthr=1d-8
 
 basis={
 set,orbital
 default,av5z
 set,jkfit
 default,av5z/jkfit
 set,mp2fit
 default,av5z/mp2fit
 set,ri
 default,av5z/optri
 set,tddft
 default,av5z/mp2fit
 }
 
 proc set_monomer1
 dummy,4,5,6,7,8
 endproc
 
 proc set_monomer2
 dummy,1,2,3
 endproc
 
                                                                                 !1234 energy
 {hf,accu=1.d-16}
 ccsd(t)
 
 set_monomer1
 {hf,accu=1.d-16}
 ccsd(t)
 
 set_monomer2
 {hf,accu=1.d-16}
 ccsd(t)
 
 Commands  initialized (760), CPU time= 0.01 sec, 617 directives.
 Default parameters read. Elapsed time= 0.20 sec

 Checking input...
 Passed
1


                                         ***  PROGRAM SYSTEM MOLPRO  ***
                                       Copyright, TTI GmbH Stuttgart, 2015
                                    Version 2019.1 linked Jan 14 2019 13:09:19


 **********************************************************************************************************************************
 LABEL *                                                                                 
  64 bit mpp version                                                                     DATE: 14-Mar-20          TIME: 12:30:03  
 **********************************************************************************************************************************

 SHA1:             d688ac825633d238f2093ded1675ba87ccd55965
 **********************************************************************************************************************************

 THRESHOLDS:

 ZERO    =  1.00D-12  ONEINT  =  1.00D-12  TWOINT  =  1.00D-11  PREFAC  =  1.00D-14  XXXXXX  =  1.00D-09  EORDER  =  1.00D-04
 ENERGY  =  1.00D-10  ETEST   =  0.00D+00  EDENS   =  0.00D+00  THRDEDEF=  1.00D-06  GRADIENT=  1.00D-02  STEP    =  1.00D-03
 ORBITAL =  1.00D-10  CIVEC   =  1.00D-05  COEFF   =  1.00D-04  PRINTCI =  5.00D-02  PUNCHCI =  9.90D+01  OPTGRAD =  3.00D-04
 OPTENERG=  1.00D-06  OPTSTEP =  3.00D-04  THRGRAD =  1.00D-10  COMPRESS=  1.00D-11  VARMIN  =  1.00D-07  VARMAX  =  1.00D-03
 THRDOUB =  0.00D+00  THRDIV  =  1.00D-05  THRRED  =  1.00D-07  THRPSP  =  1.00D+00  THRDC   =  1.00D-10  THRCS   =  1.00D-10
 THRNRM  =  1.00D-08  THREQ   =  0.00D+00  THRDE   =  1.00D+00  THRREF  =  1.00D-05  SPARFAC =  1.00D+00  THRDLP  =  1.00D-07
 THRDIA  =  1.00D-10  THRDLS  =  1.00D-07  THRGPS  =  0.00D+00  THRKEX  =  0.00D+00  THRDIS  =  2.00D-01  THRVAR  =  1.00D-10
 THRLOC  =  1.00D-06  THRGAP  =  1.00D-06  THRLOCT = -1.00D+00  THRGAPT = -1.00D+00  THRORB  =  1.00D-06  THRMLTP =  0.00D+00
 THRCPQCI=  1.00D-10  KEXTA   =  0.00D+00  THRCOARS=  0.00D+00  SYMTOL  =  1.00D-06  GRADTOL =  1.00D-06  THROVL  =  1.00D-08
 THRORTH =  1.00D-08  GRID    =  1.00D-08  GRIDMAX =  1.00D-03  DTMAX   =  0.00D+00  THROCCDE=  1.00D-01  THROCCDE=  1.00D-01
 THRPRINT=  2.50D-01


 Variable memory set to 2000000000 words,  buffer space 

 ZSYMEL=NOSYM
 ZUNIT=ANG


Geometry recognized as XYZ

 SETTING NKERNA         =         1.00000000                                  
 SETTING NKERNB         =         1.00000000                                  
 SETTING GF             =     0.00000000D+00                                  
 SETTING SING           =         1.00000000                                  
 SETTING THRDUM         =     1.00000000D-04                                  
 SETTING GRIDTHR        =     1.00000000D-08                                  
 SETTING BASIS          =    AV5Z


 Recomputing integrals since basis changed


 Using spherical harmonics

 Library entry O      S aug-cc-pV5Z          selected for orbital group  1
 Library entry O      P aug-cc-pV5Z          selected for orbital group  1
 Library entry O      D aug-cc-pV5Z          selected for orbital group  1
 Library entry O      F aug-cc-pV5Z          selected for orbital group  1
 Library entry O      G aug-cc-pV5Z          selected for orbital group  1
 Library entry O      H aug-cc-pV5Z          selected for orbital group  1
 Library entry H      S aug-cc-pV5Z          selected for orbital group  2
 Library entry H      P aug-cc-pV5Z          selected for orbital group  2
 Library entry H      D aug-cc-pV5Z          selected for orbital group  2
 Library entry H      F aug-cc-pV5Z          selected for orbital group  2
 Library entry H      G aug-cc-pV5Z          selected for orbital group  2
 Library entry C      S aug-cc-pV5Z          selected for orbital group  3
 Library entry C      P aug-cc-pV5Z          selected for orbital group  3
 Library entry C      D aug-cc-pV5Z          selected for orbital group  3
 Library entry C      F aug-cc-pV5Z          selected for orbital group  3
 Library entry C      G aug-cc-pV5Z          selected for orbital group  3
 Library entry C      H aug-cc-pV5Z          selected for orbital group  3


 PROGRAM * SEWARD (Integral evaluation for generally contracted gaussian basis sets)     Author: Roland Lindh, 1990

 Geometry written to block  1 of record 700


 Point group  C1  



 ATOMIC COORDINATES

 NR  ATOM    CHARGE       X              Y              Z

   1  O6      8.00   -1.010247586    7.876000542    2.916036383
   2  H11     1.00   -0.819574220    6.648056506    4.275505357
   3  H12     1.00   -0.644963526    6.932271315    1.370429386
   4  C1      6.00   -6.193010455    2.801518980    2.403542658
   5  H41     1.00   -4.656285171    1.699997622    3.119937832
   6  H42     1.00   -5.973046335    4.726205038    2.982932688
   7  H43     1.00   -7.940251230    2.077186956    3.118237078
   8  H44     1.00   -6.176569838    2.685300823    0.384937212

 Bond lengths in Bohr (Angstrom)

 1-2  1.841835709  1-3  1.847419359  4-5  2.021904040  4-6  2.022002335  4-7  2.021953343
     ( 0.974657483)     ( 0.977612224)     ( 1.069945541)     ( 1.069997556)     ( 1.069971630)

 4-8  2.022015060
     ( 1.070004290)

 Bond angles

  2-1-3  104.86126985   5-4-6  109.53398059   5-4-7  109.65604535   5-4-8  108.43490854

  6-4-7  109.49436728   6-4-8  109.86987750   7-4-8  109.83468330

 NUCLEAR CHARGE:                   20
 NUMBER OF PRIMITIVE AOS:        1046
 NUMBER OF SYMMETRY AOS:          786
 NUMBER OF CONTRACTIONS:          734   (  734A   )
 NUMBER OF CORE ORBITALS:           2   (    2A   )
 NUMBER OF VALENCE ORBITALS:       14   (   14A   )


 NUCLEAR REPULSION ENERGY   36.57703656


 Basis set:  JKFIT                   
 Basis size:  1104
 Attributes:
 Sphericals:   T
 Basis set:  MP2FIT                  
 Basis size:  1246
 Attributes:
 Sphericals:   T
 Basis set:  RI                      
 Basis size:   730
 Attributes:
 Sphericals:   T
 Basis set:  TDDFT                   
 Basis size:  1246
 Attributes:
 Sphericals:   T

 **********************************************************************************************************************************


 Eigenvalues of metric

         1 0.183E-05 0.195E-05 0.337E-05 0.392E-05 0.536E-05 0.718E-05 0.824E-05 0.891E-05


 Contracted 2-electron integrals neglected if value below      1.0D-14
 AO integral compression algorithm  1   Integral accuracy      1.0D-14

     155681.554 MB (compressed) written to integral file ( 49.3%)

     Node minimum: 30737.170 MB, node maximum: 42207.019 MB


 NUMBER OF SORTED TWO-ELECTRON INTEGRALS: 9095363064.     BUFFER LENGTH:  32768
 NUMBER OF SEGMENTS: 190  SEGMENT LENGTH:   47999780      RECORD LENGTH: 131072

 Memory used in sort:      48.16 MW

 SORT1 READ 39471791889. AND WROTE  7077948163. INTEGRALS IN  81098 RECORDS. CPU TIME:  1313.25 SEC, REAL TIME:  1547.29 SEC
 SORT2 READ 28318392018. AND WROTE 36381317385. INTEGRALS IN 632752 RECORDS. CPU TIME:   132.36 SEC, REAL TIME:  1160.08 SEC

 Node minimum:  9095228192.  Node maximum:  9095430501. integrals

 OPERATOR DM      FOR CENTER  0  COORDINATES:    0.000000    0.000000    0.000000


 **********************************************************************************************************************************
 DATASETS  * FILE   NREC   LENGTH (MB)   RECORD NAMES
              1      18       49.80       500      610      700      900      950      970     1000      129      960     1100   
                                          VAR    BASINP    GEOM    SYMINP    ZMAT    AOBASIS   BASIS     P2S    ABASIS      S 
                                         1400     1410     1200     1210     1080     1600     1650     1700   
                                           T        V       H0       H01     AOSYM     SMH    MOLCAS    OPER   

 PROGRAMS   *        TOTAL       INT
 CPU TIMES  *      3158.32   3158.09
 REAL TIME  *      4480.14 SEC
 DISK USED  *        50.44 MB (local),      500.49 GB (total)
 GA USED    *         0.00 MB       (max)       0.00 MB       (current)
 **********************************************************************************************************************************


 PROGRAM * RHF-SCF (CLOSED SHELL)       Authors: W. Meyer, H.-J. Werner


 NUMBER OF ELECTRONS:      10+   10-    SPACE SYMMETRY=1    SPIN SYMMETRY: Singlet 
 CONVERGENCE THRESHOLDS:    1.00E-08 (Density)    1.00E-11 (Energy)
 MAX. NUMBER OF ITERATIONS:       60
 INTERPOLATION TYPE:            DIIS
 INTERPOLATION STEPS:              2 (START)      1 (STEP)
 LEVEL SHIFTS:                  0.00 (CLOSED)  0.00 (OPEN) 



 Orbital guess generated from atomic densities. Full valence occupancy:   16

 Molecular orbital dump at record        2100.2

 Initial occupancy:  10

 ITERATION    DDIFF          GRAD             ENERGY        2-EL.EN.            DIPOLE MOMENTS         DIIS   ORB.
    1      0.000D+00      0.000D+00      -116.22375802    158.578950    0.29083   -1.11242   -0.09785    0    start
    2      0.000D+00      0.291D-02      -116.26771797    153.754504    0.13484   -0.62369   -0.05737    1    diag
    3      0.163D-02      0.170D-02      -116.28115016    155.770346    0.17586   -0.74530   -0.06685    2    diag
    4      0.554D-03      0.254D-03      -116.28180635    155.658232    0.17408   -0.73359   -0.06525    3    diag
    5      0.125D-03      0.742D-04      -116.28187514    155.652842    0.17341   -0.73272   -0.06496    4    diag
    6      0.517D-04      0.181D-04      -116.28187901    155.658521    0.17309   -0.73183   -0.06478    5    diag
    7      0.185D-04      0.366D-05      -116.28187925    155.656783    0.17307   -0.73181   -0.06476    6    diag
    8      0.561D-05      0.929D-06      -116.28187926    155.656960    0.17304   -0.73175   -0.06474    7    diag
    9      0.130D-05      0.217D-06      -116.28187926    155.656934    0.17303   -0.73173   -0.06474    8    diag
   10      0.290D-06      0.259D-07      -116.28187926    155.656936    0.17303   -0.73173   -0.06474    9    orth
   11      0.608D-07      0.604D-08      -116.28187926    155.656937    0.17303   -0.73173   -0.06474    9    diag
   12      0.473D-08      0.159D-08      -116.28187926    155.656937    0.17303   -0.73173   -0.06474    0    orth

 Final occupancy:  10

 !RHF STATE  1.1 Energy              -116.281879264960
 Nuclear energy                        36.57703656
 One-electron energy                 -230.68738440
 Two-electron energy                   77.82846858
 Virial quotient                       -1.00058313
 !RHF STATE  1.1 Dipole moment          0.17303061    -0.73172663    -0.06474192
 Dipole moment /Debye                   0.43977113    -1.85974177    -0.16454676

 Orbital energies:

         1.1          2.1          3.1          4.1          5.1          6.1          7.1          8.1          9.1         10.1
    -20.566514   -11.198290    -1.342491    -0.953337    -0.707819    -0.580560    -0.554665    -0.552685    -0.551108    -0.507755

        11.1         12.1
      0.019530     0.031853


 HOMO     10.1    -0.507755 =     -13.8167eV
 LUMO     11.1     0.019530 =       0.5314eV
 LUMO-HOMO         0.527286 =      14.3482eV


 **********************************************************************************************************************************
 DATASETS  * FILE   NREC   LENGTH (MB)   RECORD NAMES
              1      18       49.80       500      610      700      900      950      970     1000      129      960     1100   
                                          VAR    BASINP    GEOM    SYMINP    ZMAT    AOBASIS   BASIS     P2S    ABASIS      S 
                                         1400     1410     1200     1210     1080     1600     1650     1700   
                                           T        V       H0       H01     AOSYM     SMH    MOLCAS    OPER   

              2       4       13.79       700     1000      520     2100   
                                         GEOM     BASIS   MCVARS     RHF  

 PROGRAMS   *        TOTAL    HF-SCF       INT
 CPU TIMES  *      7230.18   4071.86   3158.09
 REAL TIME  *      9759.30 SEC
 DISK USED  *       102.61 MB (local),      500.69 GB (total)
 SF USED    *         2.16 MB
 GA USED    *         0.00 MB       (max)       0.00 MB       (current)
 **********************************************************************************************************************************

 Basis set:  JKFIT                   
 Basis size:  1104
 Attributes:
 Sphericals:   T
 Basis set:  MP2FIT                  
 Basis size:  1246
 Attributes:
 Sphericals:   T
 Basis set:  RI                      
 Basis size:   730
 Attributes:
 Sphericals:   T
 Basis set:  TDDFT                   
 Basis size:  1246
 Attributes:
 Sphericals:   T

 PROGRAM * CCSD (Closed-shell coupled cluster)     Authors: C. Hampel, H.-J. Werner, 1991, M. Deegan, P.J. Knowles, 1992


 Convergence thresholds:  THRVAR = 1.00D-08  THRDEN = 1.00D-10

 CCSD(T)     terms to be evaluated (factor= 1.000)


 Number of core orbitals:           2 (   2 )
 Number of closed-shell orbitals:   8 (   8 )
 Number of external orbitals:     724 ( 724 )

 Molecular orbitals read from record     2100.2  Type=RHF/CANONICAL (state 1.1)

 Number of N-1 electron functions:               8
 Number of N-2 electron functions:              36
 Number of singly external CSFs:              5792
 Number of doubly external CSFs:          16776528
 Total number of CSFs:                    16782321

 Length of J-op  integral file:               0.00 MB
 Length of K-op  integral file:              37.04 MB
 Length of 3-ext integral record:             0.00 MB

 For full I/O caching in triples, increase memory by 2034.74 Mwords to 4034.79 Mwords.

 Integral transformation finished. Total CPU:4490.69 sec, npass=  1  Memory used:1826.26 MW

 Reference energy:                   -116.28187926

 MP2 singlet pair energy:              -0.35014622
 MP2 triplet pair energy:              -0.15962150
 MP2 correlation energy:               -0.50976771
 MP2 total energy:                   -116.79164698

 SCS-MP2 correlation energy:           -0.51949550   (PS=  1.200000  PT=  0.333333)
 SCS-MP2 total energy:               -116.80137477

 ITER.      SQ.NORM     CORR.ENERGY   TOTAL ENERGY   ENERGY CHANGE        DEN1      VAR(S)    VAR(P)  DIIS     TIME  TIME/IT
   1      1.13500402    -0.52419617  -116.80607544    -0.01442846    -0.00276951  0.14D-02  0.20D-02  1  1  5821.84  1416.87
   2      1.14335425    -0.52552672  -116.80740598    -0.00133054    -0.01020587  0.31D-04  0.25D-03  2  2  7153.16  1423.00
   3      1.14665422    -0.52565232  -116.80753159    -0.00012561    -0.00238858  0.11D-04  0.13D-04  3  3  8353.76  1495.37
   4      1.14755656    -0.52564882  -116.80752808     0.00000350    -0.00045730  0.64D-06  0.13D-05  4  4  9673.82  1482.01
   5      1.14772199    -0.52565057  -116.80752984    -0.00000176    -0.00004496  0.20D-06  0.90D-07  5  5 10999.97  1473.59
   6      1.14776924    -0.52564764  -116.80752691     0.00000293    -0.00001023  0.21D-07  0.75D-08  6  6 12330.15  1466.54
   7      1.14777925    -0.52564641  -116.80752567     0.00000124    -0.00000201  0.20D-08  0.10D-08  6  2 13655.98  1460.08
   8      1.14778158    -0.52564620  -116.80752547     0.00000021    -0.00000018  0.35D-09  0.11D-09  6  1 14977.06  1456.50
   9      1.14778248    -0.52564615  -116.80752542     0.00000005    -0.00000001  0.30D-10  0.16D-10  6  3 16275.04  1448.80
  10      1.14778262    -0.52564615  -116.80752542    -0.00000000     0.00000009  0.31D-11  0.22D-11  6  4 17582.27  1441.53
  11      1.14778259    -0.52564616  -116.80752542    -0.00000001     0.00000007  0.51D-12  0.29D-12  6  5 18892.36  1435.11
  12      1.14778258    -0.52564616  -116.80752543    -0.00000000     0.00000002  0.88D-13  0.36D-13  6  6 20146.13  1424.89
  13      1.14778256    -0.52564616  -116.80752543    -0.00000000     0.00000001  0.18D-13  0.52D-14  6  2 21392.67  1415.20
  14      1.14778256    -0.52564616  -116.80752543    -0.00000000     0.00000000  0.30D-14  0.11D-14  6  1 22624.69  1405.80
  15      1.14778255    -0.52564616  -116.80752543    -0.00000000    -0.00000000  0.42D-15  0.19D-15  6  3 23866.88  1398.40
  16      1.14778255    -0.52564616  -116.80752543    -0.00000000    -0.00000000  0.87D-16  0.32D-16  6  4 25112.41  1392.24
  17      1.14778255    -0.52564616  -116.80752543     0.00000000    -0.00000000  0.31D-16  0.91D-17  6  5 26356.42  1386.72

 Norm of t1 vector:      0.04980074      S-energy:    -0.00000000      T1 diagnostic:  0.00880361
                                                                       D1 diagnostic:  0.02001223

   CPU time for triples:   1856.52 sec for i =  1 -  2 /  8 (~   1.8 % done)
   CPU time for triples:   1855.68 sec for i =  3 -  3 /  8 (~   6.2 % done)
   CPU time for triples:   3744.52 sec for i =  4 -  5 /  8 (~  26.8 % done)
   CPU time for triples:   5610.07 sec for i =  6 -  6 /  8 (~  44.6 % done)
   CPU time for triples:   5616.88 sec for i =  7 -  7 /  8 (~  68.8 % done)
   CPU time for triples:   7471.05 sec for i =  8 -  8 /  8 (  100.0 % done)

 Total CPU time for triples:  26205.92 sec


 RESULTS
 =======

  Reference energy                   -116.281879264954
  CCSD singlet pair energy             -0.379643383734
  CCSD triplet pair energy             -0.146002777950
  CCSD correlation energy              -0.525646161956

  Triples (T) contribution             -0.017005846946
  Total correlation energy             -0.542652008902

  CCSD total energy                  -116.807525426910
  CCSD[T] energy                     -116.825070914278
  CCSD-T energy                      -116.824317341033
 !CCSD(T) total energy               -116.824531273856

 Timing summary (sec):

 STEP                 CPU(USER)    SYS     CPU(TOT)    WALL
 Transformation       4498.00    200.06   4698.06   4754.89
 CCSD iterations     21858.86    748.90  22607.76  23575.90
 Triples             26205.92    750.05  26955.97  27025.02

 Program statistics:

 Available memory in ccsd:              1999999734
 Min. memory needed in ccsd:              48755833
 Max. memory used in ccsd:                63342105
 Max. memory used in cckext:              42809278 (17 integral passes)



 **********************************************************************************************************************************
 DATASETS  * FILE   NREC   LENGTH (MB)   RECORD NAMES
              1      19    12452.38       500      610      700      900      950      970     1000      129      960     1100   
                                          VAR    BASINP    GEOM    SYMINP    ZMAT    AOBASIS   BASIS     P2S    ABASIS      S 
                                         1400     1410     1200     1210     1080     1600     1650     1700     1380   
                                           T        V       H0       H01     AOSYM     SMH    MOLCAS    OPER     JKOP   

              2       4       13.79       700     1000      520     2100   
                                         GEOM     BASIS   MCVARS     RHF  

 PROGRAMS   *        TOTAL   CCSD(T)    HF-SCF       INT
 CPU TIMES  *     59793.22  52563.04   4071.86   3158.09
 REAL TIME  *     65116.53 SEC
 DISK USED  *        14.28 GB (local),      551.96 GB (total)
 SF USED    *        13.87 GB
 GA USED    *         0.00 MB       (max)       0.00 MB       (current)
 **********************************************************************************************************************************

 Running procedure: SET_MONOMER1

 Dummy atoms: C1  H41  H42  H43  H44


 Recomputing one-electron integrals since nuclear charges changed


 PROGRAM * SEWARD (Integral evaluation for generally contracted gaussian basis sets)     Author: Roland Lindh, 1990

 Geometry written to block  1 of record 700


 Point group  C1  



 ATOMIC COORDINATES

 NR  ATOM    CHARGE       X              Y              Z

   1  O6      8.00   -1.010247586    7.876000542    2.916036383
   2  H11     1.00   -0.819574220    6.648056506    4.275505357
   3  H12     1.00   -0.644963526    6.932271315    1.370429386
   4  C1      0.00   -6.193010455    2.801518980    2.403542658
   5  H41     0.00   -4.656285171    1.699997622    3.119937832
   6  H42     0.00   -5.973046335    4.726205038    2.982932688
   7  H43     0.00   -7.940251230    2.077186956    3.118237078
   8  H44     0.00   -6.176569838    2.685300823    0.384937212

 Bond lengths in Bohr (Angstrom)

 1-2  1.841835709  1-3  1.847419359  4-5  2.021904040  4-6  2.022002335  4-7  2.021953343
     ( 0.974657483)     ( 0.977612224)     ( 1.069945541)     ( 1.069997556)     ( 1.069971630)

 4-8  2.022015060
     ( 1.070004290)

 Bond angles

  2-1-3  104.86126985   5-4-6  109.53398059   5-4-7  109.65604535   5-4-8  108.43490854

  6-4-7  109.49436728   6-4-8  109.86987750   7-4-8  109.83468330

 NUCLEAR CHARGE:                   10
 NUMBER OF PRIMITIVE AOS:        1046
 NUMBER OF SYMMETRY AOS:          786
 NUMBER OF CONTRACTIONS:          734   (  734A   )
 NUMBER OF CORE ORBITALS:           1   (    1A   )
 NUMBER OF VALENCE ORBITALS:        6   (    6A   )

 MOLECULE CHANGED: INITIALIZING OCCUPATION AND DUMP RECORDS


 NUCLEAR REPULSION ENERGY    9.01583577

 Basis set:  JKFIT                   
 Basis size:  1104
 Attributes:
 Sphericals:   T
 Basis set:  MP2FIT                  
 Basis size:  1246
 Attributes:
 Sphericals:   T
 Basis set:  RI                      
 Basis size:   730
 Attributes:
 Sphericals:   T
 Basis set:  TDDFT                   
 Basis size:  1246
 Attributes:
 Sphericals:   T

 Eigenvalues of metric

         1 0.183E-05 0.195E-05 0.337E-05 0.392E-05 0.536E-05 0.718E-05 0.824E-05 0.891E-05


 Contracted 2-electron integrals neglected if value below      1.0D-14

 OPERATOR DM      FOR CENTER  0  COORDINATES:    0.000000    0.000000    0.000000


 **********************************************************************************************************************************
 DATASETS  * FILE   NREC   LENGTH (MB)   RECORD NAMES
              1      18       49.80       500      610      700      900      950      970     1000      129      960     1100   
                                          VAR    BASINP    GEOM    SYMINP    ZMAT    AOBASIS   BASIS     P2S    ABASIS      S 
                                         1400     1410     1200     1210     1080     1600     1650     1700   
                                           T        V       H0       H01     AOSYM     SMH    MOLCAS    OPER   

              2       5       24.61       700     1000      520     2100      200   
                                         GEOM     BASIS   MCVARS     RHF    OPTIONS    

 PROGRAMS   *        TOTAL       INT   CCSD(T)    HF-SCF       INT
 CPU TIMES  *     59794.17      0.94  52563.04   4071.86   3158.09
 REAL TIME  *     65119.33 SEC
 DISK USED  *        14.28 GB (local),      552.00 GB (total)
 SF USED    *        13.87 GB
 GA USED    *         0.00 MB       (max)       0.00 MB       (current)
 **********************************************************************************************************************************


 PROGRAM * RHF-SCF (CLOSED SHELL)       Authors: W. Meyer, H.-J. Werner


 NUMBER OF ELECTRONS:       5+    5-    SPACE SYMMETRY=1    SPIN SYMMETRY: Singlet 
 CONVERGENCE THRESHOLDS:    1.00E-08 (Density)    1.00E-11 (Energy)
 MAX. NUMBER OF ITERATIONS:       60
 INTERPOLATION TYPE:            DIIS
 INTERPOLATION STEPS:              2 (START)      1 (STEP)
 LEVEL SHIFTS:                  0.00 (CLOSED)  0.00 (OPEN) 



 Orbital guess generated from atomic densities. Full valence occupancy:    7

 Molecular orbital dump at record        2101.2

 Initial occupancy:   5

 ITERATION    DDIFF          GRAD             ENERGY        2-EL.EN.            DIPOLE MOMENTS         DIIS   ORB.
    1      0.000D+00      0.000D+00       -76.02667856     77.438678    0.28481   -1.11218   -0.09631    0    start
    2      0.000D+00      0.360D-02       -76.05353569     73.787431    0.16541   -0.64628   -0.05504    1    diag
    3      0.131D-02      0.229D-02       -76.06509525     75.409357    0.19522   -0.76268   -0.06516    2    diag
    4      0.494D-03      0.215D-03       -76.06528913     75.317805    0.19404   -0.75810   -0.06458    3    diag
    5      0.638D-04      0.600D-04       -76.06530999     75.332387    0.19360   -0.75644   -0.06436    4    diag
    6      0.205D-04      0.120D-04       -76.06531134     75.331327    0.19351   -0.75606   -0.06431    5    diag
    7      0.538D-05      0.244D-05       -76.06531141     75.331471    0.19348   -0.75595   -0.06429    6    diag
    8      0.150D-05      0.461D-06       -76.06531141     75.331459    0.19347   -0.75591   -0.06428    7    diag
    9      0.279D-06      0.621D-07       -76.06531141     75.331450    0.19346   -0.75590   -0.06428    8    diag
   10      0.347D-07      0.135D-07       -76.06531141     75.331453    0.19346   -0.75590   -0.06428    9    orth
   11      0.850D-08      0.239D-08       -76.06531141     75.331452    0.19346   -0.75590   -0.06428    0    orth

 Final occupancy:   5

 !RHF STATE  1.1 Energy               -76.065311409308
 Nuclear energy                         9.01583577
 One-electron energy                 -122.74687331
 Two-electron energy                   37.66572613
 Virial quotient                       -1.00182928
 !RHF STATE  1.1 Dipole moment          0.19346436    -0.75590137    -0.06428435
 Dipole moment /Debye                   0.49170514    -1.92118380    -0.16338382

 Orbital energies:

         1.1          2.1          3.1          4.1          5.1          6.1          7.1
    -20.567129    -1.342835    -0.708181    -0.580675    -0.508891     0.014909     0.030242


 HOMO      5.1    -0.508891 =     -13.8476eV
 LUMO      6.1     0.014909 =       0.4057eV
 LUMO-HOMO         0.523800 =      14.2533eV


 **********************************************************************************************************************************
 DATASETS  * FILE   NREC   LENGTH (MB)   RECORD NAMES
              1      18       49.80       500      610      700      900      950      970     1000      129      960     1100   
                                          VAR    BASINP    GEOM    SYMINP    ZMAT    AOBASIS   BASIS     P2S    ABASIS      S 
                                         1400     1410     1200     1210     1080     1600     1650     1700   
                                           T        V       H0       H01     AOSYM     SMH    MOLCAS    OPER   

              2       6       38.39       700     1000      520     2100      200     2101   
                                         GEOM     BASIS   MCVARS     RHF    OPTIONS    RHF  

 PROGRAMS   *        TOTAL    HF-SCF       INT   CCSD(T)    HF-SCF       INT
 CPU TIMES  *     62752.00   2957.83      0.94  52563.04   4071.86   3158.09
 REAL TIME  *     68675.44 SEC
 DISK USED  *        14.28 GB (local),      552.00 GB (total)
 SF USED    *        13.87 GB
 GA USED    *         0.00 MB       (max)       0.00 MB       (current)
 **********************************************************************************************************************************

 Basis set:  JKFIT                   
 Basis size:  1104
 Attributes:
 Sphericals:   T
 Basis set:  MP2FIT                  
 Basis size:  1246
 Attributes:
 Sphericals:   T
 Basis set:  RI                      
 Basis size:   730
 Attributes:
 Sphericals:   T
 Basis set:  TDDFT                   
 Basis size:  1246
 Attributes:
 Sphericals:   T

 PROGRAM * CCSD (Closed-shell coupled cluster)     Authors: C. Hampel, H.-J. Werner, 1991, M. Deegan, P.J. Knowles, 1992


 Convergence thresholds:  THRVAR = 1.00D-08  THRDEN = 1.00D-10

 CCSD(T)     terms to be evaluated (factor= 1.000)


 Number of core orbitals:           1 (   1 )
 Number of closed-shell orbitals:   4 (   4 )
 Number of external orbitals:     729 ( 729 )

 Molecular orbitals read from record     2101.2  Type=RHF/CANONICAL (state 1.1)

 Number of N-1 electron functions:               4
 Number of N-2 electron functions:              10
 Number of singly external CSFs:              2916
 Number of doubly external CSFs:           4252986
 Total number of CSFs:                     4255903

 Length of J-op  integral file:               0.00 MB
 Length of K-op  integral file:              37.04 MB
 Length of 3-ext integral record:             0.00 MB

 For full I/O caching in triples, increase memory by 535.09 Mwords to 2535.14 Mwords.

 Integral transformation finished. Total CPU:2112.63 sec, npass=  1  Memory used:1010.01 MW

 Reference energy:                    -76.06531141

 MP2 singlet pair energy:              -0.19210490
 MP2 triplet pair energy:              -0.10223134
 MP2 correlation energy:               -0.29433623
 MP2 total energy:                    -76.35964764

 SCS-MP2 correlation energy:           -0.29413649   (PS=  1.200000  PT=  0.333333)
 SCS-MP2 total energy:                -76.35944789

 ITER.      SQ.NORM     CORR.ENERGY   TOTAL ENERGY   ENERGY CHANGE        DEN1      VAR(S)    VAR(P)  DIIS     TIME  TIME/IT
   1      1.06402335    -0.29424569   -76.35955710     0.00009055     0.00601176  0.81D-03  0.10D-02  1  1  2542.96   481.15
   2      1.06757847    -0.29448619   -76.35979760    -0.00024050    -0.00494029  0.16D-04  0.12D-03  2  2  2985.11   482.14
   3      1.06899824    -0.29456481   -76.35987622    -0.00007862    -0.00101992  0.80D-05  0.67D-05  3  3  3426.84   486.32
   4      1.06947604    -0.29456298   -76.35987439     0.00000183    -0.00023307  0.52D-06  0.75D-06  4  4  3868.77   484.59
   5      1.06958058    -0.29456128   -76.35987269     0.00000170    -0.00003197  0.16D-06  0.52D-07  5  5  4306.99   482.86
   6      1.06961591    -0.29455875   -76.35987016     0.00000253    -0.00000768  0.18D-07  0.45D-08  6  6  4750.61   482.71
   7      1.06962369    -0.29455822   -76.35986963     0.00000053    -0.00000071  0.15D-08  0.78D-09  6  1  5193.52   482.51
   8      1.06962549    -0.29455811   -76.35986952     0.00000011    -0.00000009  0.24D-09  0.93D-10  6  2  5634.09   482.01
   9      1.06962617    -0.29455807   -76.35986948     0.00000004     0.00000007  0.19D-10  0.88D-11  6  3  6068.72   481.02
  10      1.06962630    -0.29455806   -76.35986947     0.00000001     0.00000003  0.20D-11  0.12D-11  6  4  6507.06   480.53
  11      1.06962630    -0.29455806   -76.35986947    -0.00000000     0.00000002  0.43D-12  0.15D-12  6  5  6944.63   479.89
  12      1.06962630    -0.29455806   -76.35986947    -0.00000000     0.00000001  0.75D-13  0.23D-13  6  6  7381.91   479.27
  13      1.06962630    -0.29455806   -76.35986947    -0.00000000     0.00000000  0.14D-13  0.43D-14  6  1  7826.69   479.31
  14      1.06962630    -0.29455806   -76.35986947    -0.00000000     0.00000000  0.17D-14  0.70D-15  6  2  8268.87   479.32
  15      1.06962630    -0.29455806   -76.35986947    -0.00000000    -0.00000000  0.20D-15  0.12D-15  6  3  8704.87   478.83
  16      1.06962630    -0.29455806   -76.35986947     0.00000000    -0.00000000  0.45D-16  0.18D-16  6  4  9148.99   478.90

 Norm of t1 vector:      0.03747813      S-energy:    -0.00000000      T1 diagnostic:  0.00936953
                                                                       D1 diagnostic:  0.01936484

   CPU time for triples:   1915.65 sec for i =  1 -  3 /  4 (~  43.8 % done)
   CPU time for triples:   1919.17 sec for i =  4 -  4 /  4 (  100.0 % done)

 Total CPU time for triples:   3853.59 sec


 RESULTS
 =======

  Reference energy                    -76.065311409307
  CCSD singlet pair energy             -0.204156040155
  CCSD triplet pair energy             -0.090402019475
  CCSD correlation energy              -0.294558060216

  Triples (T) contribution             -0.009849086808
  Total correlation energy             -0.304407147023

  CCSD total energy                   -76.359869469522
  CCSD[T] energy                      -76.370030034371
  CCSD-T energy                       -76.369574254201
 !CCSD(T) total energy                -76.369718556330

 Timing summary (sec):

 STEP                 CPU(USER)    SYS     CPU(TOT)    WALL
 Transformation       2115.08     94.02   2209.10   2222.34
 CCSD iterations      7034.27    340.53   7374.80   7663.42
 Triples              3853.59    116.16   3969.75   3993.75

 Program statistics:

 Available memory in ccsd:              1999999921
 Min. memory needed in ccsd:              19268142
 Max. memory used in ccsd:                22427508
 Max. memory used in cckext:              14646566 (16 integral passes)



 **********************************************************************************************************************************
 DATASETS  * FILE   NREC   LENGTH (MB)   RECORD NAMES
              1      19     6330.40       500      610      700      900      950      970     1000      129      960     1100   
                                          VAR    BASINP    GEOM    SYMINP    ZMAT    AOBASIS   BASIS     P2S    ABASIS      S 
                                         1400     1410     1200     1210     1080     1600     1650     1700     1380   
                                           T        V       H0       H01     AOSYM     SMH    MOLCAS    OPER     JKOP   

              2       6       38.39       700     1000      520     2100      200     2101   
                                         GEOM     BASIS   MCVARS     RHF    OPTIONS    RHF  

 PROGRAMS   *        TOTAL   CCSD(T)    HF-SCF       INT   CCSD(T)    HF-SCF       INT
 CPU TIMES  *     75755.24  13003.22   2957.83      0.94  52563.04   4071.86   3158.09
 REAL TIME  *     82555.96 SEC
 DISK USED  *        14.28 GB (local),      552.00 GB (total)
 SF USED    *        13.87 GB
 GA USED    *         0.00 MB       (max)       0.00 MB       (current)
 **********************************************************************************************************************************

 Running procedure: SET_MONOMER2

 Dummy atoms: O6  H11  H12


 Recomputing one-electron integrals since nuclear charges changed


 PROGRAM * SEWARD (Integral evaluation for generally contracted gaussian basis sets)     Author: Roland Lindh, 1990

 Geometry written to block  1 of record 700


 Point group  C1  



 ATOMIC COORDINATES

 NR  ATOM    CHARGE       X              Y              Z

   1  O6      0.00   -1.010247586    7.876000542    2.916036383
   2  H11     0.00   -0.819574220    6.648056506    4.275505357
   3  H12     0.00   -0.644963526    6.932271315    1.370429386
   4  C1      6.00   -6.193010455    2.801518980    2.403542658
   5  H41     1.00   -4.656285171    1.699997622    3.119937832
   6  H42     1.00   -5.973046335    4.726205038    2.982932688
   7  H43     1.00   -7.940251230    2.077186956    3.118237078
   8  H44     1.00   -6.176569838    2.685300823    0.384937212

 Bond lengths in Bohr (Angstrom)

 1-2  1.841835709  1-3  1.847419359  4-5  2.021904040  4-6  2.022002335  4-7  2.021953343
     ( 0.974657483)     ( 0.977612224)     ( 1.069945541)     ( 1.069997556)     ( 1.069971630)

 4-8  2.022015060
     ( 1.070004290)

 Bond angles

  2-1-3  104.86126985   5-4-6  109.53398059   5-4-7  109.65604535   5-4-8  108.43490854

  6-4-7  109.49436728   6-4-8  109.86987750   7-4-8  109.83468330

 NUCLEAR CHARGE:                   10
 NUMBER OF PRIMITIVE AOS:        1046
 NUMBER OF SYMMETRY AOS:          786
 NUMBER OF CONTRACTIONS:          734   (  734A   )
 NUMBER OF CORE ORBITALS:           1   (    1A   )
 NUMBER OF VALENCE ORBITALS:        8   (    8A   )

 MOLECULE CHANGED: INITIALIZING OCCUPATION AND DUMP RECORDS


 NUCLEAR REPULSION ENERGY   13.68681606

 Basis set:  JKFIT                   
 Basis size:  1104
 Attributes:
 Sphericals:   T
 Basis set:  MP2FIT                  
 Basis size:  1246
 Attributes:
 Sphericals:   T
 Basis set:  RI                      
 Basis size:   730
 Attributes:
 Sphericals:   T
 Basis set:  TDDFT                   
 Basis size:  1246
 Attributes:
 Sphericals:   T

 Eigenvalues of metric

         1 0.183E-05 0.195E-05 0.337E-05 0.392E-05 0.536E-05 0.718E-05 0.824E-05 0.891E-05


 Contracted 2-electron integrals neglected if value below      1.0D-14

 OPERATOR DM      FOR CENTER  0  COORDINATES:    0.000000    0.000000    0.000000


 **********************************************************************************************************************************
 DATASETS  * FILE   NREC   LENGTH (MB)   RECORD NAMES
              1      18       49.80       500      610      700      900      950      970     1000      129      960     1100   
                                          VAR    BASINP    GEOM    SYMINP    ZMAT    AOBASIS   BASIS     P2S    ABASIS      S 
                                         1400     1410     1200     1210     1080     1600     1650     1700   
                                           T        V       H0       H01     AOSYM     SMH    MOLCAS    OPER   

              2       6       38.39       700     1000      520     2100      200     2101   
                                         GEOM     BASIS   MCVARS     RHF    OPTIONS    RHF  

 PROGRAMS   *        TOTAL       INT   CCSD(T)    HF-SCF       INT   CCSD(T)    HF-SCF       INT
 CPU TIMES  *     75756.19      0.94  13003.22   2957.83      0.94  52563.04   4071.86   3158.09
 REAL TIME  *     82558.25 SEC
 DISK USED  *        14.28 GB (local),      552.00 GB (total)
 SF USED    *        13.87 GB
 GA USED    *         0.00 MB       (max)       0.00 MB       (current)
 **********************************************************************************************************************************


 PROGRAM * RHF-SCF (CLOSED SHELL)       Authors: W. Meyer, H.-J. Werner


 NUMBER OF ELECTRONS:       5+    5-    SPACE SYMMETRY=1    SPIN SYMMETRY: Singlet 
 CONVERGENCE THRESHOLDS:    1.00E-08 (Density)    1.00E-11 (Energy)
 MAX. NUMBER OF ITERATIONS:       60
 INTERPOLATION TYPE:            DIIS
 INTERPOLATION STEPS:              2 (START)      1 (STEP)
 LEVEL SHIFTS:                  0.00 (CLOSED)  0.00 (OPEN) 



 Orbital guess generated from atomic densities. Full valence occupancy:    9

 Molecular orbital dump at record        2102.2

 Initial occupancy:   5

 ITERATION    DDIFF          GRAD             ENERGY        2-EL.EN.            DIPOLE MOMENTS         DIIS   ORB.
    1      0.000D+00      0.000D+00       -40.19676529     53.509902    0.00411   -0.00276   -0.00131    0    start
    2      0.000D+00      0.198D-02       -40.21405749     52.218478    0.00128   -0.00088   -0.00039    1    diag
    3      0.946D-03      0.769D-03       -40.21634091     52.673985    0.00182   -0.00124   -0.00056    2    diag
    4      0.259D-03      0.192D-03       -40.21666124     52.619248    0.00162   -0.00110   -0.00049    3    diag
    5      0.990D-04      0.248D-04       -40.21666672     52.621406    0.00159   -0.00108   -0.00048    4    diag
    6      0.339D-04      0.204D-05       -40.21666676     52.621534    0.00159   -0.00108   -0.00048    5    diag
    7      0.608D-05      0.166D-06       -40.21666677     52.621496    0.00159   -0.00108   -0.00048    6    diag
    8      0.370D-06      0.136D-07       -40.21666677     52.621497    0.00159   -0.00108   -0.00048    7    diag
    9      0.548D-07      0.167D-08       -40.21666677     52.621497    0.00159   -0.00108   -0.00048    8    diag
   10      0.106D-07      0.465D-09       -40.21666677     52.621497    0.00159   -0.00108   -0.00048    9    orth
   11      0.122D-08      0.667D-10       -40.21666677     52.621497    0.00159   -0.00108   -0.00048    0    orth

 Final occupancy:   5

 !RHF STATE  1.1 Energy               -40.216666765161
 Nuclear energy                        13.68681606
 One-electron energy                  -80.21423128
 Two-electron energy                   26.31074846
 Virial quotient                       -0.99832815
 !RHF STATE  1.1 Dipole moment          0.00158799    -0.00108137    -0.00047804
 Dipole moment /Debye                   0.00403600    -0.00274840    -0.00121497

 Orbital energies:

         1.1          2.1          3.1          4.1          5.1          6.1          7.1
    -11.196017    -0.950605    -0.551931    -0.549996    -0.547818     0.021671     0.032401


 HOMO      5.1    -0.547818 =     -14.9069eV
 LUMO      6.1     0.021671 =       0.5897eV
 LUMO-HOMO         0.569489 =      15.4966eV


 **********************************************************************************************************************************
 DATASETS  * FILE   NREC   LENGTH (MB)   RECORD NAMES
              1      18       49.80       500      610      700      900      950      970     1000      129      960     1100   
                                          VAR    BASINP    GEOM    SYMINP    ZMAT    AOBASIS   BASIS     P2S    ABASIS      S 
                                         1400     1410     1200     1210     1080     1600     1650     1700   
                                           T        V       H0       H01     AOSYM     SMH    MOLCAS    OPER   

              2       7       62.47       700     1000      520     2100      200     2101     2102   
                                         GEOM     BASIS   MCVARS     RHF    OPTIONS    RHF      RHF  

 PROGRAMS   *        TOTAL    HF-SCF       INT   CCSD(T)    HF-SCF       INT   CCSD(T)    HF-SCF       INT
 CPU TIMES  *     78835.21   3079.02      0.94  13003.22   2957.83      0.94  52563.04   4071.86   3158.09
 REAL TIME  *     86056.25 SEC
 DISK USED  *        14.28 GB (local),      552.00 GB (total)
 SF USED    *        13.87 GB
 GA USED    *         0.00 MB       (max)       0.00 MB       (current)
 **********************************************************************************************************************************

 Basis set:  JKFIT                   
 Basis size:  1104
 Attributes:
 Sphericals:   T
 Basis set:  MP2FIT                  
 Basis size:  1246
 Attributes:
 Sphericals:   T
 Basis set:  RI                      
 Basis size:   730
 Attributes:
 Sphericals:   T
 Basis set:  TDDFT                   
 Basis size:  1246
 Attributes:
 Sphericals:   T

 PROGRAM * CCSD (Closed-shell coupled cluster)     Authors: C. Hampel, H.-J. Werner, 1991, M. Deegan, P.J. Knowles, 1992


 Convergence thresholds:  THRVAR = 1.00D-08  THRDEN = 1.00D-10

 CCSD(T)     terms to be evaluated (factor= 1.000)


 Number of core orbitals:           1 (   1 )
 Number of closed-shell orbitals:   4 (   4 )
 Number of external orbitals:     729 ( 729 )

 Molecular orbitals read from record     2102.2  Type=RHF/CANONICAL (state 1.1)

 Number of N-1 electron functions:               4
 Number of N-2 electron functions:              10
 Number of singly external CSFs:              2916
 Number of doubly external CSFs:           4252986
 Total number of CSFs:                     4255903

 Length of J-op  integral file:               0.00 MB
 Length of K-op  integral file:              37.04 MB
 Length of 3-ext integral record:             0.00 MB

 For full I/O caching in triples, increase memory by 535.09 Mwords to 2535.14 Mwords.

 Integral transformation finished. Total CPU:2092.50 sec, npass=  1  Memory used:1010.01 MW

 Reference energy:                    -40.21666677

 MP2 singlet pair energy:              -0.15787722
 MP2 triplet pair energy:              -0.05682282
 MP2 correlation energy:               -0.21470004
 MP2 total energy:                    -40.43136680

 SCS-MP2 correlation energy:           -0.22480908   (PS=  1.200000  PT=  0.333333)
 SCS-MP2 total energy:                -40.44147585

 ITER.      SQ.NORM     CORR.ENERGY   TOTAL ENERGY   ENERGY CHANGE        DEN1      VAR(S)    VAR(P)  DIIS     TIME  TIME/IT
   1      1.07073128    -0.22924255   -40.44590931    -0.01454251    -0.00881040  0.58D-03  0.96D-03  1  1  2536.05   465.36
   2      1.07565303    -0.23033728   -40.44700404    -0.00109473    -0.00537199  0.15D-04  0.11D-03  2  2  2979.40   470.08
   3      1.07738965    -0.23037778   -40.44704454    -0.00004050    -0.00128251  0.20D-05  0.63D-05  3  3  3417.36   469.30
   4      1.07778002    -0.23037951   -40.44704627    -0.00000173    -0.00020100  0.14D-06  0.36D-06  4  4  3855.47   468.78
   5      1.07783440    -0.23038327   -40.44705003    -0.00000376    -0.00001098  0.13D-07  0.24D-07  5  5  4292.31   468.47
   6      1.07784453    -0.23038196   -40.44704872     0.00000131    -0.00000413  0.79D-09  0.17D-08  6  6  4735.47   469.49
   7      1.07784586    -0.23038158   -40.44704834     0.00000038    -0.00000074  0.53D-10  0.13D-09  6  1  5176.92   469.73
   8      1.07784578    -0.23038163   -40.44704840    -0.00000005     0.00000024  0.57D-11  0.83D-11  6  3  5621.91   470.46
   9      1.07784592    -0.23038162   -40.44704838     0.00000002    -0.00000009  0.41D-12  0.59D-12  6  2  6062.01   470.41
  10      1.07784592    -0.23038162   -40.44704838     0.00000000     0.00000001  0.56D-13  0.63D-13  6  4  6508.11   470.84
  11      1.07784593    -0.23038161   -40.44704838     0.00000000     0.00000000  0.56D-14  0.64D-14  6  5  6954.64   471.09
  12      1.07784592    -0.23038161   -40.44704838     0.00000000     0.00000000  0.17D-15  0.66D-15  6  6  7400.86   471.26
  13      1.07784592    -0.23038161   -40.44704838    -0.00000000     0.00000000  0.13D-16  0.71D-16  6  1  7839.85   470.81
  14      1.07784592    -0.23038161   -40.44704838    -0.00000000     0.00000000  0.33D-17  0.15D-16  6  3  8254.41   472.47

 Norm of t1 vector:      0.03185985      S-energy:    -0.00000000      T1 diagnostic:  0.00796496
                                                                       D1 diagnostic:  0.01279371

 Total CPU time for triples:   3860.55 sec


 RESULTS
 =======

  Reference energy                    -40.216666765160
  CCSD singlet pair energy             -0.175399578042
  CCSD triplet pair energy             -0.054982036550
  CCSD correlation energy              -0.230381614592

  Triples (T) contribution             -0.007018691447
  Total correlation energy             -0.237400306039

  CCSD total energy                   -40.447048379752
  CCSD[T] energy                      -40.454290909904
  CCSD-T energy                       -40.454000116101
 !CCSD(T) total energy                -40.454067071199

 Timing summary (sec):

 STEP                 CPU(USER)    SYS     CPU(TOT)    WALL
 Transformation       2094.66     93.08   2187.74   2196.08
 CCSD iterations      6160.14    283.90   6444.04   6615.58
 Triples              3860.55    116.17   3976.72   3996.56

 Program statistics:

 Available memory in ccsd:              1999999916
 Min. memory needed in ccsd:              19268142
 Max. memory used in ccsd:                22427508
 Max. memory used in cckext:              14646566 (14 integral passes)



 **********************************************************************************************************************************
 DATASETS  * FILE   NREC   LENGTH (MB)   RECORD NAMES
              1      19     6330.40       500      610      700      900      950      970     1000      129      960     1100   
                                          VAR    BASINP    GEOM    SYMINP    ZMAT    AOBASIS   BASIS     P2S    ABASIS      S 
                                         1400     1410     1200     1210     1080     1600     1650     1700     1380   
                                           T        V       H0       H01     AOSYM     SMH    MOLCAS    OPER     JKOP   

              2       7       62.47       700     1000      520     2100      200     2101     2102   
                                         GEOM     BASIS   MCVARS     RHF    OPTIONS    RHF      RHF  

 PROGRAMS   *        TOTAL   CCSD(T)    HF-SCF       INT   CCSD(T)    HF-SCF       INT   CCSD(T)    HF-SCF       INT
 CPU TIMES  *     90950.84  12115.63   3079.02      0.94  13003.22   2957.83      0.94  52563.04   4071.86   3158.09
 REAL TIME  *     98865.46 SEC
 DISK USED  *        14.28 GB (local),      552.00 GB (total)
 SF USED    *        13.87 GB
 GA USED    *         0.00 MB       (max)       0.00 MB       (current)
 **********************************************************************************************************************************
 Molecular orbitals read from record     2102.2  Type=RHF/CANONICAL (state 1.1)
 Occupation numbers read from record     2102.2  Type=RHF/RHF (state 1.1)
 Orbital energies read from record       2102.2  Type=RHF/CANONICAL (state 1.1)
 Redundancy group numbers read from rec  2102.2  Type=RHF/RHF (state 1.1)

 CCSD(T)/aug-cc-pV5Z energy=    -40.454067071199

         CCSD(T)          HF-SCF         CCSD(T)          HF-SCF         CCSD(T)          HF-SCF
    -40.45406707    -40.21666677    -76.36971856    -76.06531141   -116.82453127   -116.28187926
 **********************************************************************************************************************************
 Molpro calculation terminated
