
 Primary working directories    : /scratch/klimes/400999/molpro.IcG869qiQq
 Secondary working directories  : /scratch/klimes/400999/molpro.IcG869qiQq
 Wavefunction directory         : /scratch/klimes/400999/
 Main file repository           : /scratch/klimes/400999/molpro.IcG869qiQq/

 id        : karlovklimes

 Nodes                      nprocs
 nc-09.cc.karlov.mff.cuni.cz    4

 Using customized tuning parameters: mindgm=1; mindgv=20; mindgc=4; mindgr=1; noblas=0; minvec=7
 default implementation of scratch files=sf  


 Variables initialized (930), CPU time= 0.01 sec
                                                                                 !gdirect
 memory,2000,m
 gthresh,orbital=1d-10,energy=1d-10,grid=1d-8
 
 symmetry,nosym
 angstrom
 geometry={
 O7        -2.308700000000     -1.513700000000      3.385000000000
 H13        -2.780100000000     -1.810400000000      2.580800000000
 H14        -2.957300000000     -0.995700000000      3.906300000000
 C1        -3.277200000000      1.482500000000      1.271900000000
 H41        -2.464000000000      0.899600000000      1.651000000000
 H42        -3.160800000000      2.501000000000      1.578500000000
 H43        -4.201800000000      1.099200000000      1.650100000000
 H44        -3.268500000000      1.421000000000      0.203700000000
 }
 
 nkerna=1
 nkernb=1
 
 gf=0
 sing=1
 thrdum=1d-4
 gridthr=1d-8
 
 basis={
 set,orbital
 default,av5z
 set,jkfit
 default,av5z/jkfit
 set,mp2fit
 default,av5z/mp2fit
 set,ri
 default,av5z/optri
 set,tddft
 default,av5z/mp2fit
 }
 
 proc set_monomer1
 dummy,4,5,6,7,8
 endproc
 
 proc set_monomer2
 dummy,1,2,3
 endproc
 
                                                                                 !1234 energy
 {hf,accu=1.d-16}
 ccsd(t)
 
 set_monomer1
 {hf,accu=1.d-16}
 ccsd(t)
 
 set_monomer2
 {hf,accu=1.d-16}
 ccsd(t)
 
 Commands  initialized (760), CPU time= 0.02 sec, 617 directives.
 Default parameters read. Elapsed time= 0.21 sec

 Checking input...
 Passed
1


                                         ***  PROGRAM SYSTEM MOLPRO  ***
                                       Copyright, TTI GmbH Stuttgart, 2015
                                    Version 2019.1 linked Jan 14 2019 13:09:19


 **********************************************************************************************************************************
 LABEL *                                                                                 
  64 bit mpp version                                                                     DATE: 14-Mar-20          TIME: 12:33:22  
 **********************************************************************************************************************************

 SHA1:             d688ac825633d238f2093ded1675ba87ccd55965
 **********************************************************************************************************************************

 THRESHOLDS:

 ZERO    =  1.00D-12  ONEINT  =  1.00D-12  TWOINT  =  1.00D-11  PREFAC  =  1.00D-14  XXXXXX  =  1.00D-09  EORDER  =  1.00D-04
 ENERGY  =  1.00D-10  ETEST   =  0.00D+00  EDENS   =  0.00D+00  THRDEDEF=  1.00D-06  GRADIENT=  1.00D-02  STEP    =  1.00D-03
 ORBITAL =  1.00D-10  CIVEC   =  1.00D-05  COEFF   =  1.00D-04  PRINTCI =  5.00D-02  PUNCHCI =  9.90D+01  OPTGRAD =  3.00D-04
 OPTENERG=  1.00D-06  OPTSTEP =  3.00D-04  THRGRAD =  1.00D-10  COMPRESS=  1.00D-11  VARMIN  =  1.00D-07  VARMAX  =  1.00D-03
 THRDOUB =  0.00D+00  THRDIV  =  1.00D-05  THRRED  =  1.00D-07  THRPSP  =  1.00D+00  THRDC   =  1.00D-10  THRCS   =  1.00D-10
 THRNRM  =  1.00D-08  THREQ   =  0.00D+00  THRDE   =  1.00D+00  THRREF  =  1.00D-05  SPARFAC =  1.00D+00  THRDLP  =  1.00D-07
 THRDIA  =  1.00D-10  THRDLS  =  1.00D-07  THRGPS  =  0.00D+00  THRKEX  =  0.00D+00  THRDIS  =  2.00D-01  THRVAR  =  1.00D-10
 THRLOC  =  1.00D-06  THRGAP  =  1.00D-06  THRLOCT = -1.00D+00  THRGAPT = -1.00D+00  THRORB  =  1.00D-06  THRMLTP =  0.00D+00
 THRCPQCI=  1.00D-10  KEXTA   =  0.00D+00  THRCOARS=  0.00D+00  SYMTOL  =  1.00D-06  GRADTOL =  1.00D-06  THROVL  =  1.00D-08
 THRORTH =  1.00D-08  GRID    =  1.00D-08  GRIDMAX =  1.00D-03  DTMAX   =  0.00D+00  THROCCDE=  1.00D-01  THROCCDE=  1.00D-01
 THRPRINT=  2.50D-01


 Variable memory set to 2000000000 words,  buffer space 

 ZSYMEL=NOSYM
 ZUNIT=ANG


Geometry recognized as XYZ

 SETTING NKERNA         =         1.00000000                                  
 SETTING NKERNB         =         1.00000000                                  
 SETTING GF             =     0.00000000D+00                                  
 SETTING SING           =         1.00000000                                  
 SETTING THRDUM         =     1.00000000D-04                                  
 SETTING GRIDTHR        =     1.00000000D-08                                  
 SETTING BASIS          =    AV5Z


 Recomputing integrals since basis changed


 Using spherical harmonics

 Library entry O      S aug-cc-pV5Z          selected for orbital group  1
 Library entry O      P aug-cc-pV5Z          selected for orbital group  1
 Library entry O      D aug-cc-pV5Z          selected for orbital group  1
 Library entry O      F aug-cc-pV5Z          selected for orbital group  1
 Library entry O      G aug-cc-pV5Z          selected for orbital group  1
 Library entry O      H aug-cc-pV5Z          selected for orbital group  1
 Library entry H      S aug-cc-pV5Z          selected for orbital group  2
 Library entry H      P aug-cc-pV5Z          selected for orbital group  2
 Library entry H      D aug-cc-pV5Z          selected for orbital group  2
 Library entry H      F aug-cc-pV5Z          selected for orbital group  2
 Library entry H      G aug-cc-pV5Z          selected for orbital group  2
 Library entry C      S aug-cc-pV5Z          selected for orbital group  3
 Library entry C      P aug-cc-pV5Z          selected for orbital group  3
 Library entry C      D aug-cc-pV5Z          selected for orbital group  3
 Library entry C      F aug-cc-pV5Z          selected for orbital group  3
 Library entry C      G aug-cc-pV5Z          selected for orbital group  3
 Library entry C      H aug-cc-pV5Z          selected for orbital group  3


 PROGRAM * SEWARD (Integral evaluation for generally contracted gaussian basis sets)     Author: Roland Lindh, 1990

 Geometry written to block  1 of record 700


 Point group  C1  



 ATOMIC COORDINATES

 NR  ATOM    CHARGE       X              Y              Z

   1  O7      8.00   -4.362810704   -2.860478435    6.396722932
   2  H13     1.00   -5.253627599   -3.421160176    4.877005182
   3  H14     1.00   -5.588487068   -1.881600302    7.381837160
   4  C1      6.00   -6.193010455    2.801518980    2.403542658
   5  H41     1.00   -4.656285171    1.699997622    3.119937832
   6  H42     1.00   -5.973046335    4.726205038    2.982932688
   7  H43     1.00   -7.940251230    2.077186956    3.118237078
   8  H44     1.00   -6.176569838    2.685300823    0.384937212

 Bond lengths in Bohr (Angstrom)

 1-2  1.848637551  1-3  1.852278325  4-5  2.021904040  4-6  2.022002335  4-7  2.021953343
     ( 0.978256863)     ( 0.980183478)     ( 1.069945541)     ( 1.069997556)     ( 1.069971630)

 4-8  2.022015060
     ( 1.070004290)

 Bond angles

  2-1-3  106.17843926   5-4-6  109.53398059   5-4-7  109.65604535   5-4-8  108.43490854

  6-4-7  109.49436728   6-4-8  109.86987750   7-4-8  109.83468330

 NUCLEAR CHARGE:                   20
 NUMBER OF PRIMITIVE AOS:        1046
 NUMBER OF SYMMETRY AOS:          786
 NUMBER OF CONTRACTIONS:          734   (  734A   )
 NUMBER OF CORE ORBITALS:           2   (    2A   )
 NUMBER OF VALENCE ORBITALS:       14   (   14A   )


 NUCLEAR REPULSION ENERGY   36.78088270


 Basis set:  JKFIT                   
 Basis size:  1104
 Attributes:
 Sphericals:   T
 Basis set:  MP2FIT                  
 Basis size:  1246
 Attributes:
 Sphericals:   T
 Basis set:  RI                      
 Basis size:   730
 Attributes:
 Sphericals:   T
 Basis set:  TDDFT                   
 Basis size:  1246
 Attributes:
 Sphericals:   T

 **********************************************************************************************************************************


 Eigenvalues of metric

         1 0.188E-05 0.242E-05 0.350E-05 0.433E-05 0.478E-05 0.689E-05 0.805E-05 0.930E-05


 Contracted 2-electron integrals neglected if value below      1.0D-14
 AO integral compression algorithm  1   Integral accuracy      1.0D-14

     158861.885 MB (compressed) written to integral file ( 50.3%)

     Node minimum: 36176.658 MB, node maximum: 45528.121 MB


 NUMBER OF SORTED TWO-ELECTRON INTEGRALS: 9095363064.     BUFFER LENGTH:  32768
 NUMBER OF SEGMENTS: 190  SEGMENT LENGTH:   47999780      RECORD LENGTH: 131072

 Memory used in sort:      48.16 MW

 SORT1 READ 39471948705. AND WROTE  7171428523. INTEGRALS IN  82169 RECORDS. CPU TIME:   898.87 SEC, REAL TIME:  1095.45 SEC
 SORT2 READ 28691789194. AND WROTE 36381317385. INTEGRALS IN 597440 RECORDS. CPU TIME:   118.38 SEC, REAL TIME:   962.19 SEC

 Node minimum:  9095228192.  Node maximum:  9095430501. integrals

 OPERATOR DM      FOR CENTER  0  COORDINATES:    0.000000    0.000000    0.000000


 **********************************************************************************************************************************
 DATASETS  * FILE   NREC   LENGTH (MB)   RECORD NAMES
              1      18       49.80       500      610      700      900      950      970     1000      129      960     1100   
                                          VAR    BASINP    GEOM    SYMINP    ZMAT    AOBASIS   BASIS     P2S    ABASIS      S 
                                         1400     1410     1200     1210     1080     1600     1650     1700   
                                           T        V       H0       H01     AOSYM     SMH    MOLCAS    OPER   

 PROGRAMS   *        TOTAL       INT
 CPU TIMES  *      2153.68   2153.45
 REAL TIME  *      3275.03 SEC
 DISK USED  *        50.44 MB (local),      503.44 GB (total)
 GA USED    *         0.00 MB       (max)       0.00 MB       (current)
 **********************************************************************************************************************************


 PROGRAM * RHF-SCF (CLOSED SHELL)       Authors: W. Meyer, H.-J. Werner


 NUMBER OF ELECTRONS:      10+   10-    SPACE SYMMETRY=1    SPIN SYMMETRY: Singlet 
 CONVERGENCE THRESHOLDS:    1.00E-08 (Density)    1.00E-11 (Energy)
 MAX. NUMBER OF ITERATIONS:       60
 INTERPOLATION TYPE:            DIIS
 INTERPOLATION STEPS:              2 (START)      1 (STEP)
 LEVEL SHIFTS:                  0.00 (CLOSED)  0.00 (OPEN) 



 Orbital guess generated from atomic densities. Full valence occupancy:   16

 Molecular orbital dump at record        2100.2

 Initial occupancy:  10

 ITERATION    DDIFF          GRAD             ENERGY        2-EL.EN.            DIPOLE MOMENTS         DIIS   ORB.
    1      0.000D+00      0.000D+00      -116.22336834    158.994391   -1.08132    0.20885   -0.27237    0    start
    2      0.000D+00      0.290D-02      -116.26714391    154.181586   -0.59313    0.13881   -0.16375    1    diag
    3      0.161D-02      0.170D-02      -116.28054419    156.195381   -0.71531    0.15442   -0.18972    2    diag
    4      0.551D-03      0.254D-03      -116.28120284    156.082840   -0.70414    0.15103   -0.18641    3    diag
    5      0.126D-03      0.745D-04      -116.28127211    156.077387   -0.70314    0.15121   -0.18639    4    diag
    6      0.524D-04      0.182D-04      -116.28127609    156.083024   -0.70216    0.15113   -0.18626    5    diag
    7      0.190D-04      0.373D-05      -116.28127633    156.081303   -0.70213    0.15115   -0.18627    6    diag
    8      0.561D-05      0.962D-06      -116.28127635    156.081487   -0.70205    0.15115   -0.18627    7    diag
    9      0.126D-05      0.224D-06      -116.28127635    156.081460   -0.70203    0.15115   -0.18626    8    diag
   10      0.320D-06      0.273D-07      -116.28127635    156.081461   -0.70203    0.15115   -0.18626    9    orth
   11      0.612D-07      0.667D-08      -116.28127635    156.081463   -0.70203    0.15115   -0.18626    9    diag
   12      0.546D-08      0.175D-08      -116.28127635    156.081463   -0.70203    0.15115   -0.18626    0    orth

 Final occupancy:  10

 !RHF STATE  1.1 Energy              -116.281276354830
 Nuclear energy                        36.78088270
 One-electron energy                 -231.10289038
 Two-electron energy                   78.04073133
 Virial quotient                       -1.00068128
 !RHF STATE  1.1 Dipole moment         -0.70203107     0.15114934    -0.18626328
 Dipole moment /Debye                  -1.78426813     0.38415815    -0.47340302

 Orbital energies:

         1.1          2.1          3.1          4.1          5.1          6.1          7.1          8.1          9.1         10.1
    -20.566482   -11.198206    -1.340245    -0.953440    -0.708710    -0.577787    -0.554945    -0.553303    -0.550817    -0.506779

        11.1         12.1
      0.019610     0.031964


 HOMO     10.1    -0.506779 =     -13.7902eV
 LUMO     11.1     0.019610 =       0.5336eV
 LUMO-HOMO         0.526389 =      14.3238eV


 **********************************************************************************************************************************
 DATASETS  * FILE   NREC   LENGTH (MB)   RECORD NAMES
              1      18       49.80       500      610      700      900      950      970     1000      129      960     1100   
                                          VAR    BASINP    GEOM    SYMINP    ZMAT    AOBASIS   BASIS     P2S    ABASIS      S 
                                         1400     1410     1200     1210     1080     1600     1650     1700   
                                           T        V       H0       H01     AOSYM     SMH    MOLCAS    OPER   

              2       4       13.79       700     1000      520     2100   
                                         GEOM     BASIS   MCVARS     RHF  

 PROGRAMS   *        TOTAL    HF-SCF       INT
 CPU TIMES  *      3922.83   1769.13   2153.45
 REAL TIME  *      6214.81 SEC
 DISK USED  *       102.61 MB (local),      503.65 GB (total)
 SF USED    *         2.16 MB
 GA USED    *         0.00 MB       (max)       0.00 MB       (current)
 **********************************************************************************************************************************

 Basis set:  JKFIT                   
 Basis size:  1104
 Attributes:
 Sphericals:   T
 Basis set:  MP2FIT                  
 Basis size:  1246
 Attributes:
 Sphericals:   T
 Basis set:  RI                      
 Basis size:   730
 Attributes:
 Sphericals:   T
 Basis set:  TDDFT                   
 Basis size:  1246
 Attributes:
 Sphericals:   T

 PROGRAM * CCSD (Closed-shell coupled cluster)     Authors: C. Hampel, H.-J. Werner, 1991, M. Deegan, P.J. Knowles, 1992


 Convergence thresholds:  THRVAR = 1.00D-08  THRDEN = 1.00D-10

 CCSD(T)     terms to be evaluated (factor= 1.000)


 Number of core orbitals:           2 (   2 )
 Number of closed-shell orbitals:   8 (   8 )
 Number of external orbitals:     724 ( 724 )

 Molecular orbitals read from record     2100.2  Type=RHF/CANONICAL (state 1.1)

 Number of N-1 electron functions:               8
 Number of N-2 electron functions:              36
 Number of singly external CSFs:              5792
 Number of doubly external CSFs:          16776528
 Total number of CSFs:                    16782321

 Length of J-op  integral file:               0.00 MB
 Length of K-op  integral file:              37.04 MB
 Length of 3-ext integral record:             0.00 MB

 For full I/O caching in triples, increase memory by 2034.74 Mwords to 4034.79 Mwords.

 Integral transformation finished. Total CPU:2733.75 sec, npass=  1  Memory used:1826.26 MW

 Reference energy:                   -116.28127635

 MP2 singlet pair energy:              -0.35027798
 MP2 triplet pair energy:              -0.15976931
 MP2 correlation energy:               -0.51004729
 MP2 total energy:                   -116.79132364

 SCS-MP2 correlation energy:           -0.51974559   (PS=  1.200000  PT=  0.333333)
 SCS-MP2 total energy:               -116.80102194

 ITER.      SQ.NORM     CORR.ENERGY   TOTAL ENERGY   ENERGY CHANGE        DEN1      VAR(S)    VAR(P)  DIIS     TIME  TIME/IT
   1      1.13518914    -0.52445086  -116.80572721    -0.01440357    -0.00271832  0.14D-02  0.20D-02  1  1  3853.65  1171.59
   2      1.14357512    -0.52578348  -116.80705984    -0.00133263    -0.01023667  0.31D-04  0.25D-03  2  2  4987.34  1176.22
   3      1.14688076    -0.52590920  -116.80718556    -0.00012572    -0.00238297  0.11D-04  0.13D-04  3  3  6121.54  1177.79
   4      1.14778800    -0.52590543  -116.80718178     0.00000377    -0.00045976  0.65D-06  0.13D-05  4  4  7250.13  1179.45
   5      1.14795489    -0.52590723  -116.80718359    -0.00000180    -0.00004507  0.21D-06  0.91D-07  5  5  8380.72  1180.03
   6      1.14800294    -0.52590427  -116.80718062     0.00000297    -0.00001045  0.21D-07  0.77D-08  6  6  9508.89  1180.79
   7      1.14801338    -0.52590300  -116.80717936     0.00000126    -0.00000218  0.21D-08  0.10D-08  6  2 10639.91  1181.11
   8      1.14801581    -0.52590279  -116.80717914     0.00000022    -0.00000022  0.37D-09  0.12D-09  6  1 11769.34  1181.46
   9      1.14801674    -0.52590273  -116.80717909     0.00000005    -0.00000001  0.33D-10  0.17D-10  6  3 12899.60  1181.73
  10      1.14801689    -0.52590274  -116.80717909    -0.00000000     0.00000009  0.36D-11  0.24D-11  6  4 14028.63  1181.87
  11      1.14801686    -0.52590274  -116.80717910    -0.00000001     0.00000007  0.61D-12  0.31D-12  6  5 15157.38  1182.05
  12      1.14801684    -0.52590274  -116.80717910    -0.00000000     0.00000002  0.11D-12  0.40D-13  6  6 16286.50  1182.23
  13      1.14801682    -0.52590275  -116.80717910    -0.00000000     0.00000001  0.20D-13  0.60D-14  6  2 17415.71  1182.30
  14      1.14801682    -0.52590275  -116.80717910    -0.00000000     0.00000000  0.30D-14  0.12D-14  6  1 18543.26  1182.53
  15      1.14801682    -0.52590275  -116.80717910    -0.00000000    -0.00000000  0.37D-15  0.20D-15  6  3 19669.69  1182.69
  16      1.14801682    -0.52590275  -116.80717910    -0.00000000    -0.00000000  0.63D-16  0.31D-16  6  4 20795.95  1182.92
  17      1.14801682    -0.52590275  -116.80717910     0.00000000    -0.00000000  0.20D-16  0.84D-17  6  5 21924.47  1182.99

 Norm of t1 vector:      0.04995751      S-energy:    -0.00000000      T1 diagnostic:  0.00883132
                                                                       D1 diagnostic:  0.02007200

   CPU time for triples:   2608.78 sec for i =  1 -  3 /  8 (~   6.2 % done)
   CPU time for triples:   4389.05 sec for i =  4 -  5 /  8 (~  26.8 % done)
   CPU time for triples:   5264.09 sec for i =  6 -  6 /  8 (~  44.6 % done)
   CPU time for triples:   5252.50 sec for i =  7 -  7 /  8 (~  68.8 % done)
   CPU time for triples:   6978.43 sec for i =  8 -  8 /  8 (  100.0 % done)

 Total CPU time for triples:  24622.54 sec


 RESULTS
 =======

  Reference energy                   -116.281276354829
  CCSD singlet pair energy             -0.379785326920
  CCSD triplet pair energy             -0.146117418609
  CCSD correlation energy              -0.525902745897

  Triples (T) contribution             -0.017055089961
  Total correlation energy             -0.542957835859

  CCSD total energy                  -116.807179100726
  CCSD[T] energy                     -116.824775621894
  CCSD-T energy                      -116.824019159979
 !CCSD(T) total energy               -116.824234190687

 Timing summary (sec):

 STEP                 CPU(USER)    SYS     CPU(TOT)    WALL
 Transformation       2739.84     91.49   2831.33   2911.79
 CCSD iterations     19185.04    417.80  19602.84  20111.89
 Triples             24622.54    371.72  24994.26  25028.71

 Program statistics:

 Available memory in ccsd:              1999999734
 Min. memory needed in ccsd:              48755833
 Max. memory used in ccsd:                63342105
 Max. memory used in cckext:              42809278 (17 integral passes)



 **********************************************************************************************************************************
 DATASETS  * FILE   NREC   LENGTH (MB)   RECORD NAMES
              1      19    12452.38       500      610      700      900      950      970     1000      129      960     1100   
                                          VAR    BASINP    GEOM    SYMINP    ZMAT    AOBASIS   BASIS     P2S    ABASIS      S 
                                         1400     1410     1200     1210     1080     1600     1650     1700     1380   
                                           T        V       H0       H01     AOSYM     SMH    MOLCAS    OPER     JKOP   

              2       4       13.79       700     1000      520     2100   
                                         GEOM     BASIS   MCVARS     RHF  

 PROGRAMS   *        TOTAL   CCSD(T)    HF-SCF       INT
 CPU TIMES  *     50470.52  46547.69   1769.13   2153.45
 REAL TIME  *     54268.33 SEC
 DISK USED  *        14.28 GB (local),      554.92 GB (total)
 SF USED    *        13.87 GB
 GA USED    *         0.00 MB       (max)       0.00 MB       (current)
 **********************************************************************************************************************************

 Running procedure: SET_MONOMER1

 Dummy atoms: C1  H41  H42  H43  H44


 Recomputing one-electron integrals since nuclear charges changed


 PROGRAM * SEWARD (Integral evaluation for generally contracted gaussian basis sets)     Author: Roland Lindh, 1990

 Geometry written to block  1 of record 700


 Point group  C1  



 ATOMIC COORDINATES

 NR  ATOM    CHARGE       X              Y              Z

   1  O7      8.00   -4.362810704   -2.860478435    6.396722932
   2  H13     1.00   -5.253627599   -3.421160176    4.877005182
   3  H14     1.00   -5.588487068   -1.881600302    7.381837160
   4  C1      0.00   -6.193010455    2.801518980    2.403542658
   5  H41     0.00   -4.656285171    1.699997622    3.119937832
   6  H42     0.00   -5.973046335    4.726205038    2.982932688
   7  H43     0.00   -7.940251230    2.077186956    3.118237078
   8  H44     0.00   -6.176569838    2.685300823    0.384937212

 Bond lengths in Bohr (Angstrom)

 1-2  1.848637551  1-3  1.852278325  4-5  2.021904040  4-6  2.022002335  4-7  2.021953343
     ( 0.978256863)     ( 0.980183478)     ( 1.069945541)     ( 1.069997556)     ( 1.069971630)

 4-8  2.022015060
     ( 1.070004290)

 Bond angles

  2-1-3  106.17843926   5-4-6  109.53398059   5-4-7  109.65604535   5-4-8  108.43490854

  6-4-7  109.49436728   6-4-8  109.86987750   7-4-8  109.83468330

 NUCLEAR CHARGE:                   10
 NUMBER OF PRIMITIVE AOS:        1046
 NUMBER OF SYMMETRY AOS:          786
 NUMBER OF CONTRACTIONS:          734   (  734A   )
 NUMBER OF CORE ORBITALS:           1   (    1A   )
 NUMBER OF VALENCE ORBITALS:        6   (    6A   )

 MOLECULE CHANGED: INITIALIZING OCCUPATION AND DUMP RECORDS


 NUCLEAR REPULSION ENERGY    8.98445179

 Basis set:  JKFIT                   
 Basis size:  1104
 Attributes:
 Sphericals:   T
 Basis set:  MP2FIT                  
 Basis size:  1246
 Attributes:
 Sphericals:   T
 Basis set:  RI                      
 Basis size:   730
 Attributes:
 Sphericals:   T
 Basis set:  TDDFT                   
 Basis size:  1246
 Attributes:
 Sphericals:   T

 Eigenvalues of metric

         1 0.188E-05 0.242E-05 0.350E-05 0.433E-05 0.478E-05 0.689E-05 0.805E-05 0.930E-05


 Contracted 2-electron integrals neglected if value below      1.0D-14

 OPERATOR DM      FOR CENTER  0  COORDINATES:    0.000000    0.000000    0.000000


 **********************************************************************************************************************************
 DATASETS  * FILE   NREC   LENGTH (MB)   RECORD NAMES
              1      18       49.80       500      610      700      900      950      970     1000      129      960     1100   
                                          VAR    BASINP    GEOM    SYMINP    ZMAT    AOBASIS   BASIS     P2S    ABASIS      S 
                                         1400     1410     1200     1210     1080     1600     1650     1700   
                                           T        V       H0       H01     AOSYM     SMH    MOLCAS    OPER   

              2       5       24.61       700     1000      520     2100      200   
                                         GEOM     BASIS   MCVARS     RHF    OPTIONS    

 PROGRAMS   *        TOTAL       INT   CCSD(T)    HF-SCF       INT
 CPU TIMES  *     50471.39      0.87  46547.69   1769.13   2153.45
 REAL TIME  *     54271.37 SEC
 DISK USED  *        14.28 GB (local),      554.95 GB (total)
 SF USED    *        13.87 GB
 GA USED    *         0.00 MB       (max)       0.00 MB       (current)
 **********************************************************************************************************************************


 PROGRAM * RHF-SCF (CLOSED SHELL)       Authors: W. Meyer, H.-J. Werner


 NUMBER OF ELECTRONS:       5+    5-    SPACE SYMMETRY=1    SPIN SYMMETRY: Singlet 
 CONVERGENCE THRESHOLDS:    1.00E-08 (Density)    1.00E-11 (Energy)
 MAX. NUMBER OF ITERATIONS:       60
 INTERPOLATION TYPE:            DIIS
 INTERPOLATION STEPS:              2 (START)      1 (STEP)
 LEVEL SHIFTS:                  0.00 (CLOSED)  0.00 (OPEN) 



 Orbital guess generated from atomic densities. Full valence occupancy:    7

 Molecular orbital dump at record        2101.2

 Initial occupancy:   5

 ITERATION    DDIFF          GRAD             ENERGY        2-EL.EN.            DIPOLE MOMENTS         DIIS   ORB.
    1      0.000D+00      0.000D+00       -76.02628989     77.404249   -1.08709    0.21512   -0.27401    0    start
    2      0.000D+00      0.360D-02       -76.05301070     73.740929   -0.63176    0.12473   -0.15977    1    diag
    3      0.130D-02      0.229D-02       -76.06460426     75.367831   -0.74507    0.14716   -0.18831    2    diag
    4      0.493D-03      0.215D-03       -76.06479970     75.276342   -0.74040    0.14618   -0.18724    3    diag
    5      0.621D-04      0.602D-04       -76.06482073     75.290757   -0.73865    0.14581   -0.18684    4    diag
    6      0.193D-04      0.120D-04       -76.06482212     75.289677   -0.73825    0.14572   -0.18675    5    diag
    7      0.497D-05      0.246D-05       -76.06482219     75.289824   -0.73811    0.14569   -0.18672    6    diag
    8      0.135D-05      0.473D-06       -76.06482219     75.289812   -0.73807    0.14568   -0.18671    7    diag
    9      0.291D-06      0.655D-07       -76.06482219     75.289803   -0.73806    0.14568   -0.18671    8    diag
   10      0.427D-07      0.147D-07       -76.06482219     75.289806   -0.73806    0.14568   -0.18671    9    orth
   11      0.910D-08      0.245D-08       -76.06482219     75.289805   -0.73806    0.14568   -0.18671    0    orth

 Final occupancy:   5

 !RHF STATE  1.1 Energy               -76.064822190679
 Nuclear energy                         8.98445179
 One-electron energy                 -122.69417661
 Two-electron energy                   37.64490264
 Virial quotient                       -1.00200178
 !RHF STATE  1.1 Dipole moment         -0.73806396     0.14568351    -0.18670903
 Dipole moment /Debye                  -1.87584859     0.37026628    -0.47453593

 Orbital energies:

         1.1          2.1          3.1          4.1          5.1          6.1          7.1
    -20.567041    -1.340419    -0.708942    -0.577543    -0.508242     0.014885     0.030719


 HOMO      5.1    -0.508242 =     -13.8300eV
 LUMO      6.1     0.014885 =       0.4050eV
 LUMO-HOMO         0.523127 =      14.2350eV


 **********************************************************************************************************************************
 DATASETS  * FILE   NREC   LENGTH (MB)   RECORD NAMES
              1      18       49.80       500      610      700      900      950      970     1000      129      960     1100   
                                          VAR    BASINP    GEOM    SYMINP    ZMAT    AOBASIS   BASIS     P2S    ABASIS      S 
                                         1400     1410     1200     1210     1080     1600     1650     1700   
                                           T        V       H0       H01     AOSYM     SMH    MOLCAS    OPER   

              2       6       38.39       700     1000      520     2100      200     2101   
                                         GEOM     BASIS   MCVARS     RHF    OPTIONS    RHF  

 PROGRAMS   *        TOTAL    HF-SCF       INT   CCSD(T)    HF-SCF       INT
 CPU TIMES  *     52449.11   1977.72      0.87  46547.69   1769.13   2153.45
 REAL TIME  *     56429.95 SEC
 DISK USED  *        14.28 GB (local),      554.95 GB (total)
 SF USED    *        13.87 GB
 GA USED    *         0.00 MB       (max)       0.00 MB       (current)
 **********************************************************************************************************************************

 Basis set:  JKFIT                   
 Basis size:  1104
 Attributes:
 Sphericals:   T
 Basis set:  MP2FIT                  
 Basis size:  1246
 Attributes:
 Sphericals:   T
 Basis set:  RI                      
 Basis size:   730
 Attributes:
 Sphericals:   T
 Basis set:  TDDFT                   
 Basis size:  1246
 Attributes:
 Sphericals:   T

 PROGRAM * CCSD (Closed-shell coupled cluster)     Authors: C. Hampel, H.-J. Werner, 1991, M. Deegan, P.J. Knowles, 1992


 Convergence thresholds:  THRVAR = 1.00D-08  THRDEN = 1.00D-10

 CCSD(T)     terms to be evaluated (factor= 1.000)


 Number of core orbitals:           1 (   1 )
 Number of closed-shell orbitals:   4 (   4 )
 Number of external orbitals:     729 ( 729 )

 Molecular orbitals read from record     2101.2  Type=RHF/CANONICAL (state 1.1)

 Number of N-1 electron functions:               4
 Number of N-2 electron functions:              10
 Number of singly external CSFs:              2916
 Number of doubly external CSFs:           4252986
 Total number of CSFs:                     4255903

 Length of J-op  integral file:               0.00 MB
 Length of K-op  integral file:              37.04 MB
 Length of 3-ext integral record:             0.00 MB

 For full I/O caching in triples, increase memory by 535.09 Mwords to 2535.14 Mwords.

 Integral transformation finished. Total CPU:1491.88 sec, npass=  1  Memory used:1010.01 MW

 Reference energy:                    -76.06482219

 MP2 singlet pair energy:              -0.19220781
 MP2 triplet pair energy:              -0.10227715
 MP2 correlation energy:               -0.29448497
 MP2 total energy:                    -76.35930716

 SCS-MP2 correlation energy:           -0.29428849   (PS=  1.200000  PT=  0.333333)
 SCS-MP2 total energy:                -76.35911068

 ITER.      SQ.NORM     CORR.ENERGY   TOTAL ENERGY   ENERGY CHANGE        DEN1      VAR(S)    VAR(P)  DIIS     TIME  TIME/IT
   1      1.06418093    -0.29437196   -76.35919415     0.00011301     0.00606202  0.82D-03  0.10D-02  1  1  1870.12   391.60
   2      1.06776120    -0.29461390   -76.35943609    -0.00024194    -0.00496032  0.16D-04  0.12D-03  2  2  2246.56   398.19
   3      1.06919630    -0.29469387   -76.35951606    -0.00007997    -0.00102775  0.80D-05  0.68D-05  3  3  2617.93   399.41
   4      1.06967935    -0.29469212   -76.35951431     0.00000175    -0.00023514  0.53D-06  0.76D-06  4  4  2991.98   400.26
   5      1.06978561    -0.29469042   -76.35951261     0.00000169    -0.00003252  0.17D-06  0.54D-07  5  5  3366.50   400.67
   6      1.06982152    -0.29468787   -76.35951006     0.00000255    -0.00000779  0.19D-07  0.46D-08  6  6  3735.92   401.65
   7      1.06982950    -0.29468733   -76.35950953     0.00000054    -0.00000074  0.16D-08  0.81D-09  6  1  4107.17   402.14
   8      1.06983135    -0.29468722   -76.35950941     0.00000011    -0.00000010  0.25D-09  0.96D-10  6  2  4484.68   402.30
   9      1.06983204    -0.29468718   -76.35950937     0.00000004     0.00000007  0.21D-10  0.93D-11  6  3  4854.91   402.53
  10      1.06983218    -0.29468717   -76.35950936     0.00000001     0.00000003  0.24D-11  0.13D-11  6  4  5225.05   402.72
  11      1.06983218    -0.29468717   -76.35950936    -0.00000000     0.00000002  0.53D-12  0.17D-12  6  5  5604.60   402.78
  12      1.06983218    -0.29468717   -76.35950936    -0.00000000     0.00000001  0.93D-13  0.27D-13  6  6  5973.97   403.03
  13      1.06983218    -0.29468717   -76.35950936    -0.00000000     0.00000000  0.16D-13  0.52D-14  6  1  6346.23   403.11
  14      1.06983218    -0.29468717   -76.35950936    -0.00000000     0.00000000  0.18D-14  0.81D-15  6  2  6722.97   403.16
  15      1.06983217    -0.29468717   -76.35950936    -0.00000000     0.00000000  0.21D-15  0.13D-15  6  3  7099.37   403.18
  16      1.06983217    -0.29468717   -76.35950936    -0.00000000    -0.00000000  0.48D-16  0.20D-16  6  4  7465.58   403.18

 Norm of t1 vector:      0.03761169      S-energy:    -0.00000000      T1 diagnostic:  0.00940292
                                                                       D1 diagnostic:  0.01941752


 Total CPU time for triples:   3624.97 sec


 RESULTS
 =======

  Reference energy                    -76.064822190677
  CCSD singlet pair energy             -0.204286139749
  CCSD triplet pair energy             -0.090401031244
  CCSD correlation energy              -0.294687171690

  Triples (T) contribution             -0.009874133761
  Total correlation energy             -0.304561305451

  CCSD total energy                   -76.359509362367
  CCSD[T] energy                      -76.369696762296
  CCSD-T energy                       -76.369238370796
 !CCSD(T) total energy                -76.369383496128

 Timing summary (sec):

 STEP                 CPU(USER)    SYS     CPU(TOT)    WALL
 Transformation       1493.78     43.16   1536.94   1539.36
 CCSD iterations      5972.18    234.27   6206.45   6451.80
 Triples              3624.97     55.89   3680.86   3700.14

 Program statistics:

 Available memory in ccsd:              1999999921
 Min. memory needed in ccsd:              19268142
 Max. memory used in ccsd:                22427508
 Max. memory used in cckext:              14646566 (16 integral passes)



 **********************************************************************************************************************************
 DATASETS  * FILE   NREC   LENGTH (MB)   RECORD NAMES
              1      19     6330.40       500      610      700      900      950      970     1000      129      960     1100   
                                          VAR    BASINP    GEOM    SYMINP    ZMAT    AOBASIS   BASIS     P2S    ABASIS      S 
                                         1400     1410     1200     1210     1080     1600     1650     1700     1380   
                                           T        V       H0       H01     AOSYM     SMH    MOLCAS    OPER     JKOP   

              2       6       38.39       700     1000      520     2100      200     2101   
                                         GEOM     BASIS   MCVARS     RHF    OPTIONS    RHF  

 PROGRAMS   *        TOTAL   CCSD(T)    HF-SCF       INT   CCSD(T)    HF-SCF       INT
 CPU TIMES  *     63540.30  11091.18   1977.72      0.87  46547.69   1769.13   2153.45
 REAL TIME  *     68122.58 SEC
 DISK USED  *        14.28 GB (local),      554.95 GB (total)
 SF USED    *        13.87 GB
 GA USED    *         0.00 MB       (max)       0.00 MB       (current)
 **********************************************************************************************************************************

 Running procedure: SET_MONOMER2

 Dummy atoms: O7  H13  H14


 Recomputing one-electron integrals since nuclear charges changed


 PROGRAM * SEWARD (Integral evaluation for generally contracted gaussian basis sets)     Author: Roland Lindh, 1990

 Geometry written to block  1 of record 700


 Point group  C1  



 ATOMIC COORDINATES

 NR  ATOM    CHARGE       X              Y              Z

   1  O7      0.00   -4.362810704   -2.860478435    6.396722932
   2  H13     0.00   -5.253627599   -3.421160176    4.877005182
   3  H14     0.00   -5.588487068   -1.881600302    7.381837160
   4  C1      6.00   -6.193010455    2.801518980    2.403542658
   5  H41     1.00   -4.656285171    1.699997622    3.119937832
   6  H42     1.00   -5.973046335    4.726205038    2.982932688
   7  H43     1.00   -7.940251230    2.077186956    3.118237078
   8  H44     1.00   -6.176569838    2.685300823    0.384937212

 Bond lengths in Bohr (Angstrom)

 1-2  1.848637551  1-3  1.852278325  4-5  2.021904040  4-6  2.022002335  4-7  2.021953343
     ( 0.978256863)     ( 0.980183478)     ( 1.069945541)     ( 1.069997556)     ( 1.069971630)

 4-8  2.022015060
     ( 1.070004290)

 Bond angles

  2-1-3  106.17843926   5-4-6  109.53398059   5-4-7  109.65604535   5-4-8  108.43490854

  6-4-7  109.49436728   6-4-8  109.86987750   7-4-8  109.83468330

 NUCLEAR CHARGE:                   10
 NUMBER OF PRIMITIVE AOS:        1046
 NUMBER OF SYMMETRY AOS:          786
 NUMBER OF CONTRACTIONS:          734   (  734A   )
 NUMBER OF CORE ORBITALS:           1   (    1A   )
 NUMBER OF VALENCE ORBITALS:        8   (    8A   )

 MOLECULE CHANGED: INITIALIZING OCCUPATION AND DUMP RECORDS


 NUCLEAR REPULSION ENERGY   13.68681606

 Basis set:  JKFIT                   
 Basis size:  1104
 Attributes:
 Sphericals:   T
 Basis set:  MP2FIT                  
 Basis size:  1246
 Attributes:
 Sphericals:   T
 Basis set:  RI                      
 Basis size:   730
 Attributes:
 Sphericals:   T
 Basis set:  TDDFT                   
 Basis size:  1246
 Attributes:
 Sphericals:   T

 Eigenvalues of metric

         1 0.188E-05 0.242E-05 0.350E-05 0.433E-05 0.478E-05 0.689E-05 0.805E-05 0.930E-05


 Contracted 2-electron integrals neglected if value below      1.0D-14

 OPERATOR DM      FOR CENTER  0  COORDINATES:    0.000000    0.000000    0.000000


 **********************************************************************************************************************************
 DATASETS  * FILE   NREC   LENGTH (MB)   RECORD NAMES
              1      18       49.80       500      610      700      900      950      970     1000      129      960     1100   
                                          VAR    BASINP    GEOM    SYMINP    ZMAT    AOBASIS   BASIS     P2S    ABASIS      S 
                                         1400     1410     1200     1210     1080     1600     1650     1700   
                                           T        V       H0       H01     AOSYM     SMH    MOLCAS    OPER   

              2       6       38.39       700     1000      520     2100      200     2101   
                                         GEOM     BASIS   MCVARS     RHF    OPTIONS    RHF  

 PROGRAMS   *        TOTAL       INT   CCSD(T)    HF-SCF       INT   CCSD(T)    HF-SCF       INT
 CPU TIMES  *     63541.24      0.93  11091.18   1977.72      0.87  46547.69   1769.13   2153.45
 REAL TIME  *     68124.64 SEC
 DISK USED  *        14.28 GB (local),      554.95 GB (total)
 SF USED    *        13.87 GB
 GA USED    *         0.00 MB       (max)       0.00 MB       (current)
 **********************************************************************************************************************************


 PROGRAM * RHF-SCF (CLOSED SHELL)       Authors: W. Meyer, H.-J. Werner


 NUMBER OF ELECTRONS:       5+    5-    SPACE SYMMETRY=1    SPIN SYMMETRY: Singlet 
 CONVERGENCE THRESHOLDS:    1.00E-08 (Density)    1.00E-11 (Energy)
 MAX. NUMBER OF ITERATIONS:       60
 INTERPOLATION TYPE:            DIIS
 INTERPOLATION STEPS:              2 (START)      1 (STEP)
 LEVEL SHIFTS:                  0.00 (CLOSED)  0.00 (OPEN) 



 Orbital guess generated from atomic densities. Full valence occupancy:    9

 Molecular orbital dump at record        2102.2

 Initial occupancy:   5

 ITERATION    DDIFF          GRAD             ENERGY        2-EL.EN.            DIPOLE MOMENTS         DIIS   ORB.
    1      0.000D+00      0.000D+00       -40.19676541     53.509905    0.00411   -0.00276   -0.00131    0    start
    2      0.000D+00      0.198D-02       -40.21405761     52.218481    0.00128   -0.00087   -0.00039    1    diag
    3      0.949D-03      0.769D-03       -40.21634104     52.673987    0.00182   -0.00123   -0.00056    2    diag
    4      0.260D-03      0.192D-03       -40.21666136     52.619250    0.00161   -0.00110   -0.00049    3    diag
    5      0.102D-03      0.248D-04       -40.21666685     52.621408    0.00159   -0.00108   -0.00048    4    diag
    6      0.353D-04      0.204D-05       -40.21666689     52.621536    0.00159   -0.00108   -0.00048    5    diag
    7      0.603D-05      0.166D-06       -40.21666689     52.621498    0.00158   -0.00108   -0.00048    6    diag
    8      0.339D-06      0.136D-07       -40.21666689     52.621499    0.00158   -0.00108   -0.00048    7    diag
    9      0.580D-07      0.167D-08       -40.21666689     52.621499    0.00158   -0.00108   -0.00048    8    diag
   10      0.106D-07      0.465D-09       -40.21666689     52.621499    0.00158   -0.00108   -0.00048    9    orth
   11      0.113D-08      0.667D-10       -40.21666689     52.621499    0.00158   -0.00108   -0.00048    0    orth

 Final occupancy:   5

 !RHF STATE  1.1 Energy               -40.216666890329
 Nuclear energy                        13.68681606
 One-electron energy                  -80.21423239
 Two-electron energy                   26.31074944
 Virial quotient                       -0.99832814
 !RHF STATE  1.1 Dipole moment          0.00158480    -0.00107768    -0.00047742
 Dipole moment /Debye                   0.00402790    -0.00273902    -0.00121340

 Orbital energies:

         1.1          2.1          3.1          4.1          5.1          6.1          7.1
    -11.196017    -0.950605    -0.551931    -0.549996    -0.547818     0.021728     0.033765


 HOMO      5.1    -0.547818 =     -14.9069eV
 LUMO      6.1     0.021728 =       0.5913eV
 LUMO-HOMO         0.569546 =      15.4981eV


 **********************************************************************************************************************************
 DATASETS  * FILE   NREC   LENGTH (MB)   RECORD NAMES
              1      18       49.80       500      610      700      900      950      970     1000      129      960     1100   
                                          VAR    BASINP    GEOM    SYMINP    ZMAT    AOBASIS   BASIS     P2S    ABASIS      S 
                                         1400     1410     1200     1210     1080     1600     1650     1700   
                                           T        V       H0       H01     AOSYM     SMH    MOLCAS    OPER   

              2       7       62.47       700     1000      520     2100      200     2101     2102   
                                         GEOM     BASIS   MCVARS     RHF    OPTIONS    RHF      RHF  

 PROGRAMS   *        TOTAL    HF-SCF       INT   CCSD(T)    HF-SCF       INT   CCSD(T)    HF-SCF       INT
 CPU TIMES  *     65530.88   1989.64      0.93  11091.18   1977.72      0.87  46547.69   1769.13   2153.45
 REAL TIME  *     70283.77 SEC
 DISK USED  *        14.28 GB (local),      554.95 GB (total)
 SF USED    *        13.87 GB
 GA USED    *         0.00 MB       (max)       0.00 MB       (current)
 **********************************************************************************************************************************

 Basis set:  JKFIT                   
 Basis size:  1104
 Attributes:
 Sphericals:   T
 Basis set:  MP2FIT                  
 Basis size:  1246
 Attributes:
 Sphericals:   T
 Basis set:  RI                      
 Basis size:   730
 Attributes:
 Sphericals:   T
 Basis set:  TDDFT                   
 Basis size:  1246
 Attributes:
 Sphericals:   T

 PROGRAM * CCSD (Closed-shell coupled cluster)     Authors: C. Hampel, H.-J. Werner, 1991, M. Deegan, P.J. Knowles, 1992


 Convergence thresholds:  THRVAR = 1.00D-08  THRDEN = 1.00D-10

 CCSD(T)     terms to be evaluated (factor= 1.000)


 Number of core orbitals:           1 (   1 )
 Number of closed-shell orbitals:   4 (   4 )
 Number of external orbitals:     729 ( 729 )

 Molecular orbitals read from record     2102.2  Type=RHF/CANONICAL (state 1.1)

 Number of N-1 electron functions:               4
 Number of N-2 electron functions:              10
 Number of singly external CSFs:              2916
 Number of doubly external CSFs:           4252986
 Total number of CSFs:                     4255903

 Length of J-op  integral file:               0.00 MB
 Length of K-op  integral file:              37.04 MB
 Length of 3-ext integral record:             0.00 MB

 For full I/O caching in triples, increase memory by 535.09 Mwords to 2535.14 Mwords.

 Integral transformation finished. Total CPU:1455.98 sec, npass=  1  Memory used:1010.01 MW

 Reference energy:                    -40.21666689

 MP2 singlet pair energy:              -0.15787886
 MP2 triplet pair energy:              -0.05682296
 MP2 correlation energy:               -0.21470183
 MP2 total energy:                    -40.43136872

 SCS-MP2 correlation energy:           -0.22481115   (PS=  1.200000  PT=  0.333333)
 SCS-MP2 total energy:                -40.44147804

 ITER.      SQ.NORM     CORR.ENERGY   TOTAL ENERGY   ENERGY CHANGE        DEN1      VAR(S)    VAR(P)  DIIS     TIME  TIME/IT
   1      1.07073109    -0.22924350   -40.44591039    -0.01454167    -0.00880942  0.58D-03  0.96D-03  1  1  1834.96   391.48
   2      1.07565282    -0.23033822   -40.44700511    -0.00109473    -0.00537200  0.15D-04  0.11D-03  2  2  2208.94   395.47
   3      1.07738950    -0.23037872   -40.44704561    -0.00004050    -0.00128260  0.20D-05  0.63D-05  3  3  2582.50   398.25
   4      1.07777989    -0.23038045   -40.44704734    -0.00000173    -0.00020101  0.14D-06  0.36D-06  4  4  2953.94   398.98
   5      1.07783429    -0.23038421   -40.44705110    -0.00000376    -0.00001099  0.13D-07  0.24D-07  5  5  3323.07   399.56
   6      1.07784442    -0.23038290   -40.44704980     0.00000131    -0.00000412  0.79D-09  0.17D-08  6  6  3700.69   399.79
   7      1.07784576    -0.23038252   -40.44704941     0.00000038    -0.00000075  0.53D-10  0.13D-09  6  1  4068.95   399.99
   8      1.07784569    -0.23038258   -40.44704947    -0.00000005     0.00000024  0.57D-11  0.84D-11  6  3  4442.14   400.36
   9      1.07784582    -0.23038256   -40.44704945     0.00000002    -0.00000009  0.42D-12  0.60D-12  6  2  4815.62   400.58
  10      1.07784582    -0.23038256   -40.44704945     0.00000000     0.00000001  0.56D-13  0.63D-13  6  4  5185.18   400.86
  11      1.07784583    -0.23038256   -40.44704945     0.00000000     0.00000000  0.57D-14  0.64D-14  6  5  5560.33   401.15
  12      1.07784583    -0.23038256   -40.44704945     0.00000000     0.00000000  0.17D-15  0.65D-15  6  6  5936.27   401.27
  13      1.07784582    -0.23038256   -40.44704945    -0.00000000     0.00000000  0.13D-16  0.71D-16  6  1  6308.83   401.39
  14      1.07784582    -0.23038256   -40.44704945    -0.00000000     0.00000000  0.30D-17  0.14D-16  6  3  6687.88   401.60

 Norm of t1 vector:      0.03186009      S-energy:     0.00000000      T1 diagnostic:  0.00796502
                                                                       D1 diagnostic:  0.01279394

 Total CPU time for triples:   3627.90 sec


 RESULTS
 =======

  Reference energy                    -40.216666890328
  CCSD singlet pair energy             -0.175400403199
  CCSD triplet pair energy             -0.054982155516
  CCSD correlation energy              -0.230382558713

  Triples (T) contribution             -0.007018785863
  Total correlation energy             -0.237401344576

  CCSD total energy                   -40.447049449041
  CCSD[T] energy                      -40.454292072363
  CCSD-T energy                       -40.454001279302
 !CCSD(T) total energy                -40.454068234904

 Timing summary (sec):

 STEP                 CPU(USER)    SYS     CPU(TOT)    WALL
 Transformation       1457.91     42.37   1500.28   1502.71
 CCSD iterations      5230.35    202.22   5432.57   5623.32
 Triples              3627.90     55.89   3683.79   3701.21

 Program statistics:

 Available memory in ccsd:              1999999916
 Min. memory needed in ccsd:              19268142
 Max. memory used in ccsd:                22427508
 Max. memory used in cckext:              14646566 (14 integral passes)



 **********************************************************************************************************************************
 DATASETS  * FILE   NREC   LENGTH (MB)   RECORD NAMES
              1      19     6330.40       500      610      700      900      950      970     1000      129      960     1100   
                                          VAR    BASINP    GEOM    SYMINP    ZMAT    AOBASIS   BASIS     P2S    ABASIS      S 
                                         1400     1410     1200     1210     1080     1600     1650     1700     1380   
                                           T        V       H0       H01     AOSYM     SMH    MOLCAS    OPER     JKOP   

              2       7       62.47       700     1000      520     2100      200     2101     2102   
                                         GEOM     BASIS   MCVARS     RHF    OPTIONS    RHF      RHF  

 PROGRAMS   *        TOTAL   CCSD(T)    HF-SCF       INT   CCSD(T)    HF-SCF       INT   CCSD(T)    HF-SCF       INT
 CPU TIMES  *     75847.32  10316.44   1989.64      0.93  11091.18   1977.72      0.87  46547.69   1769.13   2153.45
 REAL TIME  *     81112.34 SEC
 DISK USED  *        14.28 GB (local),      554.95 GB (total)
 SF USED    *        13.87 GB
 GA USED    *         0.00 MB       (max)       0.00 MB       (current)
 **********************************************************************************************************************************
 Molecular orbitals read from record     2102.2  Type=RHF/CANONICAL (state 1.1)
 Occupation numbers read from record     2102.2  Type=RHF/RHF (state 1.1)
 Orbital energies read from record       2102.2  Type=RHF/CANONICAL (state 1.1)
 Redundancy group numbers read from rec  2102.2  Type=RHF/RHF (state 1.1)

 CCSD(T)/aug-cc-pV5Z energy=    -40.454068234904

         CCSD(T)          HF-SCF         CCSD(T)          HF-SCF         CCSD(T)          HF-SCF
    -40.45406823    -40.21666689    -76.36938350    -76.06482219   -116.82423419   -116.28127635
 **********************************************************************************************************************************
 Molpro calculation terminated
