
 Primary working directories    : /scratch/klimes/401059/molpro.caJyChwGrJ
 Secondary working directories  : /scratch/klimes/401059/molpro.caJyChwGrJ
 Wavefunction directory         : /scratch/klimes/401059/
 Main file repository           : /scratch/klimes/401059/molpro.caJyChwGrJ/

 id        : karlovklimes

 Nodes                      nprocs
 nc-19.cc.karlov.mff.cuni.cz    4

 Using customized tuning parameters: mindgm=1; mindgv=20; mindgc=4; mindgr=1; noblas=0; minvec=7
 default implementation of scratch files=sf  


 Variables initialized (930), CPU time= 0.00 sec
                                                                                 !gdirect
 memory,2000,m
 gthresh,orbital=1d-10,energy=1d-10,grid=1d-8
 
 symmetry,nosym
 angstrom
 geometry={
 O8        -2.441500000000      2.874300000000     -2.185500000000
 H15        -3.121200000000      3.446800000000     -1.780300000000
 H16        -2.892600000000      2.018700000000     -2.335200000000
 C1        -3.277200000000      1.482500000000      1.271900000000
 H41        -2.464000000000      0.899600000000      1.651000000000
 H42        -3.160800000000      2.501000000000      1.578500000000
 H43        -4.201800000000      1.099200000000      1.650100000000
 H44        -3.268500000000      1.421000000000      0.203700000000
 }
 
 nkerna=1
 nkernb=1
 
 gf=0
 sing=1
 thrdum=1d-4
 gridthr=1d-8
 
 basis={
 set,orbital
 default,av5z
 set,jkfit
 default,av5z/jkfit
 set,mp2fit
 default,av5z/mp2fit
 set,ri
 default,av5z/optri
 set,tddft
 default,av5z/mp2fit
 }
 
 proc set_monomer1
 dummy,4,5,6,7,8
 endproc
 
 proc set_monomer2
 dummy,1,2,3
 endproc
 
                                                                                 !1234 energy
 {hf,accu=1.d-16}
 ccsd(t)
 
 set_monomer1
 {hf,accu=1.d-16}
 ccsd(t)
 
 set_monomer2
 {hf,accu=1.d-16}
 ccsd(t)
 
 Commands  initialized (760), CPU time= 0.02 sec, 617 directives.
 Default parameters read. Elapsed time= 0.21 sec

 Checking input...
 Passed
1


                                         ***  PROGRAM SYSTEM MOLPRO  ***
                                       Copyright, TTI GmbH Stuttgart, 2015
                                    Version 2019.1 linked Jan 14 2019 13:09:19


 **********************************************************************************************************************************
 LABEL *                                                                                 
  64 bit mpp version                                                                     DATE: 14-Mar-20          TIME: 12:34:06  
 **********************************************************************************************************************************

 SHA1:             d688ac825633d238f2093ded1675ba87ccd55965
 **********************************************************************************************************************************

 THRESHOLDS:

 ZERO    =  1.00D-12  ONEINT  =  1.00D-12  TWOINT  =  1.00D-11  PREFAC  =  1.00D-14  XXXXXX  =  1.00D-09  EORDER  =  1.00D-04
 ENERGY  =  1.00D-10  ETEST   =  0.00D+00  EDENS   =  0.00D+00  THRDEDEF=  1.00D-06  GRADIENT=  1.00D-02  STEP    =  1.00D-03
 ORBITAL =  1.00D-10  CIVEC   =  1.00D-05  COEFF   =  1.00D-04  PRINTCI =  5.00D-02  PUNCHCI =  9.90D+01  OPTGRAD =  3.00D-04
 OPTENERG=  1.00D-06  OPTSTEP =  3.00D-04  THRGRAD =  1.00D-10  COMPRESS=  1.00D-11  VARMIN  =  1.00D-07  VARMAX  =  1.00D-03
 THRDOUB =  0.00D+00  THRDIV  =  1.00D-05  THRRED  =  1.00D-07  THRPSP  =  1.00D+00  THRDC   =  1.00D-10  THRCS   =  1.00D-10
 THRNRM  =  1.00D-08  THREQ   =  0.00D+00  THRDE   =  1.00D+00  THRREF  =  1.00D-05  SPARFAC =  1.00D+00  THRDLP  =  1.00D-07
 THRDIA  =  1.00D-10  THRDLS  =  1.00D-07  THRGPS  =  0.00D+00  THRKEX  =  0.00D+00  THRDIS  =  2.00D-01  THRVAR  =  1.00D-10
 THRLOC  =  1.00D-06  THRGAP  =  1.00D-06  THRLOCT = -1.00D+00  THRGAPT = -1.00D+00  THRORB  =  1.00D-06  THRMLTP =  0.00D+00
 THRCPQCI=  1.00D-10  KEXTA   =  0.00D+00  THRCOARS=  0.00D+00  SYMTOL  =  1.00D-06  GRADTOL =  1.00D-06  THROVL  =  1.00D-08
 THRORTH =  1.00D-08  GRID    =  1.00D-08  GRIDMAX =  1.00D-03  DTMAX   =  0.00D+00  THROCCDE=  1.00D-01  THROCCDE=  1.00D-01
 THRPRINT=  2.50D-01


 Variable memory set to 2000000000 words,  buffer space 

 ZSYMEL=NOSYM
 ZUNIT=ANG


Geometry recognized as XYZ

 SETTING NKERNA         =         1.00000000                                  
 SETTING NKERNB         =         1.00000000                                  
 SETTING GF             =     0.00000000D+00                                  
 SETTING SING           =         1.00000000                                  
 SETTING THRDUM         =     1.00000000D-04                                  
 SETTING GRIDTHR        =     1.00000000D-08                                  
 SETTING BASIS          =    AV5Z


 Recomputing integrals since basis changed


 Using spherical harmonics

 Library entry O      S aug-cc-pV5Z          selected for orbital group  1
 Library entry O      P aug-cc-pV5Z          selected for orbital group  1
 Library entry O      D aug-cc-pV5Z          selected for orbital group  1
 Library entry O      F aug-cc-pV5Z          selected for orbital group  1
 Library entry O      G aug-cc-pV5Z          selected for orbital group  1
 Library entry O      H aug-cc-pV5Z          selected for orbital group  1
 Library entry H      S aug-cc-pV5Z          selected for orbital group  2
 Library entry H      P aug-cc-pV5Z          selected for orbital group  2
 Library entry H      D aug-cc-pV5Z          selected for orbital group  2
 Library entry H      F aug-cc-pV5Z          selected for orbital group  2
 Library entry H      G aug-cc-pV5Z          selected for orbital group  2
 Library entry C      S aug-cc-pV5Z          selected for orbital group  3
 Library entry C      P aug-cc-pV5Z          selected for orbital group  3
 Library entry C      D aug-cc-pV5Z          selected for orbital group  3
 Library entry C      F aug-cc-pV5Z          selected for orbital group  3
 Library entry C      G aug-cc-pV5Z          selected for orbital group  3
 Library entry C      H aug-cc-pV5Z          selected for orbital group  3


 PROGRAM * SEWARD (Integral evaluation for generally contracted gaussian basis sets)     Author: Roland Lindh, 1990

 Geometry written to block  1 of record 700


 Point group  C1  



 ATOMIC COORDINATES

 NR  ATOM    CHARGE       X              Y              Z

   1  O8      8.00   -4.613766333    5.431639800   -4.129996445
   2  H15     1.00   -5.898213180    6.513508006   -3.364279420
   3  H16     1.00   -5.466221788    3.814790128   -4.412888446
   4  C1      6.00   -6.193010455    2.801518980    2.403542658
   5  H41     1.00   -4.656285171    1.699997622    3.119937832
   6  H42     1.00   -5.973046335    4.726205038    2.982932688
   7  H43     1.00   -7.940251230    2.077186956    3.118237078
   8  H44     1.00   -6.176569838    2.685300823    0.384937212

 Bond lengths in Bohr (Angstrom)

 1-2  1.845688241  1-3  1.849570504  4-5  2.021904040  4-6  2.022002335  4-7  2.021953343
     ( 0.976696155)     ( 0.978750561)     ( 1.069945541)     ( 1.069997556)     ( 1.069971630)

 4-8  2.022015060
     ( 1.070004290)

 Bond angles

  2-1-3  104.78050181   5-4-6  109.53398059   5-4-7  109.65604535   5-4-8  108.43490854

  6-4-7  109.49436728   6-4-8  109.86987750   7-4-8  109.83468330

 NUCLEAR CHARGE:                   20
 NUMBER OF PRIMITIVE AOS:        1046
 NUMBER OF SYMMETRY AOS:          786
 NUMBER OF CONTRACTIONS:          734   (  734A   )
 NUMBER OF CORE ORBITALS:           2   (    2A   )
 NUMBER OF VALENCE ORBITALS:       14   (   14A   )


 NUCLEAR REPULSION ENERGY   36.70371194


 Basis set:  JKFIT                   
 Basis size:  1104
 Attributes:
 Sphericals:   T
 Basis set:  MP2FIT                  
 Basis size:  1246
 Attributes:
 Sphericals:   T
 Basis set:  RI                      
 Basis size:   730
 Attributes:
 Sphericals:   T
 Basis set:  TDDFT                   
 Basis size:  1246
 Attributes:
 Sphericals:   T

 **********************************************************************************************************************************


 Eigenvalues of metric

         1 0.139E-05 0.202E-05 0.330E-05 0.430E-05 0.523E-05 0.690E-05 0.871E-05 0.900E-05


 Contracted 2-electron integrals neglected if value below      1.0D-14
 AO integral compression algorithm  1   Integral accuracy      1.0D-14

     153096.815 MB (compressed) written to integral file ( 48.5%)

     Node minimum: 35599.155 MB, node maximum: 41472.754 MB


 NUMBER OF SORTED TWO-ELECTRON INTEGRALS: 9095363064.     BUFFER LENGTH:  32768
 NUMBER OF SEGMENTS: 190  SEGMENT LENGTH:   47999780      RECORD LENGTH: 131072

 Memory used in sort:      48.16 MW

 SORT1 READ 39471948705. AND WROTE  6995122922. INTEGRALS IN  80155 RECORDS. CPU TIME:   697.76 SEC, REAL TIME:   812.83 SEC
 SORT2 READ 27991639461. AND WROTE 36381317385. INTEGRALS IN 632824 RECORDS. CPU TIME:   104.11 SEC, REAL TIME:   513.12 SEC

 Node minimum:  9095228192.  Node maximum:  9095430501. integrals

 OPERATOR DM      FOR CENTER  0  COORDINATES:    0.000000    0.000000    0.000000


 **********************************************************************************************************************************
 DATASETS  * FILE   NREC   LENGTH (MB)   RECORD NAMES
              1      18       49.80       500      610      700      900      950      970     1000      129      960     1100   
                                          VAR    BASINP    GEOM    SYMINP    ZMAT    AOBASIS   BASIS     P2S    ABASIS      S 
                                         1400     1410     1200     1210     1080     1600     1650     1700   
                                           T        V       H0       H01     AOSYM     SMH    MOLCAS    OPER   

 PROGRAMS   *        TOTAL       INT
 CPU TIMES  *      1839.27   1839.05
 REAL TIME  *      2409.75 SEC
 DISK USED  *        50.44 MB (local),      488.84 GB (total)
 GA USED    *         0.00 MB       (max)       0.00 MB       (current)
 **********************************************************************************************************************************


 PROGRAM * RHF-SCF (CLOSED SHELL)       Authors: W. Meyer, H.-J. Werner


 NUMBER OF ELECTRONS:      10+   10-    SPACE SYMMETRY=1    SPIN SYMMETRY: Singlet 
 CONVERGENCE THRESHOLDS:    1.00E-08 (Density)    1.00E-11 (Energy)
 MAX. NUMBER OF ITERATIONS:       60
 INTERPOLATION TYPE:            DIIS
 INTERPOLATION STEPS:              2 (START)      1 (STEP)
 LEVEL SHIFTS:                  0.00 (CLOSED)  0.00 (OPEN) 



 Orbital guess generated from atomic densities. Full valence occupancy:   16

 Molecular orbital dump at record        2100.2

 Initial occupancy:  10

 ITERATION    DDIFF          GRAD             ENERGY        2-EL.EN.            DIPOLE MOMENTS         DIIS   ORB.
    1      0.000D+00      0.000D+00      -116.22236039    158.812410   -1.08727   -0.27441    0.24282    0    start
    2      0.000D+00      0.291D-02      -116.26669083    153.991048   -0.59406   -0.15417    0.16365    1    diag
    3      0.162D-02      0.171D-02      -116.28024555    156.015802   -0.72162   -0.18511    0.18220    2    diag
    4      0.555D-03      0.255D-03      -116.28090908    155.902859   -0.71205   -0.18272    0.17865    3    diag
    5      0.128D-03      0.749D-04      -116.28097909    155.898224   -0.71175   -0.18288    0.17894    4    diag
    6      0.531D-04      0.182D-04      -116.28098305    155.903863   -0.71102   -0.18286    0.17888    5    diag
    7      0.192D-04      0.373D-05      -116.28098329    155.902137   -0.71106   -0.18290    0.17893    6    diag
    8      0.558D-05      0.952D-06      -116.28098331    155.902320   -0.71100   -0.18290    0.17895    7    diag
    9      0.123D-05      0.221D-06      -116.28098331    155.902292   -0.71098   -0.18290    0.17895    8    diag
   10      0.331D-06      0.271D-07      -116.28098331    155.902293   -0.71098   -0.18290    0.17895    9    orth
   11      0.607D-07      0.687D-08      -116.28098331    155.902294   -0.71098   -0.18290    0.17895    9    diag
   12      0.615D-08      0.200D-08      -116.28098331    155.902294   -0.71098   -0.18290    0.17895    0    orth

 Final occupancy:  10

 !RHF STATE  1.1 Energy              -116.280983311619
 Nuclear energy                        36.70371194
 One-electron energy                 -230.93584213
 Two-electron energy                   77.95114688
 Virial quotient                       -1.00060957
 !RHF STATE  1.1 Dipole moment         -0.71097596    -0.18290091     0.17895480
 Dipole moment /Debye                  -1.80700229    -0.46485729     0.45482794

 Orbital energies:

         1.1          2.1          3.1          4.1          5.1          6.1          7.1          8.1          9.1         10.1
    -20.567196   -11.198661    -1.342270    -0.953394    -0.707283    -0.581411    -0.555087    -0.552763    -0.551159    -0.507549

        11.1         12.1
      0.020092     0.034135


 HOMO     10.1    -0.507549 =     -13.8111eV
 LUMO     11.1     0.020092 =       0.5467eV
 LUMO-HOMO         0.527641 =      14.3579eV


 **********************************************************************************************************************************
 DATASETS  * FILE   NREC   LENGTH (MB)   RECORD NAMES
              1      18       49.80       500      610      700      900      950      970     1000      129      960     1100   
                                          VAR    BASINP    GEOM    SYMINP    ZMAT    AOBASIS   BASIS     P2S    ABASIS      S 
                                         1400     1410     1200     1210     1080     1600     1650     1700   
                                           T        V       H0       H01     AOSYM     SMH    MOLCAS    OPER   

              2       4       13.79       700     1000      520     2100   
                                         GEOM     BASIS   MCVARS     RHF  

 PROGRAMS   *        TOTAL    HF-SCF       INT
 CPU TIMES  *      3742.07   1902.80   1839.05
 REAL TIME  *      4986.65 SEC
 DISK USED  *       102.61 MB (local),      489.05 GB (total)
 SF USED    *         2.16 MB
 GA USED    *         0.00 MB       (max)       0.00 MB       (current)
 **********************************************************************************************************************************

 Basis set:  JKFIT                   
 Basis size:  1104
 Attributes:
 Sphericals:   T
 Basis set:  MP2FIT                  
 Basis size:  1246
 Attributes:
 Sphericals:   T
 Basis set:  RI                      
 Basis size:   730
 Attributes:
 Sphericals:   T
 Basis set:  TDDFT                   
 Basis size:  1246
 Attributes:
 Sphericals:   T

 PROGRAM * CCSD (Closed-shell coupled cluster)     Authors: C. Hampel, H.-J. Werner, 1991, M. Deegan, P.J. Knowles, 1992


 Convergence thresholds:  THRVAR = 1.00D-08  THRDEN = 1.00D-10

 CCSD(T)     terms to be evaluated (factor= 1.000)


 Number of core orbitals:           2 (   2 )
 Number of closed-shell orbitals:   8 (   8 )
 Number of external orbitals:     724 ( 724 )

 Molecular orbitals read from record     2100.2  Type=RHF/CANONICAL (state 1.1)

 Number of N-1 electron functions:               8
 Number of N-2 electron functions:              36
 Number of singly external CSFs:              5792
 Number of doubly external CSFs:          16776528
 Total number of CSFs:                    16782321

 Length of J-op  integral file:               0.00 MB
 Length of K-op  integral file:              37.04 MB
 Length of 3-ext integral record:             0.00 MB

 For full I/O caching in triples, increase memory by 2034.74 Mwords to 4034.79 Mwords.

 Integral transformation finished. Total CPU:2781.52 sec, npass=  1  Memory used:1826.26 MW

 Reference energy:                   -116.28098331

 MP2 singlet pair energy:              -0.35030822
 MP2 triplet pair energy:              -0.15974632
 MP2 correlation energy:               -0.51005454
 MP2 total energy:                   -116.79103785

 SCS-MP2 correlation energy:           -0.51976757   (PS=  1.200000  PT=  0.333333)
 SCS-MP2 total energy:               -116.80075088

 ITER.      SQ.NORM     CORR.ENERGY   TOTAL ENERGY   ENERGY CHANGE        DEN1      VAR(S)    VAR(P)  DIIS     TIME  TIME/IT
   1      1.13517673    -0.52447078  -116.80545409    -0.01441624    -0.00272364  0.14D-02  0.20D-02  1  1  3933.65  1165.17
   2      1.14356717    -0.52580288  -116.80678619    -0.00133210    -0.01024369  0.31D-04  0.25D-03  2  2  5086.02  1174.71
   3      1.14687253    -0.52592836  -116.80691167    -0.00012548    -0.00238129  0.11D-04  0.14D-04  3  3  6238.86  1177.74
   4      1.14778033    -0.52592439  -116.80690770     0.00000397    -0.00046045  0.65D-06  0.13D-05  4  4  7390.52  1179.37
   5      1.14794804    -0.52592619  -116.80690951    -0.00000181    -0.00004536  0.21D-06  0.92D-07  5  5  8542.62  1179.99
   6      1.14799634    -0.52592323  -116.80690654     0.00000296    -0.00001047  0.22D-07  0.78D-08  6  6  9694.28  1180.45
   7      1.14800691    -0.52592196  -116.80690527     0.00000128    -0.00000220  0.22D-08  0.11D-08  6  2 10846.30  1180.82
   8      1.14800939    -0.52592173  -116.80690504     0.00000023    -0.00000024  0.38D-09  0.12D-09  6  1 11998.47  1181.11
   9      1.14801034    -0.52592168  -116.80690499     0.00000005    -0.00000001  0.33D-10  0.17D-10  6  3 13150.79  1181.47
  10      1.14801048    -0.52592168  -116.80690499    -0.00000000     0.00000009  0.35D-11  0.24D-11  6  4 14304.63  1181.77
  11      1.14801045    -0.52592168  -116.80690500    -0.00000001     0.00000008  0.61D-12  0.32D-12  6  5 15455.44  1181.78
  12      1.14801043    -0.52592169  -116.80690500    -0.00000000     0.00000002  0.11D-12  0.40D-13  6  6 16606.46  1181.82
  13      1.14801041    -0.52592169  -116.80690500    -0.00000000     0.00000001  0.22D-13  0.62D-14  6  2 17758.95  1181.92
  14      1.14801041    -0.52592169  -116.80690500    -0.00000000     0.00000000  0.37D-14  0.13D-14  6  1 18911.52  1182.05
  15      1.14801041    -0.52592169  -116.80690500    -0.00000000    -0.00000000  0.57D-15  0.23D-15  6  3 20063.99  1182.13
  16      1.14801041    -0.52592169  -116.80690500    -0.00000000    -0.00000000  0.14D-15  0.47D-16  6  4 21215.62  1182.16
  17      1.14801041    -0.52592169  -116.80690500     0.00000000    -0.00000000  0.53D-16  0.14D-16  6  5 22365.46  1182.06

 Norm of t1 vector:      0.05001012      S-energy:    -0.00000000      T1 diagnostic:  0.00884062
                                                                       D1 diagnostic:  0.02016543

   CPU time for triples:   3382.26 sec for i =  1 -  3 /  8 (~   6.2 % done)
   CPU time for triples:   3398.23 sec for i =  4 -  5 /  8 (~  26.8 % done)
   CPU time for triples:   3399.29 sec for i =  6 -  6 /  8 (~  44.6 % done)
   CPU time for triples:   6797.06 sec for i =  7 -  7 /  8 (~  68.8 % done)
   CPU time for triples:   6798.17 sec for i =  8 -  8 /  8 (  100.0 % done)

 Total CPU time for triples:  23799.55 sec


 RESULTS
 =======

  Reference energy                   -116.280983311618
  CCSD singlet pair energy             -0.379818508533
  CCSD triplet pair energy             -0.146103178364
  CCSD correlation energy              -0.525921687288

  Triples (T) contribution             -0.017057508279
  Total correlation energy             -0.542979195567

  CCSD total energy                  -116.806904998906
  CCSD[T] energy                     -116.824504681588
  CCSD-T energy                      -116.823746859905
 !CCSD(T) total energy               -116.823962507185

 Timing summary (sec):

 STEP                 CPU(USER)    SYS     CPU(TOT)    WALL
 Transformation       2787.66     97.23   2884.89   2908.17
 CCSD iterations     19578.21    344.23  19922.44  20096.06
 Triples             23799.55    416.12  24215.67  24252.79

 Program statistics:

 Available memory in ccsd:              1999999734
 Min. memory needed in ccsd:              48755833
 Max. memory used in ccsd:                63342105
 Max. memory used in cckext:              42809278 (17 integral passes)



 **********************************************************************************************************************************
 DATASETS  * FILE   NREC   LENGTH (MB)   RECORD NAMES
              1      19    12452.38       500      610      700      900      950      970     1000      129      960     1100   
                                          VAR    BASINP    GEOM    SYMINP    ZMAT    AOBASIS   BASIS     P2S    ABASIS      S 
                                         1400     1410     1200     1210     1080     1600     1650     1700     1380   
                                           T        V       H0       H01     AOSYM     SMH    MOLCAS    OPER     JKOP   

              2       4       13.79       700     1000      520     2100   
                                         GEOM     BASIS   MCVARS     RHF  

 PROGRAMS   *        TOTAL   CCSD(T)    HF-SCF       INT
 CPU TIMES  *     49907.76  46165.69   1902.80   1839.05
 REAL TIME  *     52245.60 SEC
 DISK USED  *        14.28 GB (local),      540.32 GB (total)
 SF USED    *        13.87 GB
 GA USED    *         0.00 MB       (max)       0.00 MB       (current)
 **********************************************************************************************************************************

 Running procedure: SET_MONOMER1

 Dummy atoms: C1  H41  H42  H43  H44


 Recomputing one-electron integrals since nuclear charges changed


 PROGRAM * SEWARD (Integral evaluation for generally contracted gaussian basis sets)     Author: Roland Lindh, 1990

 Geometry written to block  1 of record 700


 Point group  C1  



 ATOMIC COORDINATES

 NR  ATOM    CHARGE       X              Y              Z

   1  O8      8.00   -4.613766333    5.431639800   -4.129996445
   2  H15     1.00   -5.898213180    6.513508006   -3.364279420
   3  H16     1.00   -5.466221788    3.814790128   -4.412888446
   4  C1      0.00   -6.193010455    2.801518980    2.403542658
   5  H41     0.00   -4.656285171    1.699997622    3.119937832
   6  H42     0.00   -5.973046335    4.726205038    2.982932688
   7  H43     0.00   -7.940251230    2.077186956    3.118237078
   8  H44     0.00   -6.176569838    2.685300823    0.384937212

 Bond lengths in Bohr (Angstrom)

 1-2  1.845688241  1-3  1.849570504  4-5  2.021904040  4-6  2.022002335  4-7  2.021953343
     ( 0.976696155)     ( 0.978750561)     ( 1.069945541)     ( 1.069997556)     ( 1.069971630)

 4-8  2.022015060
     ( 1.070004290)

 Bond angles

  2-1-3  104.78050181   5-4-6  109.53398059   5-4-7  109.65604535   5-4-8  108.43490854

  6-4-7  109.49436728   6-4-8  109.86987750   7-4-8  109.83468330

 NUCLEAR CHARGE:                   10
 NUMBER OF PRIMITIVE AOS:        1046
 NUMBER OF SYMMETRY AOS:          786
 NUMBER OF CONTRACTIONS:          734   (  734A   )
 NUMBER OF CORE ORBITALS:           1   (    1A   )
 NUMBER OF VALENCE ORBITALS:        6   (    6A   )

 MOLECULE CHANGED: INITIALIZING OCCUPATION AND DUMP RECORDS


 NUCLEAR REPULSION ENERGY    9.00136291

 Basis set:  JKFIT                   
 Basis size:  1104
 Attributes:
 Sphericals:   T
 Basis set:  MP2FIT                  
 Basis size:  1246
 Attributes:
 Sphericals:   T
 Basis set:  RI                      
 Basis size:   730
 Attributes:
 Sphericals:   T
 Basis set:  TDDFT                   
 Basis size:  1246
 Attributes:
 Sphericals:   T

 Eigenvalues of metric

         1 0.139E-05 0.202E-05 0.330E-05 0.430E-05 0.523E-05 0.690E-05 0.871E-05 0.900E-05


 Contracted 2-electron integrals neglected if value below      1.0D-14

 OPERATOR DM      FOR CENTER  0  COORDINATES:    0.000000    0.000000    0.000000


 **********************************************************************************************************************************
 DATASETS  * FILE   NREC   LENGTH (MB)   RECORD NAMES
              1      18       49.80       500      610      700      900      950      970     1000      129      960     1100   
                                          VAR    BASINP    GEOM    SYMINP    ZMAT    AOBASIS   BASIS     P2S    ABASIS      S 
                                         1400     1410     1200     1210     1080     1600     1650     1700   
                                           T        V       H0       H01     AOSYM     SMH    MOLCAS    OPER   

              2       5       24.61       700     1000      520     2100      200   
                                         GEOM     BASIS   MCVARS     RHF    OPTIONS    

 PROGRAMS   *        TOTAL       INT   CCSD(T)    HF-SCF       INT
 CPU TIMES  *     49908.70      0.93  46165.69   1902.80   1839.05
 REAL TIME  *     52248.39 SEC
 DISK USED  *        14.28 GB (local),      540.35 GB (total)
 SF USED    *        13.87 GB
 GA USED    *         0.00 MB       (max)       0.00 MB       (current)
 **********************************************************************************************************************************


 PROGRAM * RHF-SCF (CLOSED SHELL)       Authors: W. Meyer, H.-J. Werner


 NUMBER OF ELECTRONS:       5+    5-    SPACE SYMMETRY=1    SPIN SYMMETRY: Singlet 
 CONVERGENCE THRESHOLDS:    1.00E-08 (Density)    1.00E-11 (Energy)
 MAX. NUMBER OF ITERATIONS:       60
 INTERPOLATION TYPE:            DIIS
 INTERPOLATION STEPS:              2 (START)      1 (STEP)
 LEVEL SHIFTS:                  0.00 (CLOSED)  0.00 (OPEN) 



 Orbital guess generated from atomic densities. Full valence occupancy:    7

 Molecular orbital dump at record        2101.2

 Initial occupancy:   5

 ITERATION    DDIFF          GRAD             ENERGY        2-EL.EN.            DIPOLE MOMENTS         DIIS   ORB.
    1      0.000D+00      0.000D+00       -76.02639313     77.417567   -1.09436   -0.27463    0.24704    0    start
    2      0.000D+00      0.360D-02       -76.05325425     73.760993   -0.63479   -0.15869    0.14351    1    diag
    3      0.131D-02      0.229D-02       -76.06486639     75.386718   -0.74970   -0.18755    0.16944    2    diag
    4      0.494D-03      0.215D-03       -76.06506121     75.295023   -0.74510   -0.18628    0.16844    3    diag
    5      0.625D-04      0.603D-04       -76.06508232     75.309685   -0.74344   -0.18581    0.16808    4    diag
    6      0.200D-04      0.121D-04       -76.06508370     75.308609   -0.74306   -0.18570    0.16800    5    diag
    7      0.527D-05      0.246D-05       -76.06508377     75.308754   -0.74294   -0.18567    0.16798    6    diag
    8      0.142D-05      0.463D-06       -76.06508377     75.308742   -0.74290   -0.18566    0.16797    7    diag
    9      0.321D-06      0.625D-07       -76.06508377     75.308733   -0.74290   -0.18566    0.16797    8    diag
   10      0.520D-07      0.137D-07       -76.06508377     75.308736   -0.74290   -0.18566    0.16797    9    orth
   11      0.889D-08      0.241D-08       -76.06508377     75.308735   -0.74290   -0.18566    0.16797    0    orth

 Final occupancy:   5

 !RHF STATE  1.1 Energy               -76.065083773741
 Nuclear energy                         9.00136291
 One-electron energy                 -122.72081424
 Two-electron energy                   37.65436755
 Virial quotient                       -1.00190129
 !RHF STATE  1.1 Dipole moment         -0.74289593    -0.18565676     0.16796876
 Dipole moment /Debye                  -1.88812943    -0.47186150     0.42690603

 Orbital energies:

         1.1          2.1          3.1          4.1          5.1          6.1          7.1
    -20.567435    -1.342107    -0.707179    -0.580526    -0.508791     0.015357     0.032856


 HOMO      5.1    -0.508791 =     -13.8449eV
 LUMO      6.1     0.015357 =       0.4179eV
 LUMO-HOMO         0.524148 =      14.2628eV


 **********************************************************************************************************************************
 DATASETS  * FILE   NREC   LENGTH (MB)   RECORD NAMES
              1      18       49.80       500      610      700      900      950      970     1000      129      960     1100   
                                          VAR    BASINP    GEOM    SYMINP    ZMAT    AOBASIS   BASIS     P2S    ABASIS      S 
                                         1400     1410     1200     1210     1080     1600     1650     1700   
                                           T        V       H0       H01     AOSYM     SMH    MOLCAS    OPER   

              2       6       38.39       700     1000      520     2100      200     2101   
                                         GEOM     BASIS   MCVARS     RHF    OPTIONS    RHF  

 PROGRAMS   *        TOTAL    HF-SCF       INT   CCSD(T)    HF-SCF       INT
 CPU TIMES  *     51911.19   2002.49      0.93  46165.69   1902.80   1839.05
 REAL TIME  *     54402.29 SEC
 DISK USED  *        14.28 GB (local),      540.35 GB (total)
 SF USED    *        13.87 GB
 GA USED    *         0.00 MB       (max)       0.00 MB       (current)
 **********************************************************************************************************************************

 Basis set:  JKFIT                   
 Basis size:  1104
 Attributes:
 Sphericals:   T
 Basis set:  MP2FIT                  
 Basis size:  1246
 Attributes:
 Sphericals:   T
 Basis set:  RI                      
 Basis size:   730
 Attributes:
 Sphericals:   T
 Basis set:  TDDFT                   
 Basis size:  1246
 Attributes:
 Sphericals:   T

 PROGRAM * CCSD (Closed-shell coupled cluster)     Authors: C. Hampel, H.-J. Werner, 1991, M. Deegan, P.J. Knowles, 1992


 Convergence thresholds:  THRVAR = 1.00D-08  THRDEN = 1.00D-10

 CCSD(T)     terms to be evaluated (factor= 1.000)


 Number of core orbitals:           1 (   1 )
 Number of closed-shell orbitals:   4 (   4 )
 Number of external orbitals:     729 ( 729 )

 Molecular orbitals read from record     2101.2  Type=RHF/CANONICAL (state 1.1)

 Number of N-1 electron functions:               4
 Number of N-2 electron functions:              10
 Number of singly external CSFs:              2916
 Number of doubly external CSFs:           4252986
 Total number of CSFs:                     4255903

 Length of J-op  integral file:               0.00 MB
 Length of K-op  integral file:              37.04 MB
 Length of 3-ext integral record:             0.00 MB

 For full I/O caching in triples, increase memory by 535.09 Mwords to 2535.14 Mwords.

 Integral transformation finished. Total CPU:1473.60 sec, npass=  1  Memory used:1010.01 MW

 Reference energy:                    -76.06508377

 MP2 singlet pair energy:              -0.19219228
 MP2 triplet pair energy:              -0.10227666
 MP2 correlation energy:               -0.29446894
 MP2 total energy:                    -76.35955271

 SCS-MP2 correlation energy:           -0.29426954   (PS=  1.200000  PT=  0.333333)
 SCS-MP2 total energy:                -76.35935332

 ITER.      SQ.NORM     CORR.ENERGY   TOTAL ENERGY   ENERGY CHANGE        DEN1      VAR(S)    VAR(P)  DIIS     TIME  TIME/IT
   1      1.06412703    -0.29435775   -76.35944152     0.00011119     0.00605392  0.81D-03  0.10D-02  1  1  1857.48   394.31
   2      1.06769877    -0.29459841   -76.35968218    -0.00024066    -0.00495542  0.16D-04  0.12D-03  2  2  2244.12   397.89
   3      1.06912865    -0.29467795   -76.35976172    -0.00007954    -0.00102519  0.80D-05  0.68D-05  3  3  2630.85   398.89
   4      1.06960990    -0.29467617   -76.35975995     0.00000177    -0.00023454  0.53D-06  0.76D-06  4  4  3016.55   399.21
   5      1.06971602    -0.29467447   -76.35975824     0.00000171    -0.00003260  0.16D-06  0.54D-07  5  5  3402.99   399.63
   6      1.06975172    -0.29467193   -76.35975571     0.00000254    -0.00000775  0.19D-07  0.46D-08  6  6  3789.77   399.74
   7      1.06975968    -0.29467139   -76.35975516     0.00000054    -0.00000074  0.16D-08  0.80D-09  6  1  4176.95   399.87
   8      1.06976154    -0.29467127   -76.35975505     0.00000012    -0.00000010  0.24D-09  0.94D-10  6  2  4564.40   400.04
   9      1.06976223    -0.29467123   -76.35975500     0.00000004     0.00000007  0.19D-10  0.89D-11  6  3  4951.47   400.07
  10      1.06976236    -0.29467122   -76.35975499     0.00000001     0.00000003  0.20D-11  0.12D-11  6  4  5338.46   400.26
  11      1.06976236    -0.29467122   -76.35975500    -0.00000000     0.00000002  0.45D-12  0.15D-12  6  5  5724.06   400.13
  12      1.06976236    -0.29467122   -76.35975500    -0.00000000     0.00000001  0.78D-13  0.24D-13  6  6  6109.91   400.17
  13      1.06976236    -0.29467122   -76.35975500    -0.00000000     0.00000000  0.15D-13  0.44D-14  6  1  6495.08   400.15
  14      1.06976236    -0.29467122   -76.35975500    -0.00000000     0.00000000  0.17D-14  0.70D-15  6  2  6880.22   400.12
  15      1.06976236    -0.29467122   -76.35975500    -0.00000000     0.00000000  0.20D-15  0.12D-15  6  3  7267.79   400.19
  16      1.06976236    -0.29467122   -76.35975500    -0.00000000    -0.00000000  0.46D-16  0.19D-16  6  4  7654.59   400.27

 Norm of t1 vector:      0.03758967      S-energy:    -0.00000000      T1 diagnostic:  0.00939742
                                                                       D1 diagnostic:  0.01942986


 Total CPU time for triples:   3485.79 sec


 RESULTS
 =======

  Reference energy                    -76.065083773742
  CCSD singlet pair energy             -0.204258340809
  CCSD triplet pair energy             -0.090412882644
  CCSD correlation energy              -0.294671224043

  Triples (T) contribution             -0.009867151238
  Total correlation energy             -0.304538375282

  CCSD total energy                   -76.359754997785
  CCSD[T] energy                      -76.369935077630
  CCSD-T energy                       -76.369477121917
 !CCSD(T) total energy                -76.369622149023

 Timing summary (sec):

 STEP                 CPU(USER)    SYS     CPU(TOT)    WALL
 Transformation       1475.49     38.34   1513.83   1515.46
 CCSD iterations      6179.47    204.17   6383.64   6405.26
 Triples              3485.79     62.69   3548.48   3555.82

 Program statistics:

 Available memory in ccsd:              1999999921
 Min. memory needed in ccsd:              19268142
 Max. memory used in ccsd:                22427508
 Max. memory used in cckext:              14646566 (16 integral passes)



 **********************************************************************************************************************************
 DATASETS  * FILE   NREC   LENGTH (MB)   RECORD NAMES
              1      19     6330.40       500      610      700      900      950      970     1000      129      960     1100   
                                          VAR    BASINP    GEOM    SYMINP    ZMAT    AOBASIS   BASIS     P2S    ABASIS      S 
                                         1400     1410     1200     1210     1080     1600     1650     1700     1380   
                                           T        V       H0       H01     AOSYM     SMH    MOLCAS    OPER     JKOP   

              2       6       38.39       700     1000      520     2100      200     2101   
                                         GEOM     BASIS   MCVARS     RHF    OPTIONS    RHF  

 PROGRAMS   *        TOTAL   CCSD(T)    HF-SCF       INT   CCSD(T)    HF-SCF       INT
 CPU TIMES  *     63052.23  11141.04   2002.49      0.93  46165.69   1902.80   1839.05
 REAL TIME  *     65879.53 SEC
 DISK USED  *        14.28 GB (local),      540.35 GB (total)
 SF USED    *        13.87 GB
 GA USED    *         0.00 MB       (max)       0.00 MB       (current)
 **********************************************************************************************************************************

 Running procedure: SET_MONOMER2

 Dummy atoms: O8  H15  H16


 Recomputing one-electron integrals since nuclear charges changed


 PROGRAM * SEWARD (Integral evaluation for generally contracted gaussian basis sets)     Author: Roland Lindh, 1990

 Geometry written to block  1 of record 700


 Point group  C1  



 ATOMIC COORDINATES

 NR  ATOM    CHARGE       X              Y              Z

   1  O8      0.00   -4.613766333    5.431639800   -4.129996445
   2  H15     0.00   -5.898213180    6.513508006   -3.364279420
   3  H16     0.00   -5.466221788    3.814790128   -4.412888446
   4  C1      6.00   -6.193010455    2.801518980    2.403542658
   5  H41     1.00   -4.656285171    1.699997622    3.119937832
   6  H42     1.00   -5.973046335    4.726205038    2.982932688
   7  H43     1.00   -7.940251230    2.077186956    3.118237078
   8  H44     1.00   -6.176569838    2.685300823    0.384937212

 Bond lengths in Bohr (Angstrom)

 1-2  1.845688241  1-3  1.849570504  4-5  2.021904040  4-6  2.022002335  4-7  2.021953343
     ( 0.976696155)     ( 0.978750561)     ( 1.069945541)     ( 1.069997556)     ( 1.069971630)

 4-8  2.022015060
     ( 1.070004290)

 Bond angles

  2-1-3  104.78050181   5-4-6  109.53398059   5-4-7  109.65604535   5-4-8  108.43490854

  6-4-7  109.49436728   6-4-8  109.86987750   7-4-8  109.83468330

 NUCLEAR CHARGE:                   10
 NUMBER OF PRIMITIVE AOS:        1046
 NUMBER OF SYMMETRY AOS:          786
 NUMBER OF CONTRACTIONS:          734   (  734A   )
 NUMBER OF CORE ORBITALS:           1   (    1A   )
 NUMBER OF VALENCE ORBITALS:        8   (    8A   )

 MOLECULE CHANGED: INITIALIZING OCCUPATION AND DUMP RECORDS


 NUCLEAR REPULSION ENERGY   13.68681606

 Basis set:  JKFIT                   
 Basis size:  1104
 Attributes:
 Sphericals:   T
 Basis set:  MP2FIT                  
 Basis size:  1246
 Attributes:
 Sphericals:   T
 Basis set:  RI                      
 Basis size:   730
 Attributes:
 Sphericals:   T
 Basis set:  TDDFT                   
 Basis size:  1246
 Attributes:
 Sphericals:   T

 Eigenvalues of metric

         1 0.139E-05 0.202E-05 0.330E-05 0.430E-05 0.523E-05 0.690E-05 0.871E-05 0.900E-05


 Contracted 2-electron integrals neglected if value below      1.0D-14

 OPERATOR DM      FOR CENTER  0  COORDINATES:    0.000000    0.000000    0.000000


 **********************************************************************************************************************************
 DATASETS  * FILE   NREC   LENGTH (MB)   RECORD NAMES
              1      18       49.80       500      610      700      900      950      970     1000      129      960     1100   
                                          VAR    BASINP    GEOM    SYMINP    ZMAT    AOBASIS   BASIS     P2S    ABASIS      S 
                                         1400     1410     1200     1210     1080     1600     1650     1700   
                                           T        V       H0       H01     AOSYM     SMH    MOLCAS    OPER   

              2       6       38.39       700     1000      520     2100      200     2101   
                                         GEOM     BASIS   MCVARS     RHF    OPTIONS    RHF  

 PROGRAMS   *        TOTAL       INT   CCSD(T)    HF-SCF       INT   CCSD(T)    HF-SCF       INT
 CPU TIMES  *     63053.15      0.91  11141.04   2002.49      0.93  46165.69   1902.80   1839.05
 REAL TIME  *     65881.27 SEC
 DISK USED  *        14.28 GB (local),      540.35 GB (total)
 SF USED    *        13.87 GB
 GA USED    *         0.00 MB       (max)       0.00 MB       (current)
 **********************************************************************************************************************************


 PROGRAM * RHF-SCF (CLOSED SHELL)       Authors: W. Meyer, H.-J. Werner


 NUMBER OF ELECTRONS:       5+    5-    SPACE SYMMETRY=1    SPIN SYMMETRY: Singlet 
 CONVERGENCE THRESHOLDS:    1.00E-08 (Density)    1.00E-11 (Energy)
 MAX. NUMBER OF ITERATIONS:       60
 INTERPOLATION TYPE:            DIIS
 INTERPOLATION STEPS:              2 (START)      1 (STEP)
 LEVEL SHIFTS:                  0.00 (CLOSED)  0.00 (OPEN) 



 Orbital guess generated from atomic densities. Full valence occupancy:    9

 Molecular orbital dump at record        2102.2

 Initial occupancy:   5

 ITERATION    DDIFF          GRAD             ENERGY        2-EL.EN.            DIPOLE MOMENTS         DIIS   ORB.
    1      0.000D+00      0.000D+00       -40.19676551     53.509906    0.00411   -0.00276   -0.00130    0    start
    2      0.000D+00      0.198D-02       -40.21405770     52.218482    0.00128   -0.00087   -0.00038    1    diag
    3      0.949D-03      0.769D-03       -40.21634113     52.673989    0.00182   -0.00123   -0.00055    2    diag
    4      0.262D-03      0.192D-03       -40.21666146     52.619252    0.00162   -0.00110   -0.00048    3    diag
    5      0.104D-03      0.248D-04       -40.21666694     52.621410    0.00159   -0.00108   -0.00047    4    diag
    6      0.356D-04      0.204D-05       -40.21666698     52.621538    0.00159   -0.00108   -0.00047    5    diag
    7      0.597D-05      0.166D-06       -40.21666698     52.621500    0.00159   -0.00108   -0.00047    6    diag
    8      0.333D-06      0.136D-07       -40.21666698     52.621501    0.00159   -0.00108   -0.00047    7    diag
    9      0.584D-07      0.167D-08       -40.21666698     52.621501    0.00159   -0.00108   -0.00047    8    diag
   10      0.104D-07      0.465D-09       -40.21666698     52.621501    0.00159   -0.00108   -0.00047    9    orth
   11      0.111D-08      0.667D-10       -40.21666698     52.621501    0.00159   -0.00108   -0.00047    0    orth

 Final occupancy:   5

 !RHF STATE  1.1 Energy               -40.216666981166
 Nuclear energy                        13.68681606
 One-electron energy                  -80.21423329
 Two-electron energy                   26.31075026
 Virial quotient                       -0.99832812
 !RHF STATE  1.1 Dipole moment          0.00158665    -0.00107865    -0.00047072
 Dipole moment /Debye                   0.00403260    -0.00274148    -0.00119638

 Orbital energies:

         1.1          2.1          3.1          4.1          5.1          6.1          7.1
    -11.196017    -0.950605    -0.551931    -0.549996    -0.547818     0.021240     0.034268


 HOMO      5.1    -0.547818 =     -14.9069eV
 LUMO      6.1     0.021240 =       0.5780eV
 LUMO-HOMO         0.569057 =      15.4848eV


 **********************************************************************************************************************************
 DATASETS  * FILE   NREC   LENGTH (MB)   RECORD NAMES
              1      18       49.80       500      610      700      900      950      970     1000      129      960     1100   
                                          VAR    BASINP    GEOM    SYMINP    ZMAT    AOBASIS   BASIS     P2S    ABASIS      S 
                                         1400     1410     1200     1210     1080     1600     1650     1700   
                                           T        V       H0       H01     AOSYM     SMH    MOLCAS    OPER   

              2       7       62.47       700     1000      520     2100      200     2101     2102   
                                         GEOM     BASIS   MCVARS     RHF    OPTIONS    RHF      RHF  

 PROGRAMS   *        TOTAL    HF-SCF       INT   CCSD(T)    HF-SCF       INT   CCSD(T)    HF-SCF       INT
 CPU TIMES  *     65059.49   2006.34      0.91  11141.04   2002.49      0.93  46165.69   1902.80   1839.05
 REAL TIME  *     68030.34 SEC
 DISK USED  *        14.28 GB (local),      540.35 GB (total)
 SF USED    *        13.87 GB
 GA USED    *         0.00 MB       (max)       0.00 MB       (current)
 **********************************************************************************************************************************

 Basis set:  JKFIT                   
 Basis size:  1104
 Attributes:
 Sphericals:   T
 Basis set:  MP2FIT                  
 Basis size:  1246
 Attributes:
 Sphericals:   T
 Basis set:  RI                      
 Basis size:   730
 Attributes:
 Sphericals:   T
 Basis set:  TDDFT                   
 Basis size:  1246
 Attributes:
 Sphericals:   T

 PROGRAM * CCSD (Closed-shell coupled cluster)     Authors: C. Hampel, H.-J. Werner, 1991, M. Deegan, P.J. Knowles, 1992


 Convergence thresholds:  THRVAR = 1.00D-08  THRDEN = 1.00D-10

 CCSD(T)     terms to be evaluated (factor= 1.000)


 Number of core orbitals:           1 (   1 )
 Number of closed-shell orbitals:   4 (   4 )
 Number of external orbitals:     729 ( 729 )

 Molecular orbitals read from record     2102.2  Type=RHF/CANONICAL (state 1.1)

 Number of N-1 electron functions:               4
 Number of N-2 electron functions:              10
 Number of singly external CSFs:              2916
 Number of doubly external CSFs:           4252986
 Total number of CSFs:                     4255903

 Length of J-op  integral file:               0.00 MB
 Length of K-op  integral file:              37.04 MB
 Length of 3-ext integral record:             0.00 MB

 For full I/O caching in triples, increase memory by 535.09 Mwords to 2535.14 Mwords.

 Integral transformation finished. Total CPU:1443.37 sec, npass=  1  Memory used:1010.01 MW

 Reference energy:                    -40.21666698

 MP2 singlet pair energy:              -0.15788117
 MP2 triplet pair energy:              -0.05682313
 MP2 correlation energy:               -0.21470430
 MP2 total energy:                    -40.43137128

 SCS-MP2 correlation energy:           -0.22481402   (PS=  1.200000  PT=  0.333333)
 SCS-MP2 total energy:                -40.44148100

 ITER.      SQ.NORM     CORR.ENERGY   TOTAL ENERGY   ENERGY CHANGE        DEN1      VAR(S)    VAR(P)  DIIS     TIME  TIME/IT
   1      1.07073086    -0.22924493   -40.44591191    -0.01454063    -0.00880826  0.58D-03  0.96D-03  1  1  1826.89   393.74
   2      1.07565249    -0.23033966   -40.44700664    -0.00109473    -0.00537197  0.15D-04  0.11D-03  2  2  2212.14   397.12
   3      1.07738928    -0.23038015   -40.44704713    -0.00004050    -0.00128272  0.20D-05  0.63D-05  3  3  2598.04   398.31
   4      1.07777970    -0.23038188   -40.44704886    -0.00000173    -0.00020103  0.14D-06  0.36D-06  4  4  2982.87   398.48
   5      1.07783411    -0.23038564   -40.44705262    -0.00000376    -0.00001100  0.13D-07  0.24D-07  5  5  3368.64   398.91
   6      1.07784424    -0.23038433   -40.44705132     0.00000130    -0.00000412  0.80D-09  0.17D-08  6  6  3752.82   398.80
   7      1.07784559    -0.23038395   -40.44705093     0.00000038    -0.00000075  0.53D-10  0.13D-09  6  1  4138.06   398.81
   8      1.07784551    -0.23038401   -40.44705099    -0.00000005     0.00000024  0.58D-11  0.84D-11  6  3  4523.54   398.88
   9      1.07784565    -0.23038399   -40.44705097     0.00000002    -0.00000009  0.42D-12  0.61D-12  6  2  4907.49   398.83
  10      1.07784565    -0.23038399   -40.44705097     0.00000000     0.00000001  0.57D-13  0.64D-13  6  4  5291.57   398.78
  11      1.07784565    -0.23038399   -40.44705097     0.00000000     0.00000000  0.57D-14  0.64D-14  6  5  5676.34   398.76
  12      1.07784565    -0.23038399   -40.44705097     0.00000000     0.00000000  0.18D-15  0.67D-15  6  6  6061.88   398.93
  13      1.07784565    -0.23038399   -40.44705097    -0.00000000     0.00000000  0.18D-16  0.80D-16  6  1  6447.89   399.00
  14      1.07784565    -0.23038399   -40.44705097    -0.00000000     0.00000000  0.47D-17  0.19D-16  6  3  6832.30   398.90

 Norm of t1 vector:      0.03186039      S-energy:    -0.00000000      T1 diagnostic:  0.00796510
                                                                       D1 diagnostic:  0.01279409

 Total CPU time for triples:   3487.36 sec


 RESULTS
 =======

  Reference energy                    -40.216666981166
  CCSD singlet pair energy             -0.175401692420
  CCSD triplet pair energy             -0.054982294749
  CCSD correlation energy              -0.230383987175

  Triples (T) contribution             -0.007018886601
  Total correlation energy             -0.237402873776

  CCSD total energy                   -40.447050968341
  CCSD[T] energy                      -40.454293694973
  CCSD-T energy                       -40.454002899679
 !CCSD(T) total energy                -40.454069854942

 Timing summary (sec):

 STEP                 CPU(USER)    SYS     CPU(TOT)    WALL
 Transformation       1445.27     36.00   1481.27   1483.55
 CCSD iterations      5387.41    178.22   5565.63   5585.45
 Triples              3487.36     61.57   3548.93   3556.01

 Program statistics:

 Available memory in ccsd:              1999999916
 Min. memory needed in ccsd:              19268142
 Max. memory used in ccsd:                22427508
 Max. memory used in cckext:              14646566 (14 integral passes)



 **********************************************************************************************************************************
 DATASETS  * FILE   NREC   LENGTH (MB)   RECORD NAMES
              1      19     6330.40       500      610      700      900      950      970     1000      129      960     1100   
                                          VAR    BASINP    GEOM    SYMINP    ZMAT    AOBASIS   BASIS     P2S    ABASIS      S 
                                         1400     1410     1200     1210     1080     1600     1650     1700     1380   
                                           T        V       H0       H01     AOSYM     SMH    MOLCAS    OPER     JKOP   

              2       7       62.47       700     1000      520     2100      200     2101     2102   
                                         GEOM     BASIS   MCVARS     RHF    OPTIONS    RHF      RHF  

 PROGRAMS   *        TOTAL   CCSD(T)    HF-SCF       INT   CCSD(T)    HF-SCF       INT   CCSD(T)    HF-SCF       INT
 CPU TIMES  *     75379.81  10320.32   2006.34      0.91  11141.04   2002.49      0.93  46165.69   1902.80   1839.05
 REAL TIME  *     78656.06 SEC
 DISK USED  *        14.28 GB (local),      540.35 GB (total)
 SF USED    *        13.87 GB
 GA USED    *         0.00 MB       (max)       0.00 MB       (current)
 **********************************************************************************************************************************
 Molecular orbitals read from record     2102.2  Type=RHF/CANONICAL (state 1.1)
 Occupation numbers read from record     2102.2  Type=RHF/RHF (state 1.1)
 Orbital energies read from record       2102.2  Type=RHF/CANONICAL (state 1.1)
 Redundancy group numbers read from rec  2102.2  Type=RHF/RHF (state 1.1)

 CCSD(T)/aug-cc-pV5Z energy=    -40.454069854942

         CCSD(T)          HF-SCF         CCSD(T)          HF-SCF         CCSD(T)          HF-SCF
    -40.45406985    -40.21666698    -76.36962215    -76.06508377   -116.82396251   -116.28098331
 **********************************************************************************************************************************
 Molpro calculation terminated
