
 Primary working directories    : /scratch/klimes/401060/molpro.6tTDXNOVx6
 Secondary working directories  : /scratch/klimes/401060/molpro.6tTDXNOVx6
 Wavefunction directory         : /scratch/klimes/401060/
 Main file repository           : /scratch/klimes/401060/molpro.6tTDXNOVx6/

 id        : karlovklimes

 Nodes                      nprocs
 nc-20.cc.karlov.mff.cuni.cz    4

 Using customized tuning parameters: mindgm=1; mindgv=20; mindgc=4; mindgr=1; noblas=0; minvec=7
 default implementation of scratch files=sf  


 Variables initialized (930), CPU time= 0.01 sec
                                                                                 !gdirect
 memory,2000,m
 gthresh,orbital=1d-10,energy=1d-10,grid=1d-8
 
 symmetry,nosym
 angstrom
 geometry={
 O9        -3.518900000000     -2.419500000000      0.991300000000
 H17        -3.388900000000     -3.371800000000      0.893300000000
 H18        -2.990700000000     -2.010200000000      0.231000000000
 C1        -3.277200000000      1.482500000000      1.271900000000
 H41        -2.464000000000      0.899600000000      1.651000000000
 H42        -3.160800000000      2.501000000000      1.578500000000
 H43        -4.201800000000      1.099200000000      1.650100000000
 H44        -3.268500000000      1.421000000000      0.203700000000
 }
 
 nkerna=1
 nkernb=1
 
 gf=0
 sing=1
 thrdum=1d-4
 gridthr=1d-8
 
 basis={
 set,orbital
 default,av5z
 set,jkfit
 default,av5z/jkfit
 set,mp2fit
 default,av5z/mp2fit
 set,ri
 default,av5z/optri
 set,tddft
 default,av5z/mp2fit
 }
 
 proc set_monomer1
 dummy,4,5,6,7,8
 endproc
 
 proc set_monomer2
 dummy,1,2,3
 endproc
 
                                                                                 !1234 energy
 {hf,accu=1.d-16}
 ccsd(t)
 
 set_monomer1
 {hf,accu=1.d-16}
 ccsd(t)
 
 set_monomer2
 {hf,accu=1.d-16}
 ccsd(t)
 
 Commands  initialized (760), CPU time= 0.00 sec, 617 directives.
 Default parameters read. Elapsed time= 0.22 sec

 Checking input...
 Passed
1


                                         ***  PROGRAM SYSTEM MOLPRO  ***
                                       Copyright, TTI GmbH Stuttgart, 2015
                                    Version 2019.1 linked Jan 14 2019 13:09:19


 **********************************************************************************************************************************
 LABEL *                                                                                 
  64 bit mpp version                                                                     DATE: 14-Mar-20          TIME: 12:34:15  
 **********************************************************************************************************************************

 SHA1:             d688ac825633d238f2093ded1675ba87ccd55965
 **********************************************************************************************************************************

 THRESHOLDS:

 ZERO    =  1.00D-12  ONEINT  =  1.00D-12  TWOINT  =  1.00D-11  PREFAC  =  1.00D-14  XXXXXX  =  1.00D-09  EORDER  =  1.00D-04
 ENERGY  =  1.00D-10  ETEST   =  0.00D+00  EDENS   =  0.00D+00  THRDEDEF=  1.00D-06  GRADIENT=  1.00D-02  STEP    =  1.00D-03
 ORBITAL =  1.00D-10  CIVEC   =  1.00D-05  COEFF   =  1.00D-04  PRINTCI =  5.00D-02  PUNCHCI =  9.90D+01  OPTGRAD =  3.00D-04
 OPTENERG=  1.00D-06  OPTSTEP =  3.00D-04  THRGRAD =  1.00D-10  COMPRESS=  1.00D-11  VARMIN  =  1.00D-07  VARMAX  =  1.00D-03
 THRDOUB =  0.00D+00  THRDIV  =  1.00D-05  THRRED  =  1.00D-07  THRPSP  =  1.00D+00  THRDC   =  1.00D-10  THRCS   =  1.00D-10
 THRNRM  =  1.00D-08  THREQ   =  0.00D+00  THRDE   =  1.00D+00  THRREF  =  1.00D-05  SPARFAC =  1.00D+00  THRDLP  =  1.00D-07
 THRDIA  =  1.00D-10  THRDLS  =  1.00D-07  THRGPS  =  0.00D+00  THRKEX  =  0.00D+00  THRDIS  =  2.00D-01  THRVAR  =  1.00D-10
 THRLOC  =  1.00D-06  THRGAP  =  1.00D-06  THRLOCT = -1.00D+00  THRGAPT = -1.00D+00  THRORB  =  1.00D-06  THRMLTP =  0.00D+00
 THRCPQCI=  1.00D-10  KEXTA   =  0.00D+00  THRCOARS=  0.00D+00  SYMTOL  =  1.00D-06  GRADTOL =  1.00D-06  THROVL  =  1.00D-08
 THRORTH =  1.00D-08  GRID    =  1.00D-08  GRIDMAX =  1.00D-03  DTMAX   =  0.00D+00  THROCCDE=  1.00D-01  THROCCDE=  1.00D-01
 THRPRINT=  2.50D-01


 Variable memory set to 2000000000 words,  buffer space 

 ZSYMEL=NOSYM
 ZUNIT=ANG


Geometry recognized as XYZ

 SETTING NKERNA         =         1.00000000                                  
 SETTING NKERNB         =         1.00000000                                  
 SETTING GF             =     0.00000000D+00                                  
 SETTING SING           =         1.00000000                                  
 SETTING THRDUM         =     1.00000000D-04                                  
 SETTING GRIDTHR        =     1.00000000D-08                                  
 SETTING BASIS          =    AV5Z


 Recomputing integrals since basis changed


 Using spherical harmonics

 Library entry O      S aug-cc-pV5Z          selected for orbital group  1
 Library entry O      P aug-cc-pV5Z          selected for orbital group  1
 Library entry O      D aug-cc-pV5Z          selected for orbital group  1
 Library entry O      F aug-cc-pV5Z          selected for orbital group  1
 Library entry O      G aug-cc-pV5Z          selected for orbital group  1
 Library entry O      H aug-cc-pV5Z          selected for orbital group  1
 Library entry H      S aug-cc-pV5Z          selected for orbital group  2
 Library entry H      P aug-cc-pV5Z          selected for orbital group  2
 Library entry H      D aug-cc-pV5Z          selected for orbital group  2
 Library entry H      F aug-cc-pV5Z          selected for orbital group  2
 Library entry H      G aug-cc-pV5Z          selected for orbital group  2
 Library entry C      S aug-cc-pV5Z          selected for orbital group  3
 Library entry C      P aug-cc-pV5Z          selected for orbital group  3
 Library entry C      D aug-cc-pV5Z          selected for orbital group  3
 Library entry C      F aug-cc-pV5Z          selected for orbital group  3
 Library entry C      G aug-cc-pV5Z          selected for orbital group  3
 Library entry C      H aug-cc-pV5Z          selected for orbital group  3


 PROGRAM * SEWARD (Integral evaluation for generally contracted gaussian basis sets)     Author: Roland Lindh, 1990

 Geometry written to block  1 of record 700


 Point group  C1  



 ATOMIC COORDINATES

 NR  ATOM    CHARGE       X              Y              Z

   1  O9      8.00   -6.649757260   -4.572192358    1.873285507
   2  H17     1.00   -6.404092864   -6.371778547    1.688092347
   3  H18     1.00   -5.651603921   -3.798727456    0.436526735
   4  C1      6.00   -6.193010455    2.801518980    2.403542658
   5  H41     1.00   -4.656285171    1.699997622    3.119937832
   6  H42     1.00   -5.973046335    4.726205038    2.982932688
   7  H43     1.00   -7.940251230    2.077186956    3.118237078
   8  H44     1.00   -6.176569838    2.685300823    0.384937212

 Bond lengths in Bohr (Angstrom)

 1-2  1.825693827  1-3  1.912807835  4-5  2.021904040  4-6  2.022002335  4-7  2.021953343
     ( 0.966115568)     ( 1.012214315)     ( 1.069945541)     ( 1.069997556)     ( 1.069971630)

 4-8  2.022015060
     ( 1.070004290)

 Bond angles

  2-1-3  104.60595341   5-4-6  109.53398059   5-4-7  109.65604535   5-4-8  108.43490854

  6-4-7  109.49436728   6-4-8  109.86987750   7-4-8  109.83468330

 NUCLEAR CHARGE:                   20
 NUMBER OF PRIMITIVE AOS:        1046
 NUMBER OF SYMMETRY AOS:          786
 NUMBER OF CONTRACTIONS:          734   (  734A   )
 NUMBER OF CORE ORBITALS:           2   (    2A   )
 NUMBER OF VALENCE ORBITALS:       14   (   14A   )


 NUCLEAR REPULSION ENERGY   35.88176990


 Basis set:  JKFIT                   
 Basis size:  1104
 Attributes:
 Sphericals:   T
 Basis set:  MP2FIT                  
 Basis size:  1246
 Attributes:
 Sphericals:   T
 Basis set:  RI                      
 Basis size:   730
 Attributes:
 Sphericals:   T
 Basis set:  TDDFT                   
 Basis size:  1246
 Attributes:
 Sphericals:   T

 **********************************************************************************************************************************


 Eigenvalues of metric

         1 0.143E-05 0.189E-05 0.353E-05 0.526E-05 0.537E-05 0.816E-05 0.841E-05 0.849E-05


 Contracted 2-electron integrals neglected if value below      1.0D-14
 AO integral compression algorithm  1   Integral accuracy      1.0D-14

     142660.862 MB (compressed) written to integral file ( 45.2%)

     Node minimum: 33436.205 MB, node maximum: 37851.496 MB


 NUMBER OF SORTED TWO-ELECTRON INTEGRALS: 9095363064.     BUFFER LENGTH:  32768
 NUMBER OF SEGMENTS: 190  SEGMENT LENGTH:   47999780      RECORD LENGTH: 131072

 Memory used in sort:      48.16 MW

 SORT1 READ 39467791461. AND WROTE  6554290869. INTEGRALS IN  75109 RECORDS. CPU TIME:   707.77 SEC, REAL TIME:   828.84 SEC
 SORT2 READ 26223804301. AND WROTE 36381317385. INTEGRALS IN 522876 RECORDS. CPU TIME:    96.78 SEC, REAL TIME:   502.38 SEC

 Node minimum:  9095228192.  Node maximum:  9095430501. integrals

 OPERATOR DM      FOR CENTER  0  COORDINATES:    0.000000    0.000000    0.000000


 **********************************************************************************************************************************
 DATASETS  * FILE   NREC   LENGTH (MB)   RECORD NAMES
              1      18       49.80       500      610      700      900      950      970     1000      129      960     1100   
                                          VAR    BASINP    GEOM    SYMINP    ZMAT    AOBASIS   BASIS     P2S    ABASIS      S 
                                         1400     1410     1200     1210     1080     1600     1650     1700   
                                           T        V       H0       H01     AOSYM     SMH    MOLCAS    OPER   

 PROGRAMS   *        TOTAL       INT
 CPU TIMES  *      1747.85   1747.65
 REAL TIME  *      2331.75 SEC
 DISK USED  *        50.44 MB (local),      457.19 GB (total)
 GA USED    *         0.00 MB       (max)       0.00 MB       (current)
 **********************************************************************************************************************************


 PROGRAM * RHF-SCF (CLOSED SHELL)       Authors: W. Meyer, H.-J. Werner


 NUMBER OF ELECTRONS:      10+   10-    SPACE SYMMETRY=1    SPIN SYMMETRY: Singlet 
 CONVERGENCE THRESHOLDS:    1.00E-08 (Density)    1.00E-11 (Energy)
 MAX. NUMBER OF ITERATIONS:       60
 INTERPOLATION TYPE:            DIIS
 INTERPOLATION STEPS:              2 (START)      1 (STEP)
 LEVEL SHIFTS:                  0.00 (CLOSED)  0.00 (OPEN) 



 Orbital guess generated from atomic densities. Full valence occupancy:   16

 Molecular orbital dump at record        2100.2

 Initial occupancy:  10

 ITERATION    DDIFF          GRAD             ENERGY        2-EL.EN.            DIPOLE MOMENTS         DIIS   ORB.
    1      0.000D+00      0.000D+00      -116.21967105    157.547982    0.64546   -0.51554   -0.83903    0    start
    2      0.000D+00      0.292D-02      -116.26401780    152.451492    0.34003   -0.32989   -0.44339    1    diag
    3      0.162D-02      0.174D-02      -116.27820039    154.573774    0.41829   -0.38031   -0.54290    2    diag
    4      0.562D-03      0.256D-03      -116.27887257    154.460072    0.41148   -0.37741   -0.53311    3    diag
    5      0.122D-03      0.761D-04      -116.27894507    154.455064    0.41075   -0.37830   -0.53198    4    diag
    6      0.493D-04      0.185D-04      -116.27894920    154.460707    0.41017   -0.37831   -0.53114    5    diag
    7      0.177D-04      0.389D-05      -116.27894947    154.458973    0.41014   -0.37841   -0.53109    6    diag
    8      0.561D-05      0.103D-05      -116.27894950    154.459166    0.41008   -0.37843   -0.53101    7    diag
    9      0.136D-05      0.234D-06      -116.27894950    154.459139    0.41006   -0.37843   -0.53099    8    diag
   10      0.311D-06      0.270D-07      -116.27894950    154.459139    0.41006   -0.37843   -0.53099    9    orth
   11      0.669D-07      0.645D-08      -116.27894950    154.459141    0.41006   -0.37843   -0.53099    9    diag
   12      0.550D-08      0.166D-08      -116.27894950    154.459141    0.41006   -0.37843   -0.53099    0    orth

 Final occupancy:  10

 !RHF STATE  1.1 Energy              -116.278949496369
 Nuclear energy                        35.88176990
 One-electron energy                 -229.39028975
 Two-electron energy                   77.22957036
 Virial quotient                       -1.00095192
 !RHF STATE  1.1 Dipole moment          0.41006156    -0.37842922    -0.53099221
 Dipole moment /Debye                   1.04220425    -0.96180813    -1.34955917

 Orbital energies:

         1.1          2.1          3.1          4.1          5.1          6.1          7.1          8.1          9.1         10.1
    -20.569052   -11.191276    -1.336927    -0.945911    -0.700785    -0.578361    -0.547780    -0.544474    -0.543264    -0.507744

        11.1         12.1
      0.020491     0.030323


 HOMO     10.1    -0.507744 =     -13.8164eV
 LUMO     11.1     0.020491 =       0.5576eV
 LUMO-HOMO         0.528235 =      14.3740eV


 **********************************************************************************************************************************
 DATASETS  * FILE   NREC   LENGTH (MB)   RECORD NAMES
              1      18       49.80       500      610      700      900      950      970     1000      129      960     1100   
                                          VAR    BASINP    GEOM    SYMINP    ZMAT    AOBASIS   BASIS     P2S    ABASIS      S 
                                         1400     1410     1200     1210     1080     1600     1650     1700   
                                           T        V       H0       H01     AOSYM     SMH    MOLCAS    OPER   

              2       4       13.79       700     1000      520     2100   
                                         GEOM     BASIS   MCVARS     RHF  

 PROGRAMS   *        TOTAL    HF-SCF       INT
 CPU TIMES  *      3672.99   1925.14   1747.65
 REAL TIME  *      4659.73 SEC
 DISK USED  *       102.61 MB (local),      457.40 GB (total)
 SF USED    *         2.16 MB
 GA USED    *         0.00 MB       (max)       0.00 MB       (current)
 **********************************************************************************************************************************

 Basis set:  JKFIT                   
 Basis size:  1104
 Attributes:
 Sphericals:   T
 Basis set:  MP2FIT                  
 Basis size:  1246
 Attributes:
 Sphericals:   T
 Basis set:  RI                      
 Basis size:   730
 Attributes:
 Sphericals:   T
 Basis set:  TDDFT                   
 Basis size:  1246
 Attributes:
 Sphericals:   T

 PROGRAM * CCSD (Closed-shell coupled cluster)     Authors: C. Hampel, H.-J. Werner, 1991, M. Deegan, P.J. Knowles, 1992


 Convergence thresholds:  THRVAR = 1.00D-08  THRDEN = 1.00D-10

 CCSD(T)     terms to be evaluated (factor= 1.000)


 Number of core orbitals:           2 (   2 )
 Number of closed-shell orbitals:   8 (   8 )
 Number of external orbitals:     724 ( 724 )

 Molecular orbitals read from record     2100.2  Type=RHF/CANONICAL (state 1.1)

 Number of N-1 electron functions:               8
 Number of N-2 electron functions:              36
 Number of singly external CSFs:              5792
 Number of doubly external CSFs:          16776528
 Total number of CSFs:                    16782321

 Length of J-op  integral file:               0.00 MB
 Length of K-op  integral file:              37.04 MB
 Length of 3-ext integral record:             0.00 MB

 For full I/O caching in triples, increase memory by 2034.74 Mwords to 4034.79 Mwords.

 Integral transformation finished. Total CPU:2642.14 sec, npass=  1  Memory used:1826.26 MW

 Reference energy:                   -116.27894950

 MP2 singlet pair energy:              -0.35077718
 MP2 triplet pair energy:              -0.15979506
 MP2 correlation energy:               -0.51057224
 MP2 total energy:                   -116.78952173

 SCS-MP2 correlation energy:           -0.52036065   (PS=  1.200000  PT=  0.333333)
 SCS-MP2 total energy:               -116.79931015

 ITER.      SQ.NORM     CORR.ENERGY   TOTAL ENERGY   ENERGY CHANGE        DEN1      VAR(S)    VAR(P)  DIIS     TIME  TIME/IT
   1      1.13582346    -0.52484163  -116.80379113    -0.01426940    -0.00243689  0.14D-02  0.20D-02  1  1  3735.16  1130.25
   2      1.14431389    -0.52617518  -116.80512468    -0.00133355    -0.01033034  0.32D-04  0.26D-03  2  2  4828.90  1138.64
   3      1.14770081    -0.52630939  -116.80525889    -0.00013421    -0.00243557  0.11D-04  0.14D-04  3  3  5923.50  1141.69
   4      1.14863640    -0.52630718  -116.80525667     0.00000222    -0.00047066  0.68D-06  0.13D-05  4  4  7017.98  1143.16
   5      1.14880736    -0.52630904  -116.80525853    -0.00000186    -0.00004617  0.21D-06  0.95D-07  5  5  8112.23  1143.83
   6      1.14885674    -0.52630600  -116.80525549     0.00000304    -0.00001063  0.23D-07  0.78D-08  6  6  9206.22  1144.59
   7      1.14886742    -0.52630472  -116.80525422     0.00000127    -0.00000209  0.21D-08  0.99D-09  6  2 10300.87  1145.03
   8      1.14886988    -0.52630454  -116.80525403     0.00000018    -0.00000010  0.34D-09  0.11D-09  6  1 11395.45  1145.36
   9      1.14887083    -0.52630448  -116.80525398     0.00000006    -0.00000004  0.25D-10  0.16D-10  6  3 12488.25  1145.37
  10      1.14887094    -0.52630449  -116.80525398    -0.00000001     0.00000011  0.27D-11  0.18D-11  6  4 13583.60  1145.60
  11      1.14887091    -0.52630449  -116.80525399    -0.00000001     0.00000007  0.44D-12  0.26D-12  6  5 14676.39  1145.61
  12      1.14887088    -0.52630449  -116.80525399    -0.00000000     0.00000002  0.99D-13  0.34D-13  6  6 15771.23  1145.80
  13      1.14887086    -0.52630450  -116.80525399    -0.00000000     0.00000001  0.19D-13  0.51D-14  6  2 16864.81  1145.91
  14      1.14887085    -0.52630450  -116.80525399    -0.00000000     0.00000000  0.28D-14  0.11D-14  6  1 17958.98  1145.97
  15      1.14887085    -0.52630450  -116.80525399    -0.00000000     0.00000000  0.35D-15  0.17D-15  6  3 19052.26  1145.98
  16      1.14887085    -0.52630450  -116.80525399    -0.00000000    -0.00000000  0.60D-16  0.29D-16  6  4 20146.22  1146.05
  17      1.14887085    -0.52630450  -116.80525399     0.00000000    -0.00000000  0.21D-16  0.86D-17  6  5 21240.29  1146.12

 Norm of t1 vector:      0.05028288      S-energy:    -0.00000000      T1 diagnostic:  0.00888884
                                                                       D1 diagnostic:  0.02012104

   CPU time for triples:   2767.89 sec for i =  1 -  3 /  8 (~   6.2 % done)
   CPU time for triples:   4662.89 sec for i =  4 -  5 /  8 (~  26.8 % done)
   CPU time for triples:   5602.48 sec for i =  6 -  6 /  8 (~  44.6 % done)
   CPU time for triples:   5595.81 sec for i =  7 -  7 /  8 (~  68.8 % done)
   CPU time for triples:   7460.63 sec for i =  8 -  8 /  8 (  100.0 % done)

 Total CPU time for triples:  26133.45 sec


 RESULTS
 =======

  Reference energy                   -116.278949496362
  CCSD singlet pair energy             -0.380455139252
  CCSD triplet pair energy             -0.145849357119
  CCSD correlation energy              -0.526304496620

  Triples (T) contribution             -0.017101377945
  Total correlation energy             -0.543405874564

  CCSD total energy                  -116.805253992981
  CCSD[T] energy                     -116.822905601230
  CCSD-T energy                      -116.822136358294
 !CCSD(T) total energy               -116.822355370926

 Timing summary (sec):

 STEP                 CPU(USER)    SYS     CPU(TOT)    WALL
 Transformation       2648.03    125.55   2773.58   2796.76
 CCSD iterations     18592.69    494.12  19086.81  19485.03
 Triples             26133.45   1066.85  27200.30  27236.30

 Program statistics:

 Available memory in ccsd:              1999999734
 Min. memory needed in ccsd:              48755833
 Max. memory used in ccsd:                63342105
 Max. memory used in cckext:              42809278 (17 integral passes)



 **********************************************************************************************************************************
 DATASETS  * FILE   NREC   LENGTH (MB)   RECORD NAMES
              1      19    12452.38       500      610      700      900      950      970     1000      129      960     1100   
                                          VAR    BASINP    GEOM    SYMINP    ZMAT    AOBASIS   BASIS     P2S    ABASIS      S 
                                         1400     1410     1200     1210     1080     1600     1650     1700     1380   
                                           T        V       H0       H01     AOSYM     SMH    MOLCAS    OPER     JKOP   

              2       4       13.79       700     1000      520     2100   
                                         GEOM     BASIS   MCVARS     RHF  

 PROGRAMS   *        TOTAL   CCSD(T)    HF-SCF       INT
 CPU TIMES  *     51047.42  47374.43   1925.14   1747.65
 REAL TIME  *     54179.11 SEC
 DISK USED  *        14.28 GB (local),      508.67 GB (total)
 SF USED    *        13.87 GB
 GA USED    *         0.00 MB       (max)       0.00 MB       (current)
 **********************************************************************************************************************************

 Running procedure: SET_MONOMER1

 Dummy atoms: C1  H41  H42  H43  H44


 Recomputing one-electron integrals since nuclear charges changed


 PROGRAM * SEWARD (Integral evaluation for generally contracted gaussian basis sets)     Author: Roland Lindh, 1990

 Geometry written to block  1 of record 700


 Point group  C1  



 ATOMIC COORDINATES

 NR  ATOM    CHARGE       X              Y              Z

   1  O9      8.00   -6.649757260   -4.572192358    1.873285507
   2  H17     1.00   -6.404092864   -6.371778547    1.688092347
   3  H18     1.00   -5.651603921   -3.798727456    0.436526735
   4  C1      0.00   -6.193010455    2.801518980    2.403542658
   5  H41     0.00   -4.656285171    1.699997622    3.119937832
   6  H42     0.00   -5.973046335    4.726205038    2.982932688
   7  H43     0.00   -7.940251230    2.077186956    3.118237078
   8  H44     0.00   -6.176569838    2.685300823    0.384937212

 Bond lengths in Bohr (Angstrom)

 1-2  1.825693827  1-3  1.912807835  4-5  2.021904040  4-6  2.022002335  4-7  2.021953343
     ( 0.966115568)     ( 1.012214315)     ( 1.069945541)     ( 1.069997556)     ( 1.069971630)

 4-8  2.022015060
     ( 1.070004290)

 Bond angles

  2-1-3  104.60595341   5-4-6  109.53398059   5-4-7  109.65604535   5-4-8  108.43490854

  6-4-7  109.49436728   6-4-8  109.86987750   7-4-8  109.83468330

 NUCLEAR CHARGE:                   10
 NUMBER OF PRIMITIVE AOS:        1046
 NUMBER OF SYMMETRY AOS:          786
 NUMBER OF CONTRACTIONS:          734   (  734A   )
 NUMBER OF CORE ORBITALS:           1   (    1A   )
 NUMBER OF VALENCE ORBITALS:        6   (    6A   )

 MOLECULE CHANGED: INITIALIZING OCCUPATION AND DUMP RECORDS


 NUCLEAR REPULSION ENERGY    8.90222806

 Basis set:  JKFIT                   
 Basis size:  1104
 Attributes:
 Sphericals:   T
 Basis set:  MP2FIT                  
 Basis size:  1246
 Attributes:
 Sphericals:   T
 Basis set:  RI                      
 Basis size:   730
 Attributes:
 Sphericals:   T
 Basis set:  TDDFT                   
 Basis size:  1246
 Attributes:
 Sphericals:   T

 Eigenvalues of metric

         1 0.143E-05 0.189E-05 0.353E-05 0.526E-05 0.537E-05 0.816E-05 0.841E-05 0.849E-05


 Contracted 2-electron integrals neglected if value below      1.0D-14

 OPERATOR DM      FOR CENTER  0  COORDINATES:    0.000000    0.000000    0.000000


 **********************************************************************************************************************************
 DATASETS  * FILE   NREC   LENGTH (MB)   RECORD NAMES
              1      18       49.80       500      610      700      900      950      970     1000      129      960     1100   
                                          VAR    BASINP    GEOM    SYMINP    ZMAT    AOBASIS   BASIS     P2S    ABASIS      S 
                                         1400     1410     1200     1210     1080     1600     1650     1700   
                                           T        V       H0       H01     AOSYM     SMH    MOLCAS    OPER   

              2       5       24.61       700     1000      520     2100      200   
                                         GEOM     BASIS   MCVARS     RHF    OPTIONS    

 PROGRAMS   *        TOTAL       INT   CCSD(T)    HF-SCF       INT
 CPU TIMES  *     51048.31      0.88  47374.43   1925.14   1747.65
 REAL TIME  *     54181.87 SEC
 DISK USED  *        14.28 GB (local),      508.70 GB (total)
 SF USED    *        13.87 GB
 GA USED    *         0.00 MB       (max)       0.00 MB       (current)
 **********************************************************************************************************************************


 PROGRAM * RHF-SCF (CLOSED SHELL)       Authors: W. Meyer, H.-J. Werner


 NUMBER OF ELECTRONS:       5+    5-    SPACE SYMMETRY=1    SPIN SYMMETRY: Singlet 
 CONVERGENCE THRESHOLDS:    1.00E-08 (Density)    1.00E-11 (Energy)
 MAX. NUMBER OF ITERATIONS:       60
 INTERPOLATION TYPE:            DIIS
 INTERPOLATION STEPS:              2 (START)      1 (STEP)
 LEVEL SHIFTS:                  0.00 (CLOSED)  0.00 (OPEN) 



 Orbital guess generated from atomic densities. Full valence occupancy:    7

 Molecular orbital dump at record        2101.2

 Initial occupancy:   5

 ITERATION    DDIFF          GRAD             ENERGY        2-EL.EN.            DIPOLE MOMENTS         DIIS   ORB.
    1      0.000D+00      0.000D+00       -76.02310189     77.283398    0.64181   -0.51264   -0.83836    0    start
    2      0.000D+00      0.361D-02       -76.05004849     73.574373    0.36399   -0.30617   -0.47415    1    diag
    3      0.131D-02      0.233D-02       -76.06210321     75.231430    0.43302   -0.36068   -0.56438    2    diag
    4      0.499D-03      0.218D-03       -76.06230818     75.139150    0.42920   -0.36071   -0.55913    3    diag
    5      0.640D-04      0.628D-04       -76.06233188     75.154306    0.42774   -0.36086   -0.55711    4    diag
    6      0.212D-04      0.130D-04       -76.06233354     75.153088    0.42734   -0.36098   -0.55655    5    diag
    7      0.566D-05      0.271D-05       -76.06233363     75.153234    0.42723   -0.36101   -0.55639    6    diag
    8      0.149D-05      0.491D-06       -76.06233363     75.153220    0.42720   -0.36100   -0.55636    7    diag
    9      0.259D-06      0.694D-07       -76.06233363     75.153209    0.42720   -0.36100   -0.55635    8    diag
   10      0.398D-07      0.169D-07       -76.06233363     75.153212    0.42720   -0.36100   -0.55635    9    orth
   11      0.955D-08      0.426D-08       -76.06233363     75.153212    0.42720   -0.36100   -0.55635    0    orth

 Final occupancy:   5

 !RHF STATE  1.1 Energy               -76.062333628099
 Nuclear energy                         8.90222806
 One-electron energy                 -122.54116780
 Two-electron energy                   37.57660611
 Virial quotient                       -1.00235751
 !RHF STATE  1.1 Dipole moment          0.42719769    -0.36100044    -0.55635162
 Dipole moment /Debye                   1.08575712    -0.91751150    -1.41401214

 Orbital energies:

         1.1          2.1          3.1          4.1          5.1          6.1          7.1
    -20.569329    -1.337162    -0.701006    -0.578464    -0.508017     0.017876     0.027823


 HOMO      5.1    -0.508017 =     -13.8239eV
 LUMO      6.1     0.017876 =       0.4864eV
 LUMO-HOMO         0.525894 =      14.3103eV


 **********************************************************************************************************************************
 DATASETS  * FILE   NREC   LENGTH (MB)   RECORD NAMES
              1      18       49.80       500      610      700      900      950      970     1000      129      960     1100   
                                          VAR    BASINP    GEOM    SYMINP    ZMAT    AOBASIS   BASIS     P2S    ABASIS      S 
                                         1400     1410     1200     1210     1080     1600     1650     1700   
                                           T        V       H0       H01     AOSYM     SMH    MOLCAS    OPER   

              2       6       38.39       700     1000      520     2100      200     2101   
                                         GEOM     BASIS   MCVARS     RHF    OPTIONS    RHF  

 PROGRAMS   *        TOTAL    HF-SCF       INT   CCSD(T)    HF-SCF       INT
 CPU TIMES  *     52753.42   1705.10      0.88  47374.43   1925.14   1747.65
 REAL TIME  *     56393.89 SEC
 DISK USED  *        14.28 GB (local),      508.70 GB (total)
 SF USED    *        13.87 GB
 GA USED    *         0.00 MB       (max)       0.00 MB       (current)
 **********************************************************************************************************************************

 Basis set:  JKFIT                   
 Basis size:  1104
 Attributes:
 Sphericals:   T
 Basis set:  MP2FIT                  
 Basis size:  1246
 Attributes:
 Sphericals:   T
 Basis set:  RI                      
 Basis size:   730
 Attributes:
 Sphericals:   T
 Basis set:  TDDFT                   
 Basis size:  1246
 Attributes:
 Sphericals:   T

 PROGRAM * CCSD (Closed-shell coupled cluster)     Authors: C. Hampel, H.-J. Werner, 1991, M. Deegan, P.J. Knowles, 1992


 Convergence thresholds:  THRVAR = 1.00D-08  THRDEN = 1.00D-10

 CCSD(T)     terms to be evaluated (factor= 1.000)


 Number of core orbitals:           1 (   1 )
 Number of closed-shell orbitals:   4 (   4 )
 Number of external orbitals:     729 ( 729 )

 Molecular orbitals read from record     2101.2  Type=RHF/CANONICAL (state 1.1)

 Number of N-1 electron functions:               4
 Number of N-2 electron functions:              10
 Number of singly external CSFs:              2916
 Number of doubly external CSFs:           4252986
 Total number of CSFs:                     4255903

 Length of J-op  integral file:               0.00 MB
 Length of K-op  integral file:              37.04 MB
 Length of 3-ext integral record:             0.00 MB

 For full I/O caching in triples, increase memory by 535.09 Mwords to 2535.14 Mwords.

 Integral transformation finished. Total CPU:1374.33 sec, npass=  1  Memory used:1010.01 MW

 Reference energy:                    -76.06233363

 MP2 singlet pair energy:              -0.19275902
 MP2 triplet pair energy:              -0.10257473
 MP2 correlation energy:               -0.29533375
 MP2 total energy:                    -76.35766738

 SCS-MP2 correlation energy:           -0.29513510   (PS=  1.200000  PT=  0.333333)
 SCS-MP2 total energy:                -76.35746873

 ITER.      SQ.NORM     CORR.ENERGY   TOTAL ENERGY   ENERGY CHANGE        DEN1      VAR(S)    VAR(P)  DIIS     TIME  TIME/IT
   1      1.06489251    -0.29511119   -76.35744482     0.00022256     0.00631715  0.85D-03  0.11D-02  1  1  1722.21   383.15
   2      1.06859227    -0.29535683   -76.35769046    -0.00024564    -0.00506403  0.17D-04  0.13D-03  2  2  2069.64   387.16
   3      1.07010659    -0.29544365   -76.35777728    -0.00008681    -0.00106704  0.84D-05  0.72D-05  3  3  2417.73   388.39
   4      1.07062140    -0.29544239   -76.35777601     0.00000126    -0.00024747  0.54D-06  0.79D-06  4  4  2766.67   389.07
   5      1.07073235    -0.29544074   -76.35777437     0.00000164    -0.00003339  0.17D-06  0.55D-07  5  5  3115.61   389.43
   6      1.07077026    -0.29543804   -76.35777166     0.00000271    -0.00000832  0.18D-07  0.44D-08  6  6  3463.51   389.75
   7      1.07077822    -0.29543752   -76.35777115     0.00000051    -0.00000070  0.13D-08  0.65D-09  6  1  3812.79   389.85
   8      1.07077984    -0.29543744   -76.35777107     0.00000008     0.00000008  0.20D-09  0.77D-10  6  2  4161.94   390.04
   9      1.07078052    -0.29543739   -76.35777102     0.00000005    -0.00000000  0.14D-10  0.80D-11  6  3  4511.99   390.07
  10      1.07078060    -0.29543739   -76.35777102     0.00000000     0.00000005  0.21D-11  0.95D-12  6  4  4861.05   390.12
  11      1.07078060    -0.29543739   -76.35777102    -0.00000000     0.00000002  0.44D-12  0.16D-12  6  5  5210.79   390.14
  12      1.07078059    -0.29543739   -76.35777102    -0.00000000     0.00000001  0.89D-13  0.23D-13  6  6  5561.13   390.10
  13      1.07078058    -0.29543739   -76.35777102    -0.00000000     0.00000000  0.13D-13  0.40D-14  6  1  5911.36   390.08
  14      1.07078057    -0.29543739   -76.35777102    -0.00000000     0.00000000  0.14D-14  0.81D-15  6  2  6260.53   390.08
  15      1.07078057    -0.29543739   -76.35777102    -0.00000000     0.00000000  0.15D-15  0.11D-15  6  3  6610.38   390.08
  16      1.07078057    -0.29543739   -76.35777102    -0.00000000     0.00000000  0.20D-16  0.15D-16  6  4  6961.07   390.08

 Norm of t1 vector:      0.03843186      S-energy:    -0.00000000      T1 diagnostic:  0.00960796
                                                                       D1 diagnostic:  0.01988759

   CPU time for triples:   1902.23 sec for i =  1 -  3 /  4 (~  43.8 % done)
   CPU time for triples:   1915.06 sec for i =  4 -  4 /  4 (  100.0 % done)

 Total CPU time for triples:   3856.14 sec


 RESULTS
 =======

  Reference energy                    -76.062333628097
  CCSD singlet pair energy             -0.204968202636
  CCSD triplet pair energy             -0.090469188660
  CCSD correlation energy              -0.295437391979

  Triples (T) contribution             -0.009992825127
  Total correlation energy             -0.305430217106

  CCSD total energy                   -76.357771020076
  CCSD[T] energy                      -76.368087543537
  CCSD-T energy                       -76.367613380141
 !CCSD(T) total energy                -76.367763845203

 Timing summary (sec):

 STEP                 CPU(USER)    SYS     CPU(TOT)    WALL
 Transformation       1376.14     66.93   1443.07   1467.57
 CCSD iterations      5585.31    321.75   5907.06   6242.08
 Triples              3856.14    159.78   4015.92   4028.05

 Program statistics:

 Available memory in ccsd:              1999999921
 Min. memory needed in ccsd:              19268142
 Max. memory used in ccsd:                22427508
 Max. memory used in cckext:              14646566 (16 integral passes)



 **********************************************************************************************************************************
 DATASETS  * FILE   NREC   LENGTH (MB)   RECORD NAMES
              1      19     6330.40       500      610      700      900      950      970     1000      129      960     1100   
                                          VAR    BASINP    GEOM    SYMINP    ZMAT    AOBASIS   BASIS     P2S    ABASIS      S 
                                         1400     1410     1200     1210     1080     1600     1650     1700     1380   
                                           T        V       H0       H01     AOSYM     SMH    MOLCAS    OPER     JKOP   

              2       6       38.39       700     1000      520     2100      200     2101   
                                         GEOM     BASIS   MCVARS     RHF    OPTIONS    RHF  

 PROGRAMS   *        TOTAL   CCSD(T)    HF-SCF       INT   CCSD(T)    HF-SCF       INT
 CPU TIMES  *     63571.30  10817.87   1705.10      0.88  47374.43   1925.14   1747.65
 REAL TIME  *     68132.60 SEC
 DISK USED  *        14.28 GB (local),      508.70 GB (total)
 SF USED    *        13.87 GB
 GA USED    *         0.00 MB       (max)       0.00 MB       (current)
 **********************************************************************************************************************************

 Running procedure: SET_MONOMER2

 Dummy atoms: O9  H17  H18


 Recomputing one-electron integrals since nuclear charges changed


 PROGRAM * SEWARD (Integral evaluation for generally contracted gaussian basis sets)     Author: Roland Lindh, 1990

 Geometry written to block  1 of record 700


 Point group  C1  



 ATOMIC COORDINATES

 NR  ATOM    CHARGE       X              Y              Z

   1  O9      0.00   -6.649757260   -4.572192358    1.873285507
   2  H17     0.00   -6.404092864   -6.371778547    1.688092347
   3  H18     0.00   -5.651603921   -3.798727456    0.436526735
   4  C1      6.00   -6.193010455    2.801518980    2.403542658
   5  H41     1.00   -4.656285171    1.699997622    3.119937832
   6  H42     1.00   -5.973046335    4.726205038    2.982932688
   7  H43     1.00   -7.940251230    2.077186956    3.118237078
   8  H44     1.00   -6.176569838    2.685300823    0.384937212

 Bond lengths in Bohr (Angstrom)

 1-2  1.825693827  1-3  1.912807835  4-5  2.021904040  4-6  2.022002335  4-7  2.021953343
     ( 0.966115568)     ( 1.012214315)     ( 1.069945541)     ( 1.069997556)     ( 1.069971630)

 4-8  2.022015060
     ( 1.070004290)

 Bond angles

  2-1-3  104.60595341   5-4-6  109.53398059   5-4-7  109.65604535   5-4-8  108.43490854

  6-4-7  109.49436728   6-4-8  109.86987750   7-4-8  109.83468330

 NUCLEAR CHARGE:                   10
 NUMBER OF PRIMITIVE AOS:        1046
 NUMBER OF SYMMETRY AOS:          786
 NUMBER OF CONTRACTIONS:          734   (  734A   )
 NUMBER OF CORE ORBITALS:           1   (    1A   )
 NUMBER OF VALENCE ORBITALS:        8   (    8A   )

 MOLECULE CHANGED: INITIALIZING OCCUPATION AND DUMP RECORDS


 NUCLEAR REPULSION ENERGY   13.68681606

 Basis set:  JKFIT                   
 Basis size:  1104
 Attributes:
 Sphericals:   T
 Basis set:  MP2FIT                  
 Basis size:  1246
 Attributes:
 Sphericals:   T
 Basis set:  RI                      
 Basis size:   730
 Attributes:
 Sphericals:   T
 Basis set:  TDDFT                   
 Basis size:  1246
 Attributes:
 Sphericals:   T

 Eigenvalues of metric

         1 0.143E-05 0.189E-05 0.353E-05 0.526E-05 0.537E-05 0.816E-05 0.841E-05 0.849E-05


 Contracted 2-electron integrals neglected if value below      1.0D-14

 OPERATOR DM      FOR CENTER  0  COORDINATES:    0.000000    0.000000    0.000000


 **********************************************************************************************************************************
 DATASETS  * FILE   NREC   LENGTH (MB)   RECORD NAMES
              1      18       49.80       500      610      700      900      950      970     1000      129      960     1100   
                                          VAR    BASINP    GEOM    SYMINP    ZMAT    AOBASIS   BASIS     P2S    ABASIS      S 
                                         1400     1410     1200     1210     1080     1600     1650     1700   
                                           T        V       H0       H01     AOSYM     SMH    MOLCAS    OPER   

              2       6       38.39       700     1000      520     2100      200     2101   
                                         GEOM     BASIS   MCVARS     RHF    OPTIONS    RHF  

 PROGRAMS   *        TOTAL       INT   CCSD(T)    HF-SCF       INT   CCSD(T)    HF-SCF       INT
 CPU TIMES  *     63572.21      0.91  10817.87   1705.10      0.88  47374.43   1925.14   1747.65
 REAL TIME  *     68134.74 SEC
 DISK USED  *        14.28 GB (local),      508.70 GB (total)
 SF USED    *        13.87 GB
 GA USED    *         0.00 MB       (max)       0.00 MB       (current)
 **********************************************************************************************************************************


 PROGRAM * RHF-SCF (CLOSED SHELL)       Authors: W. Meyer, H.-J. Werner


 NUMBER OF ELECTRONS:       5+    5-    SPACE SYMMETRY=1    SPIN SYMMETRY: Singlet 
 CONVERGENCE THRESHOLDS:    1.00E-08 (Density)    1.00E-11 (Energy)
 MAX. NUMBER OF ITERATIONS:       60
 INTERPOLATION TYPE:            DIIS
 INTERPOLATION STEPS:              2 (START)      1 (STEP)
 LEVEL SHIFTS:                  0.00 (CLOSED)  0.00 (OPEN) 



 Orbital guess generated from atomic densities. Full valence occupancy:    9

 Molecular orbital dump at record        2102.2

 Initial occupancy:   5

 ITERATION    DDIFF          GRAD             ENERGY        2-EL.EN.            DIPOLE MOMENTS         DIIS   ORB.
    1      0.000D+00      0.000D+00       -40.19676517     53.509901    0.00411   -0.00276   -0.00131    0    start
    2      0.000D+00      0.198D-02       -40.21405737     52.218477    0.00128   -0.00088   -0.00039    1    diag
    3      0.948D-03      0.769D-03       -40.21634080     52.673984    0.00182   -0.00124   -0.00056    2    diag
    4      0.258D-03      0.192D-03       -40.21666113     52.619247    0.00162   -0.00110   -0.00049    3    diag
    5      0.958D-04      0.248D-04       -40.21666661     52.621405    0.00159   -0.00108   -0.00048    4    diag
    6      0.323D-04      0.204D-05       -40.21666665     52.621533    0.00159   -0.00108   -0.00048    5    diag
    7      0.624D-05      0.166D-06       -40.21666665     52.621495    0.00159   -0.00108   -0.00048    6    diag
    8      0.424D-06      0.136D-07       -40.21666665     52.621495    0.00159   -0.00108   -0.00048    7    diag
    9      0.540D-07      0.167D-08       -40.21666665     52.621495    0.00159   -0.00108   -0.00048    8    diag
   10      0.111D-07      0.465D-09       -40.21666665     52.621495    0.00159   -0.00108   -0.00048    9    orth
   11      0.118D-08      0.667D-10       -40.21666665     52.621495    0.00159   -0.00108   -0.00048    0    orth

 Final occupancy:   5

 !RHF STATE  1.1 Energy               -40.216666653126
 Nuclear energy                        13.68681606
 One-electron energy                  -80.21423044
 Two-electron energy                   26.31074773
 Virial quotient                       -0.99832816
 !RHF STATE  1.1 Dipole moment          0.00158623    -0.00108252    -0.00047759
 Dipole moment /Debye                   0.00403152    -0.00275131    -0.00121384

 Orbital energies:

         1.1          2.1          3.1          4.1          5.1          6.1          7.1
    -11.196017    -0.950605    -0.551931    -0.549996    -0.547818     0.020574     0.030324


 HOMO      5.1    -0.547818 =     -14.9069eV
 LUMO      6.1     0.020574 =       0.5599eV
 LUMO-HOMO         0.568392 =      15.4667eV


 **********************************************************************************************************************************
 DATASETS  * FILE   NREC   LENGTH (MB)   RECORD NAMES
              1      18       49.80       500      610      700      900      950      970     1000      129      960     1100   
                                          VAR    BASINP    GEOM    SYMINP    ZMAT    AOBASIS   BASIS     P2S    ABASIS      S 
                                         1400     1410     1200     1210     1080     1600     1650     1700   
                                           T        V       H0       H01     AOSYM     SMH    MOLCAS    OPER   

              2       7       62.47       700     1000      520     2100      200     2101     2102   
                                         GEOM     BASIS   MCVARS     RHF    OPTIONS    RHF      RHF  

 PROGRAMS   *        TOTAL    HF-SCF       INT   CCSD(T)    HF-SCF       INT   CCSD(T)    HF-SCF       INT
 CPU TIMES  *     65280.96   1708.75      0.91  10817.87   1705.10      0.88  47374.43   1925.14   1747.65
 REAL TIME  *     70354.08 SEC
 DISK USED  *        14.28 GB (local),      508.70 GB (total)
 SF USED    *        13.87 GB
 GA USED    *         0.00 MB       (max)       0.00 MB       (current)
 **********************************************************************************************************************************

 Basis set:  JKFIT                   
 Basis size:  1104
 Attributes:
 Sphericals:   T
 Basis set:  MP2FIT                  
 Basis size:  1246
 Attributes:
 Sphericals:   T
 Basis set:  RI                      
 Basis size:   730
 Attributes:
 Sphericals:   T
 Basis set:  TDDFT                   
 Basis size:  1246
 Attributes:
 Sphericals:   T

 PROGRAM * CCSD (Closed-shell coupled cluster)     Authors: C. Hampel, H.-J. Werner, 1991, M. Deegan, P.J. Knowles, 1992


 Convergence thresholds:  THRVAR = 1.00D-08  THRDEN = 1.00D-10

 CCSD(T)     terms to be evaluated (factor= 1.000)


 Number of core orbitals:           1 (   1 )
 Number of closed-shell orbitals:   4 (   4 )
 Number of external orbitals:     729 ( 729 )

 Molecular orbitals read from record     2102.2  Type=RHF/CANONICAL (state 1.1)

 Number of N-1 electron functions:               4
 Number of N-2 electron functions:              10
 Number of singly external CSFs:              2916
 Number of doubly external CSFs:           4252986
 Total number of CSFs:                     4255903

 Length of J-op  integral file:               0.00 MB
 Length of K-op  integral file:              37.04 MB
 Length of 3-ext integral record:             0.00 MB

 For full I/O caching in triples, increase memory by 535.09 Mwords to 2535.14 Mwords.

 Integral transformation finished. Total CPU:1360.36 sec, npass=  1  Memory used:1010.01 MW

 Reference energy:                    -40.21666665

 MP2 singlet pair energy:              -0.15787558
 MP2 triplet pair energy:              -0.05682265
 MP2 correlation energy:               -0.21469823
 MP2 total energy:                    -40.43136488

 SCS-MP2 correlation energy:           -0.22480701   (PS=  1.200000  PT=  0.333333)
 SCS-MP2 total energy:                -40.44147367

 ITER.      SQ.NORM     CORR.ENERGY   TOTAL ENERGY   ENERGY CHANGE        DEN1      VAR(S)    VAR(P)  DIIS     TIME  TIME/IT
   1      1.07073147    -0.22924159   -40.44590824    -0.01454336    -0.00881141  0.58D-03  0.96D-03  1  1  1707.62   382.89
   2      1.07565326    -0.23033632   -40.44700297    -0.00109473    -0.00537199  0.15D-04  0.11D-03  2  2  2055.26   386.59
   3      1.07738979    -0.23037683   -40.44704348    -0.00004051    -0.00128239  0.20D-05  0.63D-05  3  3  2403.56   387.44
   4      1.07778014    -0.23037856   -40.44704521    -0.00000173    -0.00020098  0.14D-06  0.35D-06  4  4  2751.09   387.85
   5      1.07783450    -0.23038232   -40.44704897    -0.00000376    -0.00001096  0.13D-07  0.24D-07  5  5  3099.56   388.20
   6      1.07784463    -0.23038100   -40.44704765     0.00000132    -0.00000414  0.78D-09  0.17D-08  6  6  3447.43   388.40
   7      1.07784595    -0.23038063   -40.44704728     0.00000037    -0.00000073  0.52D-10  0.13D-09  6  1  3794.02   388.36
   8      1.07784587    -0.23038068   -40.44704734    -0.00000006     0.00000024  0.55D-11  0.79D-11  6  3  4142.95   388.42
   9      1.07784600    -0.23038066   -40.44704732     0.00000002    -0.00000009  0.39D-12  0.56D-12  6  2  4491.30   388.40
  10      1.07784601    -0.23038066   -40.44704732     0.00000000     0.00000001  0.53D-13  0.60D-13  6  4  4839.61   388.38
  11      1.07784601    -0.23038066   -40.44704732     0.00000000    -0.00000000  0.54D-14  0.63D-14  6  5  5187.74   388.47
  12      1.07784601    -0.23038066   -40.44704732     0.00000000     0.00000000  0.15D-15  0.64D-15  6  6  5535.95   388.51
  13      1.07784601    -0.23038066   -40.44704732    -0.00000000     0.00000000  0.13D-16  0.73D-16  6  1  5884.04   388.51
  14      1.07784601    -0.23038066   -40.44704732    -0.00000000     0.00000000  0.27D-17  0.15D-16  6  3  6232.31   388.56

 Norm of t1 vector:      0.03185963      S-energy:     0.00000000      T1 diagnostic:  0.00796491
                                                                       D1 diagnostic:  0.01279364

 Total CPU time for triples:   3842.77 sec


 RESULTS
 =======

  Reference energy                    -40.216666653130
  CCSD singlet pair energy             -0.175398770175
  CCSD triplet pair energy             -0.054981892389
  CCSD correlation energy              -0.230380662562

  Triples (T) contribution             -0.007018597261
  Total correlation energy             -0.237399259822

  CCSD total energy                   -40.447047315691
  CCSD[T] energy                      -40.454289752383
  CCSD-T energy                       -40.453998958647
 !CCSD(T) total energy                -40.454065912952

 Timing summary (sec):

 STEP                 CPU(USER)    SYS     CPU(TOT)    WALL
 Transformation       1362.17     67.50   1429.67   1448.58
 CCSD iterations      4870.54    290.96   5161.50   5440.70
 Triples              3842.77    164.06   4006.83   4017.50

 Program statistics:

 Available memory in ccsd:              1999999916
 Min. memory needed in ccsd:              19268142
 Max. memory used in ccsd:                22427508
 Max. memory used in cckext:              14646566 (14 integral passes)



 **********************************************************************************************************************************
 DATASETS  * FILE   NREC   LENGTH (MB)   RECORD NAMES
              1      19     6330.40       500      610      700      900      950      970     1000      129      960     1100   
                                          VAR    BASINP    GEOM    SYMINP    ZMAT    AOBASIS   BASIS     P2S    ABASIS      S 
                                         1400     1410     1200     1210     1080     1600     1650     1700     1380   
                                           T        V       H0       H01     AOSYM     SMH    MOLCAS    OPER     JKOP   

              2       7       62.47       700     1000      520     2100      200     2101     2102   
                                         GEOM     BASIS   MCVARS     RHF    OPTIONS    RHF      RHF  

 PROGRAMS   *        TOTAL   CCSD(T)    HF-SCF       INT   CCSD(T)    HF-SCF       INT   CCSD(T)    HF-SCF       INT
 CPU TIMES  *     75356.75  10075.78   1708.75      0.91  10817.87   1705.10      0.88  47374.43   1925.14   1747.65
 REAL TIME  *     81261.93 SEC
 DISK USED  *        14.28 GB (local),      508.70 GB (total)
 SF USED    *        13.87 GB
 GA USED    *         0.00 MB       (max)       0.00 MB       (current)
 **********************************************************************************************************************************
 Molecular orbitals read from record     2102.2  Type=RHF/CANONICAL (state 1.1)
 Occupation numbers read from record     2102.2  Type=RHF/RHF (state 1.1)
 Orbital energies read from record       2102.2  Type=RHF/CANONICAL (state 1.1)
 Redundancy group numbers read from rec  2102.2  Type=RHF/RHF (state 1.1)

 CCSD(T)/aug-cc-pV5Z energy=    -40.454065912952

         CCSD(T)          HF-SCF         CCSD(T)          HF-SCF         CCSD(T)          HF-SCF
    -40.45406591    -40.21666665    -76.36776385    -76.06233363   -116.82235537   -116.27894950
 **********************************************************************************************************************************
 Molpro calculation terminated
