
 Primary working directories    : /scratch/klimes/401201/molpro.PQR0sNoqDB
 Secondary working directories  : /scratch/klimes/401201/molpro.PQR0sNoqDB
 Wavefunction directory         : /scratch/klimes/401201/
 Main file repository           : /scratch/klimes/401201/molpro.PQR0sNoqDB/

 id        : karlovklimes

 Nodes                      nprocs
 nc-01.cc.karlov.mff.cuni.cz    4

 Using customized tuning parameters: mindgm=1; mindgv=20; mindgc=4; mindgr=1; noblas=0; minvec=7
 default implementation of scratch files=sf  


 Variables initialized (930), CPU time= 0.01 sec
                                                                                 !gdirect
 memory,2000,m
 gthresh,orbital=1d-10,energy=1d-10,grid=1d-8
 
 symmetry,nosym
 angstrom
 geometry={
 O10        -3.744400000000      0.396600000000     -2.499800000000
 H19        -4.617400000000      0.462100000000     -2.021700000000
 H20        -3.968900000000      0.126100000000     -3.399000000000
 C1        -3.277200000000      1.482500000000      1.271900000000
 H41        -2.464000000000      0.899600000000      1.651000000000
 H42        -3.160800000000      2.501000000000      1.578500000000
 H43        -4.201800000000      1.099200000000      1.650100000000
 H44        -3.268500000000      1.421000000000      0.203700000000
 }
 
 nkerna=1
 nkernb=1
 
 gf=0
 sing=1
 thrdum=1d-4
 gridthr=1d-8
 
 basis={
 set,orbital
 default,av5z
 set,jkfit
 default,av5z/jkfit
 set,mp2fit
 default,av5z/mp2fit
 set,ri
 default,av5z/optri
 set,tddft
 default,av5z/mp2fit
 }
 
 proc set_monomer1
 dummy,4,5,6,7,8
 endproc
 
 proc set_monomer2
 dummy,1,2,3
 endproc
 
                                                                                 !1234 energy
 {hf,accu=1.d-16}
 ccsd(t)
 
 set_monomer1
 {hf,accu=1.d-16}
 ccsd(t)
 
 set_monomer2
 {hf,accu=1.d-16}
 ccsd(t)
 
 Commands  initialized (760), CPU time= 0.02 sec, 617 directives.
 Default parameters read. Elapsed time= 0.22 sec

 Checking input...
 Passed
1


                                         ***  PROGRAM SYSTEM MOLPRO  ***
                                       Copyright, TTI GmbH Stuttgart, 2015
                                    Version 2019.1 linked Jan 14 2019 13:09:19


 **********************************************************************************************************************************
 LABEL *                                                                                 
  64 bit mpp version                                                                     DATE: 14-Mar-20          TIME: 13:18:13  
 **********************************************************************************************************************************

 SHA1:             d688ac825633d238f2093ded1675ba87ccd55965
 **********************************************************************************************************************************

 THRESHOLDS:

 ZERO    =  1.00D-12  ONEINT  =  1.00D-12  TWOINT  =  1.00D-11  PREFAC  =  1.00D-14  XXXXXX  =  1.00D-09  EORDER  =  1.00D-04
 ENERGY  =  1.00D-10  ETEST   =  0.00D+00  EDENS   =  0.00D+00  THRDEDEF=  1.00D-06  GRADIENT=  1.00D-02  STEP    =  1.00D-03
 ORBITAL =  1.00D-10  CIVEC   =  1.00D-05  COEFF   =  1.00D-04  PRINTCI =  5.00D-02  PUNCHCI =  9.90D+01  OPTGRAD =  3.00D-04
 OPTENERG=  1.00D-06  OPTSTEP =  3.00D-04  THRGRAD =  1.00D-10  COMPRESS=  1.00D-11  VARMIN  =  1.00D-07  VARMAX  =  1.00D-03
 THRDOUB =  0.00D+00  THRDIV  =  1.00D-05  THRRED  =  1.00D-07  THRPSP  =  1.00D+00  THRDC   =  1.00D-10  THRCS   =  1.00D-10
 THRNRM  =  1.00D-08  THREQ   =  0.00D+00  THRDE   =  1.00D+00  THRREF  =  1.00D-05  SPARFAC =  1.00D+00  THRDLP  =  1.00D-07
 THRDIA  =  1.00D-10  THRDLS  =  1.00D-07  THRGPS  =  0.00D+00  THRKEX  =  0.00D+00  THRDIS  =  2.00D-01  THRVAR  =  1.00D-10
 THRLOC  =  1.00D-06  THRGAP  =  1.00D-06  THRLOCT = -1.00D+00  THRGAPT = -1.00D+00  THRORB  =  1.00D-06  THRMLTP =  0.00D+00
 THRCPQCI=  1.00D-10  KEXTA   =  0.00D+00  THRCOARS=  0.00D+00  SYMTOL  =  1.00D-06  GRADTOL =  1.00D-06  THROVL  =  1.00D-08
 THRORTH =  1.00D-08  GRID    =  1.00D-08  GRIDMAX =  1.00D-03  DTMAX   =  0.00D+00  THROCCDE=  1.00D-01  THROCCDE=  1.00D-01
 THRPRINT=  2.50D-01


 Variable memory set to 2000000000 words,  buffer space 

 ZSYMEL=NOSYM
 ZUNIT=ANG


Geometry recognized as XYZ

 SETTING NKERNA         =         1.00000000                                  
 SETTING NKERNB         =         1.00000000                                  
 SETTING GF             =     0.00000000D+00                                  
 SETTING SING           =         1.00000000                                  
 SETTING THRDUM         =     1.00000000D-04                                  
 SETTING GRIDTHR        =     1.00000000D-08                                  
 SETTING BASIS          =    AV5Z


 Recomputing integrals since basis changed


 Using spherical harmonics

 Library entry O      S aug-cc-pV5Z          selected for orbital group  1
 Library entry O      P aug-cc-pV5Z          selected for orbital group  1
 Library entry O      D aug-cc-pV5Z          selected for orbital group  1
 Library entry O      F aug-cc-pV5Z          selected for orbital group  1
 Library entry O      G aug-cc-pV5Z          selected for orbital group  1
 Library entry O      H aug-cc-pV5Z          selected for orbital group  1
 Library entry H      S aug-cc-pV5Z          selected for orbital group  2
 Library entry H      P aug-cc-pV5Z          selected for orbital group  2
 Library entry H      D aug-cc-pV5Z          selected for orbital group  2
 Library entry H      F aug-cc-pV5Z          selected for orbital group  2
 Library entry H      G aug-cc-pV5Z          selected for orbital group  2
 Library entry C      S aug-cc-pV5Z          selected for orbital group  3
 Library entry C      P aug-cc-pV5Z          selected for orbital group  3
 Library entry C      D aug-cc-pV5Z          selected for orbital group  3
 Library entry C      F aug-cc-pV5Z          selected for orbital group  3
 Library entry C      G aug-cc-pV5Z          selected for orbital group  3
 Library entry C      H aug-cc-pV5Z          selected for orbital group  3


 PROGRAM * SEWARD (Integral evaluation for generally contracted gaussian basis sets)     Author: Roland Lindh, 1990

 Geometry written to block  1 of record 700


 Point group  C1  



 ATOMIC COORDINATES

 NR  ATOM    CHARGE       X              Y              Z

   1  O10     8.00   -7.075890501    0.749465381   -4.723937366
   2  H19     1.00   -8.725621408    0.873242442   -3.820459306
   3  H20     1.00   -7.500134016    0.238294464   -6.423179097
   4  C1      6.00   -6.193010455    2.801518980    2.403542658
   5  H41     1.00   -4.656285171    1.699997622    3.119937832
   6  H42     1.00   -5.973046335    4.726205038    2.982932688
   7  H43     1.00   -7.940251230    2.077186956    3.118237078
   8  H44     1.00   -6.176569838    2.685300823    0.384937212

 Bond lengths in Bohr (Angstrom)

 1-2  1.884994809  1-3  1.824472726  4-5  2.021904040  4-6  2.022002335  4-7  2.021953343
     ( 0.997496296)     ( 0.965469388)     ( 1.069945541)     ( 1.069997556)     ( 1.069971630)

 4-8  2.022015060
     ( 1.070004290)

 Bond angles

  2-1-3  105.14667399   5-4-6  109.53398059   5-4-7  109.65604535   5-4-8  108.43490854

  6-4-7  109.49436728   6-4-8  109.86987750   7-4-8  109.83468330

 NUCLEAR CHARGE:                   20
 NUMBER OF PRIMITIVE AOS:        1046
 NUMBER OF SYMMETRY AOS:          786
 NUMBER OF CONTRACTIONS:          734   (  734A   )
 NUMBER OF CORE ORBITALS:           2   (    2A   )
 NUMBER OF VALENCE ORBITALS:       14   (   14A   )


 NUCLEAR REPULSION ENERGY   35.92323390


 Basis set:  JKFIT                   
 Basis size:  1104
 Attributes:
 Sphericals:   T
 Basis set:  MP2FIT                  
 Basis size:  1246
 Attributes:
 Sphericals:   T
 Basis set:  RI                      
 Basis size:   730
 Attributes:
 Sphericals:   T
 Basis set:  TDDFT                   
 Basis size:  1246
 Attributes:
 Sphericals:   T

 **********************************************************************************************************************************


 Eigenvalues of metric

         1 0.162E-05 0.211E-05 0.329E-05 0.422E-05 0.530E-05 0.654E-05 0.838E-05 0.939E-05


 Contracted 2-electron integrals neglected if value below      1.0D-14
 AO integral compression algorithm  1   Integral accuracy      1.0D-14

     139685.265 MB (compressed) written to integral file ( 44.2%)

     Node minimum: 32943.636 MB, node maximum: 36510.368 MB


 NUMBER OF SORTED TWO-ELECTRON INTEGRALS: 9095363064.     BUFFER LENGTH:  32768
 NUMBER OF SEGMENTS: 190  SEGMENT LENGTH:   47999780      RECORD LENGTH: 131072

 Memory used in sort:      48.16 MW

 SORT1 READ 39470497185. AND WROTE  6419041585. INTEGRALS IN  73561 RECORDS. CPU TIME:   784.87 SEC, REAL TIME:   880.17 SEC
 SORT2 READ 25685737944. AND WROTE 36381317385. INTEGRALS IN 502680 RECORDS. CPU TIME:   108.34 SEC, REAL TIME:   519.35 SEC

 Node minimum:  9095228192.  Node maximum:  9095430501. integrals

 OPERATOR DM      FOR CENTER  0  COORDINATES:    0.000000    0.000000    0.000000


 **********************************************************************************************************************************
 DATASETS  * FILE   NREC   LENGTH (MB)   RECORD NAMES
              1      18       49.80       500      610      700      900      950      970     1000      129      960     1100   
                                          VAR    BASINP    GEOM    SYMINP    ZMAT    AOBASIS   BASIS     P2S    ABASIS      S 
                                         1400     1410     1200     1210     1080     1600     1650     1700   
                                           T        V       H0       H01     AOSYM     SMH    MOLCAS    OPER   

 PROGRAMS   *        TOTAL       INT
 CPU TIMES  *      2005.62   2005.41
 REAL TIME  *      2573.64 SEC
 DISK USED  *        50.44 MB (local),      447.76 GB (total)
 GA USED    *         0.00 MB       (max)       0.00 MB       (current)
 **********************************************************************************************************************************


 PROGRAM * RHF-SCF (CLOSED SHELL)       Authors: W. Meyer, H.-J. Werner


 NUMBER OF ELECTRONS:      10+   10-    SPACE SYMMETRY=1    SPIN SYMMETRY: Singlet 
 CONVERGENCE THRESHOLDS:    1.00E-08 (Density)    1.00E-11 (Energy)
 MAX. NUMBER OF ITERATIONS:       60
 INTERPOLATION TYPE:            DIIS
 INTERPOLATION STEPS:              2 (START)      1 (STEP)
 LEVEL SHIFTS:                  0.00 (CLOSED)  0.00 (OPEN) 



 Orbital guess generated from atomic densities. Full valence occupancy:   16

 Molecular orbital dump at record        2100.2

 Initial occupancy:  10

 ITERATION    DDIFF          GRAD             ENERGY        2-EL.EN.            DIPOLE MOMENTS         DIIS   ORB.
    1      0.000D+00      0.000D+00      -116.22240317    157.547731   -1.06327   -0.20037   -0.40357    0    start
    2      0.000D+00      0.291D-02      -116.26638901    152.533821   -0.58091   -0.12720   -0.28438    1    diag
    3      0.162D-02      0.171D-02      -116.28004158    154.615643   -0.70364   -0.14565   -0.31713    2    diag
    4      0.559D-03      0.255D-03      -116.28070347    154.502198   -0.69276   -0.14370   -0.31451    3    diag
    5      0.126D-03      0.750D-04      -116.28077345    154.497739   -0.69192   -0.14360   -0.31514    4    diag
    6      0.518D-04      0.182D-04      -116.28077741    154.503345   -0.69101   -0.14343   -0.31501    5    diag
    7      0.184D-04      0.370D-05      -116.28077765    154.501717   -0.69098   -0.14341   -0.31504    6    diag
    8      0.543D-05      0.945D-06      -116.28077767    154.501901   -0.69089   -0.14340   -0.31504    7    diag
    9      0.127D-05      0.224D-06      -116.28077767    154.501874   -0.69087   -0.14340   -0.31504    8    diag
   10      0.322D-06      0.265D-07      -116.28077767    154.501875   -0.69087   -0.14340   -0.31504    9    orth
   11      0.620D-07      0.602D-08      -116.28077767    154.501876   -0.69087   -0.14340   -0.31504    9    diag
   12      0.651D-08      0.154D-08      -116.28077767    154.501876   -0.69087   -0.14340   -0.31504    0    orth

 Final occupancy:  10

 !RHF STATE  1.1 Energy              -116.280777674220
 Nuclear energy                        35.92323390
 One-electron energy                 -229.45494962
 Two-electron energy                   77.25093805
 Virial quotient                       -1.00074021
 !RHF STATE  1.1 Dipole moment         -0.69086643    -0.14339564    -0.31503768
 Dipole moment /Debye                  -1.75589229    -0.36445148    -0.80069348

 Orbital energies:

         1.1          2.1          3.1          4.1          5.1          6.1          7.1          8.1          9.1         10.1
    -20.568851   -11.190313    -1.341442    -0.945269    -0.707366    -0.580772    -0.546142    -0.545187    -0.541645    -0.509550

        11.1         12.1
      0.019690     0.031690


 HOMO     10.1    -0.509550 =     -13.8656eV
 LUMO     11.1     0.019690 =       0.5358eV
 LUMO-HOMO         0.529241 =      14.4014eV


 **********************************************************************************************************************************
 DATASETS  * FILE   NREC   LENGTH (MB)   RECORD NAMES
              1      18       49.80       500      610      700      900      950      970     1000      129      960     1100   
                                          VAR    BASINP    GEOM    SYMINP    ZMAT    AOBASIS   BASIS     P2S    ABASIS      S 
                                         1400     1410     1200     1210     1080     1600     1650     1700   
                                           T        V       H0       H01     AOSYM     SMH    MOLCAS    OPER   

              2       4       13.79       700     1000      520     2100   
                                         GEOM     BASIS   MCVARS     RHF  

 PROGRAMS   *        TOTAL    HF-SCF       INT
 CPU TIMES  *      4776.60   2770.98   2005.41
 REAL TIME  *      5548.23 SEC
 DISK USED  *       102.61 MB (local),      447.97 GB (total)
 SF USED    *         2.16 MB
 GA USED    *         0.00 MB       (max)       0.00 MB       (current)
 **********************************************************************************************************************************

 Basis set:  JKFIT                   
 Basis size:  1104
 Attributes:
 Sphericals:   T
 Basis set:  MP2FIT                  
 Basis size:  1246
 Attributes:
 Sphericals:   T
 Basis set:  RI                      
 Basis size:   730
 Attributes:
 Sphericals:   T
 Basis set:  TDDFT                   
 Basis size:  1246
 Attributes:
 Sphericals:   T

 PROGRAM * CCSD (Closed-shell coupled cluster)     Authors: C. Hampel, H.-J. Werner, 1991, M. Deegan, P.J. Knowles, 1992


 Convergence thresholds:  THRVAR = 1.00D-08  THRDEN = 1.00D-10

 CCSD(T)     terms to be evaluated (factor= 1.000)


 Number of core orbitals:           2 (   2 )
 Number of closed-shell orbitals:   8 (   8 )
 Number of external orbitals:     724 ( 724 )

 Molecular orbitals read from record     2100.2  Type=RHF/CANONICAL (state 1.1)

 Number of N-1 electron functions:               8
 Number of N-2 electron functions:              36
 Number of singly external CSFs:              5792
 Number of doubly external CSFs:          16776528
 Total number of CSFs:                    16782321

 Length of J-op  integral file:               0.00 MB
 Length of K-op  integral file:              37.04 MB
 Length of 3-ext integral record:             0.00 MB

 For full I/O caching in triples, increase memory by 2034.74 Mwords to 4034.79 Mwords.

 Integral transformation finished. Total CPU:3187.75 sec, npass=  1  Memory used:1826.26 MW

 Reference energy:                   -116.28077767

 MP2 singlet pair energy:              -0.35039314
 MP2 triplet pair energy:              -0.15971861
 MP2 correlation energy:               -0.51011175
 MP2 total energy:                   -116.79088943

 SCS-MP2 correlation energy:           -0.51985224   (PS=  1.200000  PT=  0.333333)
 SCS-MP2 total energy:               -116.80062991

 ITER.      SQ.NORM     CORR.ENERGY   TOTAL ENERGY   ENERGY CHANGE        DEN1      VAR(S)    VAR(P)  DIIS     TIME  TIME/IT
   1      1.13531533    -0.52445193  -116.80522960    -0.01434018    -0.00262300  0.14D-02  0.20D-02  1  1  4351.44  1182.12
   2      1.14371905    -0.52577869  -116.80655636    -0.00132676    -0.01026148  0.31D-04  0.25D-03  2  2  5518.27  1187.58
   3      1.14702647    -0.52590577  -116.80668345    -0.00012708    -0.00238691  0.11D-04  0.14D-04  3  3  6686.81  1189.47
   4      1.14793546    -0.52590293  -116.80668060     0.00000284    -0.00046068  0.65D-06  0.13D-05  4  4  7855.56  1190.54
   5      1.14809964    -0.52590488  -116.80668255    -0.00000195    -0.00004415  0.20D-06  0.91D-07  5  5  9024.51  1191.15
   6      1.14814706    -0.52590193  -116.80667961     0.00000294    -0.00001035  0.21D-07  0.74D-08  6  6 10192.81  1191.47
   7      1.14815749    -0.52590069  -116.80667836     0.00000125    -0.00000218  0.20D-08  0.92D-09  6  2 11359.93  1191.50
   8      1.14815990    -0.52590050  -116.80667818     0.00000018    -0.00000013  0.31D-09  0.97D-10  6  1 12529.34  1191.80
   9      1.14816080    -0.52590045  -116.80667812     0.00000005    -0.00000004  0.22D-10  0.14D-10  6  3 13698.38  1192.15
  10      1.14816091    -0.52590045  -116.80667813    -0.00000001     0.00000011  0.24D-11  0.16D-11  6  4 14868.79  1192.36
  11      1.14816087    -0.52590046  -116.80667813    -0.00000001     0.00000007  0.37D-12  0.23D-12  6  5 16040.06  1192.65
  12      1.14816085    -0.52590046  -116.80667814    -0.00000000     0.00000002  0.80D-13  0.30D-13  6  6 17208.47  1192.73
  13      1.14816083    -0.52590046  -116.80667814    -0.00000000     0.00000001  0.24D-13  0.79D-14  6  5 18375.70  1192.63
  14      1.14816082    -0.52590046  -116.80667814    -0.00000000     0.00000000  0.26D-14  0.81D-15  6  2 19544.79  1192.70
  15      1.14816082    -0.52590046  -116.80667814    -0.00000000     0.00000000  0.33D-15  0.14D-15  6  3 20714.89  1192.82
  16      1.14816082    -0.52590046  -116.80667814    -0.00000000    -0.00000000  0.55D-16  0.19D-16  6  1 21883.79  1192.87
  17      1.14816082    -0.52590046  -116.80667814    -0.00000000    -0.00000000  0.22D-16  0.74D-17  6  4 23054.44  1192.99

 Norm of t1 vector:      0.04970240      S-energy:    -0.00000000      T1 diagnostic:  0.00878623
                                                                       D1 diagnostic:  0.01975010

   CPU time for triples:   3447.17 sec for i =  1 -  3 /  8 (~   6.2 % done)
   CPU time for triples:   3452.88 sec for i =  4 -  5 /  8 (~  26.8 % done)
   CPU time for triples:   3450.70 sec for i =  6 -  6 /  8 (~  44.6 % done)
   CPU time for triples:   5171.71 sec for i =  7 -  7 /  8 (~  68.8 % done)
   CPU time for triples:   8617.46 sec for i =  8 -  8 /  8 (  100.0 % done)

 Total CPU time for triples:  24139.98 sec


 RESULTS
 =======

  Reference energy                   -116.280777674216
  CCSD singlet pair energy             -0.379942382704
  CCSD triplet pair energy             -0.145958081203
  CCSD correlation energy              -0.525900464194

  Triples (T) contribution             -0.017038469281
  Total correlation energy             -0.542938933476

  CCSD total energy                  -116.806678138410
  CCSD[T] energy                     -116.824258269519
  CCSD-T energy                      -116.823501517986
 !CCSD(T) total energy               -116.823716607691

 Timing summary (sec):

 STEP                 CPU(USER)    SYS     CPU(TOT)    WALL
 Transformation       3194.23    128.11   3322.34   3337.52
 CCSD iterations     19860.62    383.08  20243.70  20281.98
 Triples             24139.98    874.94  25014.92  25045.05

 Program statistics:

 Available memory in ccsd:              1999999734
 Min. memory needed in ccsd:              48755833
 Max. memory used in ccsd:                63342105
 Max. memory used in cckext:              42809278 (17 integral passes)



 **********************************************************************************************************************************
 DATASETS  * FILE   NREC   LENGTH (MB)   RECORD NAMES
              1      19    12452.38       500      610      700      900      950      970     1000      129      960     1100   
                                          VAR    BASINP    GEOM    SYMINP    ZMAT    AOBASIS   BASIS     P2S    ABASIS      S 
                                         1400     1410     1200     1210     1080     1600     1650     1700     1380   
                                           T        V       H0       H01     AOSYM     SMH    MOLCAS    OPER     JKOP   

              2       4       13.79       700     1000      520     2100   
                                         GEOM     BASIS   MCVARS     RHF  

 PROGRAMS   *        TOTAL   CCSD(T)    HF-SCF       INT
 CPU TIMES  *     51971.70  47195.08   2770.98   2005.41
 REAL TIME  *     54213.99 SEC
 DISK USED  *        14.28 GB (local),      499.24 GB (total)
 SF USED    *        13.87 GB
 GA USED    *         0.00 MB       (max)       0.00 MB       (current)
 **********************************************************************************************************************************

 Running procedure: SET_MONOMER1

 Dummy atoms: C1  H41  H42  H43  H44


 Recomputing one-electron integrals since nuclear charges changed


 PROGRAM * SEWARD (Integral evaluation for generally contracted gaussian basis sets)     Author: Roland Lindh, 1990

 Geometry written to block  1 of record 700


 Point group  C1  



 ATOMIC COORDINATES

 NR  ATOM    CHARGE       X              Y              Z

   1  O10     8.00   -7.075890501    0.749465381   -4.723937366
   2  H19     1.00   -8.725621408    0.873242442   -3.820459306
   3  H20     1.00   -7.500134016    0.238294464   -6.423179097
   4  C1      0.00   -6.193010455    2.801518980    2.403542658
   5  H41     0.00   -4.656285171    1.699997622    3.119937832
   6  H42     0.00   -5.973046335    4.726205038    2.982932688
   7  H43     0.00   -7.940251230    2.077186956    3.118237078
   8  H44     0.00   -6.176569838    2.685300823    0.384937212

 Bond lengths in Bohr (Angstrom)

 1-2  1.884994809  1-3  1.824472726  4-5  2.021904040  4-6  2.022002335  4-7  2.021953343
     ( 0.997496296)     ( 0.965469388)     ( 1.069945541)     ( 1.069997556)     ( 1.069971630)

 4-8  2.022015060
     ( 1.070004290)

 Bond angles

  2-1-3  105.14667399   5-4-6  109.53398059   5-4-7  109.65604535   5-4-8  108.43490854

  6-4-7  109.49436728   6-4-8  109.86987750   7-4-8  109.83468330

 NUCLEAR CHARGE:                   10
 NUMBER OF PRIMITIVE AOS:        1046
 NUMBER OF SYMMETRY AOS:          786
 NUMBER OF CONTRACTIONS:          734   (  734A   )
 NUMBER OF CORE ORBITALS:           1   (    1A   )
 NUMBER OF VALENCE ORBITALS:        6   (    6A   )

 MOLECULE CHANGED: INITIALIZING OCCUPATION AND DUMP RECORDS


 NUCLEAR REPULSION ENERGY    8.96831117

 Basis set:  JKFIT                   
 Basis size:  1104
 Attributes:
 Sphericals:   T
 Basis set:  MP2FIT                  
 Basis size:  1246
 Attributes:
 Sphericals:   T
 Basis set:  RI                      
 Basis size:   730
 Attributes:
 Sphericals:   T
 Basis set:  TDDFT                   
 Basis size:  1246
 Attributes:
 Sphericals:   T

 Eigenvalues of metric

         1 0.162E-05 0.211E-05 0.329E-05 0.422E-05 0.530E-05 0.654E-05 0.838E-05 0.939E-05


 Contracted 2-electron integrals neglected if value below      1.0D-14

 OPERATOR DM      FOR CENTER  0  COORDINATES:    0.000000    0.000000    0.000000


 **********************************************************************************************************************************
 DATASETS  * FILE   NREC   LENGTH (MB)   RECORD NAMES
              1      18       49.80       500      610      700      900      950      970     1000      129      960     1100   
                                          VAR    BASINP    GEOM    SYMINP    ZMAT    AOBASIS   BASIS     P2S    ABASIS      S 
                                         1400     1410     1200     1210     1080     1600     1650     1700   
                                           T        V       H0       H01     AOSYM     SMH    MOLCAS    OPER   

              2       5       24.61       700     1000      520     2100      200   
                                         GEOM     BASIS   MCVARS     RHF    OPTIONS    

 PROGRAMS   *        TOTAL       INT   CCSD(T)    HF-SCF       INT
 CPU TIMES  *     51972.60      0.89  47195.08   2770.98   2005.41
 REAL TIME  *     54217.09 SEC
 DISK USED  *        14.28 GB (local),      499.27 GB (total)
 SF USED    *        13.87 GB
 GA USED    *         0.00 MB       (max)       0.00 MB       (current)
 **********************************************************************************************************************************


 PROGRAM * RHF-SCF (CLOSED SHELL)       Authors: W. Meyer, H.-J. Werner


 NUMBER OF ELECTRONS:       5+    5-    SPACE SYMMETRY=1    SPIN SYMMETRY: Singlet 
 CONVERGENCE THRESHOLDS:    1.00E-08 (Density)    1.00E-11 (Energy)
 MAX. NUMBER OF ITERATIONS:       60
 INTERPOLATION TYPE:            DIIS
 INTERPOLATION STEPS:              2 (START)      1 (STEP)
 LEVEL SHIFTS:                  0.00 (CLOSED)  0.00 (OPEN) 



 Orbital guess generated from atomic densities. Full valence occupancy:    7

 Molecular orbital dump at record        2101.2

 Initial occupancy:   5

 ITERATION    DDIFF          GRAD             ENERGY        2-EL.EN.            DIPOLE MOMENTS         DIIS   ORB.
    1      0.000D+00      0.000D+00       -76.02524603     77.376854   -1.06807   -0.19634   -0.39856    0    start
    2      0.000D+00      0.361D-02       -76.05210723     73.701220   -0.61345   -0.11569   -0.23930    1    diag
    3      0.132D-02      0.231D-02       -76.06385102     75.336947   -0.72625   -0.13631   -0.28097    2    diag
    4      0.501D-03      0.216D-03       -76.06404947     75.245185   -0.72073   -0.13586   -0.28094    3    diag
    5      0.634D-04      0.611D-04       -76.06407140     75.259915   -0.71864   -0.13572   -0.28101    4    diag
    6      0.208D-04      0.124D-04       -76.06407288     75.258793   -0.71811   -0.13570   -0.28110    5    diag
    7      0.572D-05      0.255D-05       -76.06407295     75.258938   -0.71795   -0.13569   -0.28111    6    diag
    8      0.159D-05      0.477D-06       -76.06407295     75.258926   -0.71790   -0.13569   -0.28111    7    diag
    9      0.324D-06      0.660D-07       -76.06407295     75.258916   -0.71790   -0.13569   -0.28111    8    diag
   10      0.519D-07      0.153D-07       -76.06407295     75.258919   -0.71790   -0.13569   -0.28111    9    orth
   11      0.125D-07      0.346D-08       -76.06407295     75.258919   -0.71790   -0.13569   -0.28111    9    diag
   12      0.214D-08      0.679D-09       -76.06407295     75.258918   -0.71790   -0.13569   -0.28111    0    orth

 Final occupancy:   5

 !RHF STATE  1.1 Energy               -76.064072954780
 Nuclear energy                         8.96831117
 One-electron energy                 -122.66184333
 Two-electron energy                   37.62945921
 Virial quotient                       -1.00205448
 !RHF STATE  1.1 Dipole moment         -0.71789728    -0.13568687    -0.28110696
 Dipole moment /Debye                  -1.82459336    -0.34485904    -0.71445582

 Orbital energies:

         1.1          2.1          3.1          4.1          5.1          6.1          7.1
    -20.567849    -1.340254    -0.705944    -0.579007    -0.508409     0.017154     0.029505


 HOMO      5.1    -0.508409 =     -13.8345eV
 LUMO      6.1     0.017154 =       0.4668eV
 LUMO-HOMO         0.525563 =      14.3013eV


 **********************************************************************************************************************************
 DATASETS  * FILE   NREC   LENGTH (MB)   RECORD NAMES
              1      18       49.80       500      610      700      900      950      970     1000      129      960     1100   
                                          VAR    BASINP    GEOM    SYMINP    ZMAT    AOBASIS   BASIS     P2S    ABASIS      S 
                                         1400     1410     1200     1210     1080     1600     1650     1700   
                                           T        V       H0       H01     AOSYM     SMH    MOLCAS    OPER   

              2       6       38.39       700     1000      520     2100      200     2101   
                                         GEOM     BASIS   MCVARS     RHF    OPTIONS    RHF  

 PROGRAMS   *        TOTAL    HF-SCF       INT   CCSD(T)    HF-SCF       INT
 CPU TIMES  *     54738.43   2765.83      0.89  47195.08   2770.98   2005.41
 REAL TIME  *     57188.93 SEC
 DISK USED  *        14.28 GB (local),      499.27 GB (total)
 SF USED    *        13.87 GB
 GA USED    *         0.00 MB       (max)       0.00 MB       (current)
 **********************************************************************************************************************************

 Basis set:  JKFIT                   
 Basis size:  1104
 Attributes:
 Sphericals:   T
 Basis set:  MP2FIT                  
 Basis size:  1246
 Attributes:
 Sphericals:   T
 Basis set:  RI                      
 Basis size:   730
 Attributes:
 Sphericals:   T
 Basis set:  TDDFT                   
 Basis size:  1246
 Attributes:
 Sphericals:   T

 PROGRAM * CCSD (Closed-shell coupled cluster)     Authors: C. Hampel, H.-J. Werner, 1991, M. Deegan, P.J. Knowles, 1992


 Convergence thresholds:  THRVAR = 1.00D-08  THRDEN = 1.00D-10

 CCSD(T)     terms to be evaluated (factor= 1.000)


 Number of core orbitals:           1 (   1 )
 Number of closed-shell orbitals:   4 (   4 )
 Number of external orbitals:     729 ( 729 )

 Molecular orbitals read from record     2101.2  Type=RHF/CANONICAL (state 1.1)

 Number of N-1 electron functions:               4
 Number of N-2 electron functions:              10
 Number of singly external CSFs:              2916
 Number of doubly external CSFs:           4252986
 Total number of CSFs:                     4255903

 Length of J-op  integral file:               0.00 MB
 Length of K-op  integral file:              37.04 MB
 Length of 3-ext integral record:             0.00 MB

 For full I/O caching in triples, increase memory by 535.09 Mwords to 2535.14 Mwords.

 Integral transformation finished. Total CPU:1665.17 sec, npass=  1  Memory used:1010.01 MW

 Reference energy:                    -76.06407295

 MP2 singlet pair energy:              -0.19235607
 MP2 triplet pair energy:              -0.10235977
 MP2 correlation energy:               -0.29471584
 MP2 total energy:                    -76.35878880

 SCS-MP2 correlation energy:           -0.29451781   (PS=  1.200000  PT=  0.333333)
 SCS-MP2 total energy:                -76.35859076

 ITER.      SQ.NORM     CORR.ENERGY   TOTAL ENERGY   ENERGY CHANGE        DEN1      VAR(S)    VAR(P)  DIIS     TIME  TIME/IT
   1      1.06436693    -0.29457570   -76.35864866     0.00014014     0.00612882  0.82D-03  0.11D-02  1  1  2074.53   421.27
   2      1.06797941    -0.29481864   -76.35889159    -0.00024293    -0.00498872  0.16D-04  0.12D-03  2  2  2485.02   423.65
   3      1.06943670    -0.29490046   -76.35897341    -0.00008182    -0.00103868  0.81D-05  0.69D-05  3  3  2894.69   424.12
   4      1.06992961    -0.29489884   -76.35897180     0.00000162    -0.00023888  0.52D-06  0.76D-06  4  4  3305.97   424.68
   5      1.07003602    -0.29489718   -76.35897014     0.00000166    -0.00003213  0.17D-06  0.52D-07  5  5  3716.91   424.98
   6      1.07007242    -0.29489455   -76.35896750     0.00000264    -0.00000796  0.17D-07  0.42D-08  6  6  4127.53   425.25
   7      1.07008011    -0.29489404   -76.35896699     0.00000051    -0.00000068  0.12D-08  0.61D-09  6  1  4537.60   425.30
   8      1.07008167    -0.29489396   -76.35896692     0.00000008     0.00000008  0.18D-09  0.69D-10  6  2  4948.57   425.36
   9      1.07008231    -0.29489391   -76.35896687     0.00000005    -0.00000000  0.12D-10  0.70D-11  6  3  5357.93   425.37
  10      1.07008239    -0.29489391   -76.35896687     0.00000000     0.00000005  0.17D-11  0.80D-12  6  4  5769.11   425.44
  11      1.07008239    -0.29489391   -76.35896687    -0.00000000     0.00000002  0.37D-12  0.14D-12  6  5  6178.33   425.35
  12      1.07008238    -0.29489391   -76.35896687    -0.00000000     0.00000001  0.76D-13  0.19D-13  6  6  6589.54   425.43
  13      1.07008237    -0.29489391   -76.35896687    -0.00000000     0.00000000  0.12D-13  0.34D-14  6  1  6999.98   425.41
  14      1.07008236    -0.29489391   -76.35896687    -0.00000000     0.00000000  0.13D-14  0.67D-15  6  2  7410.06   425.41
  15      1.07008236    -0.29489391   -76.35896687    -0.00000000     0.00000000  0.14D-15  0.90D-16  6  3  7821.46   425.48
  16      1.07008236    -0.29489391   -76.35896687    -0.00000000     0.00000000  0.20D-16  0.13D-16  6  4  8231.63   425.50

 Norm of t1 vector:      0.03784945      S-energy:    -0.00000000      T1 diagnostic:  0.00946236
                                                                       D1 diagnostic:  0.01956081


 Total CPU time for triples:   3553.34 sec


 RESULTS
 =======

  Reference energy                    -76.064072954780
  CCSD singlet pair energy             -0.204470540493
  CCSD triplet pair energy             -0.090423374062
  CCSD correlation energy              -0.294893914607

  Triples (T) contribution             -0.009905151485
  Total correlation energy             -0.304799066092

  CCSD total energy                   -76.358966869388
  CCSD[T] energy                      -76.369188221610
  CCSD-T energy                       -76.368725352848
 !CCSD(T) total energy                -76.368872020872

 Timing summary (sec):

 STEP                 CPU(USER)    SYS     CPU(TOT)    WALL
 Transformation       1667.30     67.94   1735.24   1738.28
 CCSD iterations      6564.71    235.78   6800.49   6809.04
 Triples              3553.34    132.05   3685.39   3689.55

 Program statistics:

 Available memory in ccsd:              1999999921
 Min. memory needed in ccsd:              19268142
 Max. memory used in ccsd:                22427508
 Max. memory used in cckext:              14646566 (16 integral passes)



 **********************************************************************************************************************************
 DATASETS  * FILE   NREC   LENGTH (MB)   RECORD NAMES
              1      19     6330.40       500      610      700      900      950      970     1000      129      960     1100   
                                          VAR    BASINP    GEOM    SYMINP    ZMAT    AOBASIS   BASIS     P2S    ABASIS      S 
                                         1400     1410     1200     1210     1080     1600     1650     1700     1380   
                                           T        V       H0       H01     AOSYM     SMH    MOLCAS    OPER     JKOP   

              2       6       38.39       700     1000      520     2100      200     2101   
                                         GEOM     BASIS   MCVARS     RHF    OPTIONS    RHF  

 PROGRAMS   *        TOTAL   CCSD(T)    HF-SCF       INT   CCSD(T)    HF-SCF       INT
 CPU TIMES  *     66524.04  11785.61   2765.83      0.89  47195.08   2770.98   2005.41
 REAL TIME  *     69427.50 SEC
 DISK USED  *        14.28 GB (local),      499.27 GB (total)
 SF USED    *        13.87 GB
 GA USED    *         0.00 MB       (max)       0.00 MB       (current)
 **********************************************************************************************************************************

 Running procedure: SET_MONOMER2

 Dummy atoms: O10  H19  H20


 Recomputing one-electron integrals since nuclear charges changed


 PROGRAM * SEWARD (Integral evaluation for generally contracted gaussian basis sets)     Author: Roland Lindh, 1990

 Geometry written to block  1 of record 700


 Point group  C1  



 ATOMIC COORDINATES

 NR  ATOM    CHARGE       X              Y              Z

   1  O10     0.00   -7.075890501    0.749465381   -4.723937366
   2  H19     0.00   -8.725621408    0.873242442   -3.820459306
   3  H20     0.00   -7.500134016    0.238294464   -6.423179097
   4  C1      6.00   -6.193010455    2.801518980    2.403542658
   5  H41     1.00   -4.656285171    1.699997622    3.119937832
   6  H42     1.00   -5.973046335    4.726205038    2.982932688
   7  H43     1.00   -7.940251230    2.077186956    3.118237078
   8  H44     1.00   -6.176569838    2.685300823    0.384937212

 Bond lengths in Bohr (Angstrom)

 1-2  1.884994809  1-3  1.824472726  4-5  2.021904040  4-6  2.022002335  4-7  2.021953343
     ( 0.997496296)     ( 0.965469388)     ( 1.069945541)     ( 1.069997556)     ( 1.069971630)

 4-8  2.022015060
     ( 1.070004290)

 Bond angles

  2-1-3  105.14667399   5-4-6  109.53398059   5-4-7  109.65604535   5-4-8  108.43490854

  6-4-7  109.49436728   6-4-8  109.86987750   7-4-8  109.83468330

 NUCLEAR CHARGE:                   10
 NUMBER OF PRIMITIVE AOS:        1046
 NUMBER OF SYMMETRY AOS:          786
 NUMBER OF CONTRACTIONS:          734   (  734A   )
 NUMBER OF CORE ORBITALS:           1   (    1A   )
 NUMBER OF VALENCE ORBITALS:        8   (    8A   )

 MOLECULE CHANGED: INITIALIZING OCCUPATION AND DUMP RECORDS


 NUCLEAR REPULSION ENERGY   13.68681606

 Basis set:  JKFIT                   
 Basis size:  1104
 Attributes:
 Sphericals:   T
 Basis set:  MP2FIT                  
 Basis size:  1246
 Attributes:
 Sphericals:   T
 Basis set:  RI                      
 Basis size:   730
 Attributes:
 Sphericals:   T
 Basis set:  TDDFT                   
 Basis size:  1246
 Attributes:
 Sphericals:   T

 Eigenvalues of metric

         1 0.162E-05 0.211E-05 0.329E-05 0.422E-05 0.530E-05 0.654E-05 0.838E-05 0.939E-05


 Contracted 2-electron integrals neglected if value below      1.0D-14

 OPERATOR DM      FOR CENTER  0  COORDINATES:    0.000000    0.000000    0.000000


 **********************************************************************************************************************************
 DATASETS  * FILE   NREC   LENGTH (MB)   RECORD NAMES
              1      18       49.80       500      610      700      900      950      970     1000      129      960     1100   
                                          VAR    BASINP    GEOM    SYMINP    ZMAT    AOBASIS   BASIS     P2S    ABASIS      S 
                                         1400     1410     1200     1210     1080     1600     1650     1700   
                                           T        V       H0       H01     AOSYM     SMH    MOLCAS    OPER   

              2       6       38.39       700     1000      520     2100      200     2101   
                                         GEOM     BASIS   MCVARS     RHF    OPTIONS    RHF  

 PROGRAMS   *        TOTAL       INT   CCSD(T)    HF-SCF       INT   CCSD(T)    HF-SCF       INT
 CPU TIMES  *     66524.97      0.91  11785.61   2765.83      0.89  47195.08   2770.98   2005.41
 REAL TIME  *     69429.93 SEC
 DISK USED  *        14.28 GB (local),      499.27 GB (total)
 SF USED    *        13.87 GB
 GA USED    *         0.00 MB       (max)       0.00 MB       (current)
 **********************************************************************************************************************************


 PROGRAM * RHF-SCF (CLOSED SHELL)       Authors: W. Meyer, H.-J. Werner


 NUMBER OF ELECTRONS:       5+    5-    SPACE SYMMETRY=1    SPIN SYMMETRY: Singlet 
 CONVERGENCE THRESHOLDS:    1.00E-08 (Density)    1.00E-11 (Energy)
 MAX. NUMBER OF ITERATIONS:       60
 INTERPOLATION TYPE:            DIIS
 INTERPOLATION STEPS:              2 (START)      1 (STEP)
 LEVEL SHIFTS:                  0.00 (CLOSED)  0.00 (OPEN) 



 Orbital guess generated from atomic densities. Full valence occupancy:    9

 Molecular orbital dump at record        2102.2

 Initial occupancy:   5

 ITERATION    DDIFF          GRAD             ENERGY        2-EL.EN.            DIPOLE MOMENTS         DIIS   ORB.
    1      0.000D+00      0.000D+00       -40.19676540     53.509905    0.00411   -0.00276   -0.00130    0    start
    2      0.000D+00      0.198D-02       -40.21405760     52.218481    0.00128   -0.00087   -0.00038    1    diag
    3      0.948D-03      0.769D-03       -40.21634103     52.673988    0.00182   -0.00123   -0.00055    2    diag
    4      0.260D-03      0.192D-03       -40.21666136     52.619250    0.00162   -0.00110   -0.00048    3    diag
    5      0.102D-03      0.248D-04       -40.21666684     52.621408    0.00159   -0.00108   -0.00047    4    diag
    6      0.343D-04      0.204D-05       -40.21666688     52.621536    0.00159   -0.00108   -0.00047    5    diag
    7      0.583D-05      0.166D-06       -40.21666688     52.621499    0.00159   -0.00108   -0.00047    6    diag
    8      0.332D-06      0.136D-07       -40.21666688     52.621499    0.00159   -0.00108   -0.00047    7    diag
    9      0.566D-07      0.167D-08       -40.21666688     52.621499    0.00159   -0.00108   -0.00047    8    diag
   10      0.102D-07      0.465D-09       -40.21666688     52.621499    0.00159   -0.00108   -0.00047    9    orth
   11      0.107D-08      0.667D-10       -40.21666688     52.621499    0.00159   -0.00108   -0.00047    0    orth

 Final occupancy:   5

 !RHF STATE  1.1 Energy               -40.216666881955
 Nuclear energy                        13.68681606
 One-electron energy                  -80.21423254
 Two-electron energy                   26.31074960
 Virial quotient                       -0.99832812
 !RHF STATE  1.1 Dipole moment          0.00158652    -0.00107782    -0.00047009
 Dipole moment /Debye                   0.00403227    -0.00273936    -0.00119478

 Orbital energies:

         1.1          2.1          3.1          4.1          5.1          6.1          7.1
    -11.196017    -0.950605    -0.551931    -0.549996    -0.547818     0.020344     0.032051


 HOMO      5.1    -0.547818 =     -14.9069eV
 LUMO      6.1     0.020344 =       0.5536eV
 LUMO-HOMO         0.568161 =      15.4605eV


 **********************************************************************************************************************************
 DATASETS  * FILE   NREC   LENGTH (MB)   RECORD NAMES
              1      18       49.80       500      610      700      900      950      970     1000      129      960     1100   
                                          VAR    BASINP    GEOM    SYMINP    ZMAT    AOBASIS   BASIS     P2S    ABASIS      S 
                                         1400     1410     1200     1210     1080     1600     1650     1700   
                                           T        V       H0       H01     AOSYM     SMH    MOLCAS    OPER   

              2       7       62.47       700     1000      520     2100      200     2101     2102   
                                         GEOM     BASIS   MCVARS     RHF    OPTIONS    RHF      RHF  

 PROGRAMS   *        TOTAL    HF-SCF       INT   CCSD(T)    HF-SCF       INT   CCSD(T)    HF-SCF       INT
 CPU TIMES  *     69075.47   2550.48      0.91  11785.61   2765.83      0.89  47195.08   2770.98   2005.41
 REAL TIME  *     72169.16 SEC
 DISK USED  *        14.28 GB (local),      499.27 GB (total)
 SF USED    *        13.87 GB
 GA USED    *         0.00 MB       (max)       0.00 MB       (current)
 **********************************************************************************************************************************

 Basis set:  JKFIT                   
 Basis size:  1104
 Attributes:
 Sphericals:   T
 Basis set:  MP2FIT                  
 Basis size:  1246
 Attributes:
 Sphericals:   T
 Basis set:  RI                      
 Basis size:   730
 Attributes:
 Sphericals:   T
 Basis set:  TDDFT                   
 Basis size:  1246
 Attributes:
 Sphericals:   T

 PROGRAM * CCSD (Closed-shell coupled cluster)     Authors: C. Hampel, H.-J. Werner, 1991, M. Deegan, P.J. Knowles, 1992


 Convergence thresholds:  THRVAR = 1.00D-08  THRDEN = 1.00D-10

 CCSD(T)     terms to be evaluated (factor= 1.000)


 Number of core orbitals:           1 (   1 )
 Number of closed-shell orbitals:   4 (   4 )
 Number of external orbitals:     729 ( 729 )

 Molecular orbitals read from record     2102.2  Type=RHF/CANONICAL (state 1.1)

 Number of N-1 electron functions:               4
 Number of N-2 electron functions:              10
 Number of singly external CSFs:              2916
 Number of doubly external CSFs:           4252986
 Total number of CSFs:                     4255903

 Length of J-op  integral file:               0.00 MB
 Length of K-op  integral file:              37.04 MB
 Length of 3-ext integral record:             0.00 MB

 For full I/O caching in triples, increase memory by 535.09 Mwords to 2535.14 Mwords.

 Integral transformation finished. Total CPU:1665.60 sec, npass=  1  Memory used:1010.01 MW

 Reference energy:                    -40.21666688

 MP2 singlet pair energy:              -0.15787951
 MP2 triplet pair energy:              -0.05682299
 MP2 correlation energy:               -0.21470250
 MP2 total energy:                    -40.43136938

 SCS-MP2 correlation energy:           -0.22481194   (PS=  1.200000  PT=  0.333333)
 SCS-MP2 total energy:                -40.44147882

 ITER.      SQ.NORM     CORR.ENERGY   TOTAL ENERGY   ENERGY CHANGE        DEN1      VAR(S)    VAR(P)  DIIS     TIME  TIME/IT
   1      1.07073106    -0.22924396   -40.44591085    -0.01454146    -0.00880925  0.58D-03  0.96D-03  1  1  2075.24   421.10
   2      1.07565274    -0.23033869   -40.44700558    -0.00109473    -0.00537197  0.15D-04  0.11D-03  2  2  2485.68   423.53
   3      1.07738945    -0.23037920   -40.44704608    -0.00004050    -0.00128261  0.20D-05  0.63D-05  3  3  2897.20   424.58
   4      1.07777985    -0.23038092   -40.44704781    -0.00000173    -0.00020101  0.14D-06  0.35D-06  4  4  3307.83   424.91
   5      1.07783423    -0.23038468   -40.44705157    -0.00000376    -0.00001098  0.13D-07  0.24D-07  5  5  3719.40   425.26
   6      1.07784437    -0.23038337   -40.44705025     0.00000131    -0.00000413  0.78D-09  0.17D-08  6  6  4130.99   425.53
   7      1.07784569    -0.23038300   -40.44704988     0.00000038    -0.00000074  0.52D-10  0.13D-09  6  1  4542.15   425.75
   8      1.07784561    -0.23038305   -40.44704993    -0.00000006     0.00000024  0.56D-11  0.79D-11  6  3  4953.04   425.79
   9      1.07784575    -0.23038303   -40.44704991     0.00000002    -0.00000009  0.39D-12  0.56D-12  6  2  5364.48   425.91
  10      1.07784575    -0.23038303   -40.44704991     0.00000000     0.00000001  0.54D-13  0.61D-13  6  4  5775.66   425.96
  11      1.07784576    -0.23038303   -40.44704991     0.00000000     0.00000000  0.55D-14  0.63D-14  6  5  6186.61   425.99
  12      1.07784575    -0.23038303   -40.44704991     0.00000000     0.00000000  0.16D-15  0.65D-15  6  6  6597.55   425.99
  13      1.07784575    -0.23038303   -40.44704991    -0.00000000     0.00000000  0.15D-16  0.77D-16  6  1  7008.90   426.01
  14      1.07784575    -0.23038303   -40.44704991    -0.00000000     0.00000000  0.36D-17  0.17D-16  6  3  7419.83   426.00

 Norm of t1 vector:      0.03186012      S-energy:    -0.00000000      T1 diagnostic:  0.00796503
                                                                       D1 diagnostic:  0.01279390

 Total CPU time for triples:   3552.66 sec


 RESULTS
 =======

  Reference energy                    -40.216666881957
  CCSD singlet pair energy             -0.175400849723
  CCSD triplet pair energy             -0.054982180871
  CCSD correlation energy              -0.230383030595

  Triples (T) contribution             -0.007018799140
  Total correlation energy             -0.237401829735

  CCSD total energy                   -40.447049912552
  CCSD[T] energy                      -40.454292551077
  CCSD-T energy                       -40.454001757160
 !CCSD(T) total energy                -40.454068711692

 Timing summary (sec):

 STEP                 CPU(USER)    SYS     CPU(TOT)    WALL
 Transformation       1667.76     70.70   1738.46   1743.34
 CCSD iterations      5752.44    204.87   5957.31   5964.95
 Triples              3552.66    134.75   3687.41   3691.69

 Program statistics:

 Available memory in ccsd:              1999999916
 Min. memory needed in ccsd:              19268142
 Max. memory used in ccsd:                22427508
 Max. memory used in cckext:              14646566 (14 integral passes)



 **********************************************************************************************************************************
 DATASETS  * FILE   NREC   LENGTH (MB)   RECORD NAMES
              1      19     6330.40       500      610      700      900      950      970     1000      129      960     1100   
                                          VAR    BASINP    GEOM    SYMINP    ZMAT    AOBASIS   BASIS     P2S    ABASIS      S 
                                         1400     1410     1200     1210     1080     1600     1650     1700     1380   
                                           T        V       H0       H01     AOSYM     SMH    MOLCAS    OPER     JKOP   

              2       7       62.47       700     1000      520     2100      200     2101     2102   
                                         GEOM     BASIS   MCVARS     RHF    OPTIONS    RHF      RHF  

 PROGRAMS   *        TOTAL   CCSD(T)    HF-SCF       INT   CCSD(T)    HF-SCF       INT   CCSD(T)    HF-SCF       INT
 CPU TIMES  *     80048.59  10973.12   2550.48      0.91  11785.61   2765.83      0.89  47195.08   2770.98   2005.41
 REAL TIME  *     83570.80 SEC
 DISK USED  *        14.28 GB (local),      499.27 GB (total)
 SF USED    *        13.87 GB
 GA USED    *         0.00 MB       (max)       0.00 MB       (current)
 **********************************************************************************************************************************
 Molecular orbitals read from record     2102.2  Type=RHF/CANONICAL (state 1.1)
 Occupation numbers read from record     2102.2  Type=RHF/RHF (state 1.1)
 Orbital energies read from record       2102.2  Type=RHF/CANONICAL (state 1.1)
 Redundancy group numbers read from rec  2102.2  Type=RHF/RHF (state 1.1)

 CCSD(T)/aug-cc-pV5Z energy=    -40.454068711692

         CCSD(T)          HF-SCF         CCSD(T)          HF-SCF         CCSD(T)          HF-SCF
    -40.45406871    -40.21666688    -76.36887202    -76.06407295   -116.82371661   -116.28077767
 **********************************************************************************************************************************
 Molpro calculation terminated
