
 Primary working directories    : /scratch/klimes/387199/molpro.Bg9QXNV2LU
 Secondary working directories  : /scratch/klimes/387199/molpro.Bg9QXNV2LU
 Wavefunction directory         : /scratch/klimes/387199/
 Main file repository           : /scratch/klimes/387199/molpro.Bg9QXNV2LU/

 id        : karlovklimes

 Nodes                      nprocs
 nc-09.cc.karlov.mff.cuni.cz    4

 Using customized tuning parameters: mindgm=1; mindgv=20; mindgc=4; mindgr=1; noblas=0; minvec=7
 default implementation of scratch files=sf  


 Variables initialized (930), CPU time= 0.01 sec
                                                                                 !gdirect
 memory,2000,m
 gthresh,orbital=1d-10,energy=1d-10,grid=1d-8
 
 symmetry,nosym
 angstrom
 geometry={
 O11        -2.921900000000      2.481400000000      4.906200000000
 H21        -2.027400000000      2.492000000000      4.514500000000
 H22        -3.418800000000      3.190500000000      4.446000000000
 C1        -3.277200000000      1.482500000000      1.271900000000
 H41        -2.464000000000      0.899600000000      1.651000000000
 H42        -3.160800000000      2.501000000000      1.578500000000
 H43        -4.201800000000      1.099200000000      1.650100000000
 H44        -3.268500000000      1.421000000000      0.203700000000
 }
 
 nkerna=1
 nkernb=1
 
 gf=0
 sing=1
 thrdum=1d-4
 gridthr=1d-8
 
 basis={
 set,orbital
 default,av5z
 set,jkfit
 default,av5z/jkfit
 set,mp2fit
 default,av5z/mp2fit
 set,ri
 default,av5z/optri
 set,tddft
 default,av5z/mp2fit
 }
 
 proc set_monomer1
 dummy,4,5,6,7,8
 endproc
 
 proc set_monomer2
 dummy,1,2,3
 endproc
 
                                                                                 !1234 energy
 {hf,accu=1.d-16}
 ccsd(t)
 
 set_monomer1
 {hf,accu=1.d-16}
 ccsd(t)
 
 set_monomer2
 {hf,accu=1.d-16}
 ccsd(t)
 
 Commands  initialized (760), CPU time= 0.01 sec, 617 directives.
 Default parameters read. Elapsed time= 0.17 sec

 Checking input...
 Passed
1


                                         ***  PROGRAM SYSTEM MOLPRO  ***
                                       Copyright, TTI GmbH Stuttgart, 2015
                                    Version 2019.1 linked Jan 14 2019 13:09:19


 **********************************************************************************************************************************
 LABEL *                                                                                 
  64 bit mpp version                                                                     DATE: 12-Mar-20          TIME: 20:51:03  
 **********************************************************************************************************************************

 SHA1:             d688ac825633d238f2093ded1675ba87ccd55965
 **********************************************************************************************************************************

 THRESHOLDS:

 ZERO    =  1.00D-12  ONEINT  =  1.00D-12  TWOINT  =  1.00D-11  PREFAC  =  1.00D-14  XXXXXX  =  1.00D-09  EORDER  =  1.00D-04
 ENERGY  =  1.00D-10  ETEST   =  0.00D+00  EDENS   =  0.00D+00  THRDEDEF=  1.00D-06  GRADIENT=  1.00D-02  STEP    =  1.00D-03
 ORBITAL =  1.00D-10  CIVEC   =  1.00D-05  COEFF   =  1.00D-04  PRINTCI =  5.00D-02  PUNCHCI =  9.90D+01  OPTGRAD =  3.00D-04
 OPTENERG=  1.00D-06  OPTSTEP =  3.00D-04  THRGRAD =  1.00D-10  COMPRESS=  1.00D-11  VARMIN  =  1.00D-07  VARMAX  =  1.00D-03
 THRDOUB =  0.00D+00  THRDIV  =  1.00D-05  THRRED  =  1.00D-07  THRPSP  =  1.00D+00  THRDC   =  1.00D-10  THRCS   =  1.00D-10
 THRNRM  =  1.00D-08  THREQ   =  0.00D+00  THRDE   =  1.00D+00  THRREF  =  1.00D-05  SPARFAC =  1.00D+00  THRDLP  =  1.00D-07
 THRDIA  =  1.00D-10  THRDLS  =  1.00D-07  THRGPS  =  0.00D+00  THRKEX  =  0.00D+00  THRDIS  =  2.00D-01  THRVAR  =  1.00D-10
 THRLOC  =  1.00D-06  THRGAP  =  1.00D-06  THRLOCT = -1.00D+00  THRGAPT = -1.00D+00  THRORB  =  1.00D-06  THRMLTP =  0.00D+00
 THRCPQCI=  1.00D-10  KEXTA   =  0.00D+00  THRCOARS=  0.00D+00  SYMTOL  =  1.00D-06  GRADTOL =  1.00D-06  THROVL  =  1.00D-08
 THRORTH =  1.00D-08  GRID    =  1.00D-08  GRIDMAX =  1.00D-03  DTMAX   =  0.00D+00  THROCCDE=  1.00D-01  THROCCDE=  1.00D-01
 THRPRINT=  2.50D-01


 Variable memory set to 2000000000 words,  buffer space 

 ZSYMEL=NOSYM
 ZUNIT=ANG


Geometry recognized as XYZ

 SETTING NKERNA         =         1.00000000                                  
 SETTING NKERNB         =         1.00000000                                  
 SETTING GF             =     0.00000000D+00                                  
 SETTING SING           =         1.00000000                                  
 SETTING THRDUM         =     1.00000000D-04                                  
 SETTING GRIDTHR        =     1.00000000D-08                                  
 SETTING BASIS          =    AV5Z


 Recomputing integrals since basis changed


 Using spherical harmonics

 Library entry O      S aug-cc-pV5Z          selected for orbital group  1
 Library entry O      P aug-cc-pV5Z          selected for orbital group  1
 Library entry O      D aug-cc-pV5Z          selected for orbital group  1
 Library entry O      F aug-cc-pV5Z          selected for orbital group  1
 Library entry O      G aug-cc-pV5Z          selected for orbital group  1
 Library entry O      H aug-cc-pV5Z          selected for orbital group  1
 Library entry H      S aug-cc-pV5Z          selected for orbital group  2
 Library entry H      P aug-cc-pV5Z          selected for orbital group  2
 Library entry H      D aug-cc-pV5Z          selected for orbital group  2
 Library entry H      F aug-cc-pV5Z          selected for orbital group  2
 Library entry H      G aug-cc-pV5Z          selected for orbital group  2
 Library entry C      S aug-cc-pV5Z          selected for orbital group  3
 Library entry C      P aug-cc-pV5Z          selected for orbital group  3
 Library entry C      D aug-cc-pV5Z          selected for orbital group  3
 Library entry C      F aug-cc-pV5Z          selected for orbital group  3
 Library entry C      G aug-cc-pV5Z          selected for orbital group  3
 Library entry C      H aug-cc-pV5Z          selected for orbital group  3


 PROGRAM * SEWARD (Integral evaluation for generally contracted gaussian basis sets)     Author: Roland Lindh, 1990

 Geometry written to block  1 of record 700


 Point group  C1  



 ATOMIC COORDINATES

 NR  ATOM    CHARGE       X              Y              Z

   1  O11     8.00   -5.521590763    4.689166405    9.271374312
   2  H21     1.00   -3.831230745    4.709197502    8.531168589
   3  H22     1.00   -6.460595675    6.029171200    8.401722350
   4  C1      6.00   -6.193010455    2.801518980    2.403542658
   5  H41     1.00   -4.656285171    1.699997622    3.119937832
   6  H42     1.00   -5.973046335    4.726205038    2.982932688
   7  H43     1.00   -7.940251230    2.077186956    3.118237078
   8  H44     1.00   -6.176569838    2.685300823    0.384937212

 Bond lengths in Bohr (Angstrom)

 1-2  1.845432944  1-3  1.853007720  4-5  2.021904040  4-6  2.022002335  4-7  2.021953343
     ( 0.976561058)     ( 0.980569457)     ( 1.069945541)     ( 1.069997556)     ( 1.069971630)

 4-8  2.022015060
     ( 1.070004290)

 Bond angles

  2-1-3  105.54946434   5-4-6  109.53398059   5-4-7  109.65604535   5-4-8  108.43490854

  6-4-7  109.49436728   6-4-8  109.86987750   7-4-8  109.83468330

 NUCLEAR CHARGE:                   20
 NUMBER OF PRIMITIVE AOS:        1046
 NUMBER OF SYMMETRY AOS:          786
 NUMBER OF CONTRACTIONS:          734   (  734A   )
 NUMBER OF CORE ORBITALS:           2   (    2A   )
 NUMBER OF VALENCE ORBITALS:       14   (   14A   )


 NUCLEAR REPULSION ENERGY   36.73986578


 Basis set:  JKFIT                   
 Basis size:  1104
 Attributes:
 Sphericals:   T
 Basis set:  MP2FIT                  
 Basis size:  1246
 Attributes:
 Sphericals:   T
 Basis set:  RI                      
 Basis size:   730
 Attributes:
 Sphericals:   T
 Basis set:  TDDFT                   
 Basis size:  1246
 Attributes:
 Sphericals:   T

 **********************************************************************************************************************************


 Eigenvalues of metric

         1 0.173E-05 0.182E-05 0.349E-05 0.446E-05 0.531E-05 0.721E-05 0.798E-05 0.879E-05


 Contracted 2-electron integrals neglected if value below      1.0D-14
 AO integral compression algorithm  1   Integral accuracy      1.0D-14

     152160.698 MB (compressed) written to integral file ( 48.2%)

     Node minimum: 32646.627 MB, node maximum: 42875.748 MB


 NUMBER OF SORTED TWO-ELECTRON INTEGRALS: 9095363064.     BUFFER LENGTH:  32768
 NUMBER OF SEGMENTS: 190  SEGMENT LENGTH:   47999780      RECORD LENGTH: 131072

 Memory used in sort:      48.16 MW

 SORT1 READ 39471791889. AND WROTE  7008873555. INTEGRALS IN  80308 RECORDS. CPU TIME:  1370.27 SEC, REAL TIME:  1726.14 SEC
 SORT2 READ 28040468351. AND WROTE 36381317385. INTEGRALS IN 654232 RECORDS. CPU TIME:    92.48 SEC, REAL TIME:  3646.28 SEC

 Node minimum:  9095228192.  Node maximum:  9095430501. integrals

 OPERATOR DM      FOR CENTER  0  COORDINATES:    0.000000    0.000000    0.000000


 **********************************************************************************************************************************
 DATASETS  * FILE   NREC   LENGTH (MB)   RECORD NAMES
              1      18       49.80       500      610      700      900      950      970     1000      129      960     1100   
                                          VAR    BASINP    GEOM    SYMINP    ZMAT    AOBASIS   BASIS     P2S    ABASIS      S 
                                         1400     1410     1200     1210     1080     1600     1650     1700   
                                           T        V       H0       H01     AOSYM     SMH    MOLCAS    OPER   

 PROGRAMS   *        TOTAL       INT
 CPU TIMES  *      2757.90   2757.67
 REAL TIME  *      6752.76 SEC
 DISK USED  *        50.44 MB (local),      490.86 GB (total)
 GA USED    *         0.00 MB       (max)       0.00 MB       (current)
 **********************************************************************************************************************************


 PROGRAM * RHF-SCF (CLOSED SHELL)       Authors: W. Meyer, H.-J. Werner


 NUMBER OF ELECTRONS:      10+   10-    SPACE SYMMETRY=1    SPIN SYMMETRY: Singlet 
 CONVERGENCE THRESHOLDS:    1.00E-08 (Density)    1.00E-11 (Energy)
 MAX. NUMBER OF ITERATIONS:       60
 INTERPOLATION TYPE:            DIIS
 INTERPOLATION STEPS:              2 (START)      1 (STEP)
 LEVEL SHIFTS:                  0.00 (CLOSED)  0.00 (OPEN) 



 Orbital guess generated from atomic densities. Full valence occupancy:   16

 Molecular orbital dump at record        2100.2

 Initial occupancy:  10

 ITERATION    DDIFF          GRAD             ENERGY        2-EL.EN.            DIPOLE MOMENTS         DIIS   ORB.
    1      0.000D+00      0.000D+00      -116.22254870    158.937522    0.38789    0.69412   -0.82696    0    start
    2      0.000D+00      0.291D-02      -116.26683051    154.073602    0.20495    0.35866   -0.48530    1    diag
    3      0.163D-02      0.171D-02      -116.28046434    156.107662    0.25190    0.44511   -0.57118    2    diag
    4      0.558D-03      0.255D-03      -116.28112962    155.995442    0.24879    0.43932   -0.56263    3    diag
    5      0.124D-03      0.746D-04      -116.28119905    155.989760    0.24846    0.43887   -0.56250    4    diag
    6      0.503D-04      0.181D-04      -116.28120288    155.995461    0.24819    0.43838   -0.56194    5    diag
    7      0.177D-04      0.359D-05      -116.28120311    155.993728    0.24820    0.43841   -0.56194    6    diag
    8      0.533D-05      0.901D-06      -116.28120312    155.993905    0.24817    0.43836   -0.56189    7    diag
    9      0.122D-05      0.214D-06      -116.28120312    155.993880    0.24817    0.43835   -0.56187    8    diag
   10      0.273D-06      0.255D-07      -116.28120312    155.993881    0.24817    0.43835   -0.56187    9    orth
   11      0.627D-07      0.590D-08      -116.28120312    155.993882    0.24817    0.43835   -0.56187    9    diag
   12      0.465D-08      0.159D-08      -116.28120312    155.993882    0.24817    0.43835   -0.56187    0    orth

 Final occupancy:  10

 !RHF STATE  1.1 Energy              -116.281203124837
 Nuclear energy                        36.73986578
 One-electron energy                 -231.01800992
 Two-electron energy                   77.99694102
 Virial quotient                       -1.00067263
 !RHF STATE  1.1 Dipole moment          0.24816571     0.43834932    -0.56187416
 Dipole moment /Debye                   0.63073301     1.11409986    -1.42804814

 Orbital energies:

         1.1          2.1          3.1          4.1          5.1          6.1          7.1          8.1          9.1         10.1
    -20.565992   -11.199464    -1.340154    -0.953920    -0.707162    -0.578455    -0.555637    -0.553220    -0.551036    -0.507021

        11.1         12.1
      0.020055     0.032172


 HOMO     10.1    -0.507021 =     -13.7968eV
 LUMO     11.1     0.020055 =       0.5457eV
 LUMO-HOMO         0.527076 =      14.3425eV


 **********************************************************************************************************************************
 DATASETS  * FILE   NREC   LENGTH (MB)   RECORD NAMES
              1      18       49.80       500      610      700      900      950      970     1000      129      960     1100   
                                          VAR    BASINP    GEOM    SYMINP    ZMAT    AOBASIS   BASIS     P2S    ABASIS      S 
                                         1400     1410     1200     1210     1080     1600     1650     1700   
                                           T        V       H0       H01     AOSYM     SMH    MOLCAS    OPER   

              2       4       13.79       700     1000      520     2100   
                                         GEOM     BASIS   MCVARS     RHF  

 PROGRAMS   *        TOTAL    HF-SCF       INT
 CPU TIMES  *      4217.87   1459.97   2757.67
 REAL TIME  *      9875.48 SEC
 DISK USED  *       102.61 MB (local),      491.07 GB (total)
 SF USED    *         2.16 MB
 GA USED    *         0.00 MB       (max)       0.00 MB       (current)
 **********************************************************************************************************************************

 Basis set:  JKFIT                   
 Basis size:  1104
 Attributes:
 Sphericals:   T
 Basis set:  MP2FIT                  
 Basis size:  1246
 Attributes:
 Sphericals:   T
 Basis set:  RI                      
 Basis size:   730
 Attributes:
 Sphericals:   T
 Basis set:  TDDFT                   
 Basis size:  1246
 Attributes:
 Sphericals:   T

 PROGRAM * CCSD (Closed-shell coupled cluster)     Authors: C. Hampel, H.-J. Werner, 1991, M. Deegan, P.J. Knowles, 1992


 Convergence thresholds:  THRVAR = 1.00D-08  THRDEN = 1.00D-10

 CCSD(T)     terms to be evaluated (factor= 1.000)


 Number of core orbitals:           2 (   2 )
 Number of closed-shell orbitals:   8 (   8 )
 Number of external orbitals:     724 ( 724 )

 Molecular orbitals read from record     2100.2  Type=RHF/CANONICAL (state 1.1)

 Number of N-1 electron functions:               8
 Number of N-2 electron functions:              36
 Number of singly external CSFs:              5792
 Number of doubly external CSFs:          16776528
 Total number of CSFs:                    16782321

 Length of J-op  integral file:               0.00 MB
 Length of K-op  integral file:              37.04 MB
 Length of 3-ext integral record:             0.00 MB

 For full I/O caching in triples, increase memory by 2034.74 Mwords to 4034.79 Mwords.

 Integral transformation finished. Total CPU:2613.69 sec, npass=  1  Memory used:1826.26 MW

 Reference energy:                   -116.28120312

 MP2 singlet pair energy:              -0.35026593
 MP2 triplet pair energy:              -0.15961377
 MP2 correlation energy:               -0.50987970
 MP2 total energy:                   -116.79108283

 SCS-MP2 correlation energy:           -0.51963435   (PS=  1.200000  PT=  0.333333)
 SCS-MP2 total energy:               -116.80083748

 ITER.      SQ.NORM     CORR.ENERGY   TOTAL ENERGY   ENERGY CHANGE        DEN1      VAR(S)    VAR(P)  DIIS     TIME  TIME/IT
   1      1.13516698    -0.52429881  -116.80550194    -0.01441911    -0.00272531  0.14D-02  0.20D-02  1  1  3735.22  1143.73
   2      1.14356146    -0.52563377  -116.80683690    -0.00133496    -0.01024519  0.31D-04  0.25D-03  2  2  4865.21  1147.76
   3      1.14687107    -0.52576045  -116.80696358    -0.00012668    -0.00238608  0.11D-04  0.14D-04  3  3  5994.83  1148.58
   4      1.14778008    -0.52575699  -116.80696011     0.00000347    -0.00046055  0.64D-06  0.13D-05  4  4  7126.19  1149.58
   5      1.14794615    -0.52575879  -116.80696192    -0.00000180    -0.00004484  0.20D-06  0.92D-07  5  5  8256.99  1149.96
   6      1.14799393    -0.52575584  -116.80695896     0.00000295    -0.00001043  0.21D-07  0.77D-08  6  6  9382.66  1149.53
   7      1.14800435    -0.52575458  -116.80695770     0.00000126    -0.00000219  0.21D-08  0.10D-08  6  2 10508.45  1149.21
   8      1.14800677    -0.52575437  -116.80695749     0.00000021    -0.00000021  0.37D-09  0.12D-09  6  1 11634.61  1148.88
   9      1.14800769    -0.52575432  -116.80695744     0.00000005    -0.00000001  0.33D-10  0.17D-10  6  3 12761.73  1148.68
  10      1.14800784    -0.52575432  -116.80695744    -0.00000000     0.00000009  0.36D-11  0.24D-11  6  4 13887.89  1148.50
  11      1.14800780    -0.52575433  -116.80695745    -0.00000001     0.00000008  0.61D-12  0.31D-12  6  5 15013.84  1148.36
  12      1.14800779    -0.52575433  -116.80695745    -0.00000000     0.00000002  0.11D-12  0.41D-13  6  6 16139.97  1148.25
  13      1.14800777    -0.52575433  -116.80695745    -0.00000000     0.00000001  0.21D-13  0.62D-14  6  2 17265.62  1148.15
  14      1.14800776    -0.52575433  -116.80695745    -0.00000000     0.00000000  0.32D-14  0.13D-14  6  1 18392.23  1148.05
  15      1.14800776    -0.52575433  -116.80695745    -0.00000000    -0.00000000  0.40D-15  0.22D-15  6  3 19519.35  1148.01
  16      1.14800776    -0.52575433  -116.80695745    -0.00000000    -0.00000000  0.81D-16  0.36D-16  6  4 20645.65  1147.91
  17      1.14800776    -0.52575433  -116.80695745     0.00000000    -0.00000000  0.26D-16  0.10D-16  6  5 21772.25  1147.86

 Norm of t1 vector:      0.04993524      S-energy:    -0.00000000      T1 diagnostic:  0.00882739
                                                                       D1 diagnostic:  0.02007494

   CPU time for triples:   3422.73 sec for i =  1 -  3 /  8 (~   6.2 % done)
   CPU time for triples:   3428.14 sec for i =  4 -  5 /  8 (~  26.8 % done)
   CPU time for triples:   3427.34 sec for i =  6 -  6 /  8 (~  44.6 % done)
   CPU time for triples:   6802.53 sec for i =  7 -  7 /  8 (~  68.8 % done)
   CPU time for triples:   6740.50 sec for i =  8 -  8 /  8 (  100.0 % done)

 Total CPU time for triples:  23865.30 sec


 RESULTS
 =======

  Reference energy                   -116.281203124838
  CCSD singlet pair energy             -0.379811016482
  CCSD triplet pair energy             -0.145943312663
  CCSD correlation energy              -0.525754329424

  Triples (T) contribution             -0.017026060464
  Total correlation energy             -0.542780389889

  CCSD total energy                  -116.806957454262
  CCSD[T] energy                     -116.824525715788
  CCSD-T energy                      -116.823768256361
 !CCSD(T) total energy               -116.823983514727

 Timing summary (sec):

 STEP                 CPU(USER)    SYS     CPU(TOT)    WALL
 Transformation       2619.77    107.86   2727.63   2773.62
 CCSD iterations     19152.91    330.04  19482.95  19514.64
 Triples             23865.30    764.32  24629.62  24674.34

 Program statistics:

 Available memory in ccsd:              1999999734
 Min. memory needed in ccsd:              48755833
 Max. memory used in ccsd:                63342105
 Max. memory used in cckext:              42809278 (17 integral passes)



 **********************************************************************************************************************************
 DATASETS  * FILE   NREC   LENGTH (MB)   RECORD NAMES
              1      19    12452.38       500      610      700      900      950      970     1000      129      960     1100   
                                          VAR    BASINP    GEOM    SYMINP    ZMAT    AOBASIS   BASIS     P2S    ABASIS      S 
                                         1400     1410     1200     1210     1080     1600     1650     1700     1380   
                                           T        V       H0       H01     AOSYM     SMH    MOLCAS    OPER     JKOP   

              2       4       13.79       700     1000      520     2100   
                                         GEOM     BASIS   MCVARS     RHF  

 PROGRAMS   *        TOTAL   CCSD(T)    HF-SCF       INT
 CPU TIMES  *     49856.11  45638.24   1459.97   2757.67
 REAL TIME  *     56839.00 SEC
 DISK USED  *        14.28 GB (local),      542.34 GB (total)
 SF USED    *        13.87 GB
 GA USED    *         0.00 MB       (max)       0.00 MB       (current)
 **********************************************************************************************************************************

 Running procedure: SET_MONOMER1

 Dummy atoms: C1  H41  H42  H43  H44


 Recomputing one-electron integrals since nuclear charges changed


 PROGRAM * SEWARD (Integral evaluation for generally contracted gaussian basis sets)     Author: Roland Lindh, 1990

 Geometry written to block  1 of record 700


 Point group  C1  



 ATOMIC COORDINATES

 NR  ATOM    CHARGE       X              Y              Z

   1  O11     8.00   -5.521590763    4.689166405    9.271374312
   2  H21     1.00   -3.831230745    4.709197502    8.531168589
   3  H22     1.00   -6.460595675    6.029171200    8.401722350
   4  C1      0.00   -6.193010455    2.801518980    2.403542658
   5  H41     0.00   -4.656285171    1.699997622    3.119937832
   6  H42     0.00   -5.973046335    4.726205038    2.982932688
   7  H43     0.00   -7.940251230    2.077186956    3.118237078
   8  H44     0.00   -6.176569838    2.685300823    0.384937212

 Bond lengths in Bohr (Angstrom)

 1-2  1.845432944  1-3  1.853007720  4-5  2.021904040  4-6  2.022002335  4-7  2.021953343
     ( 0.976561058)     ( 0.980569457)     ( 1.069945541)     ( 1.069997556)     ( 1.069971630)

 4-8  2.022015060
     ( 1.070004290)

 Bond angles

  2-1-3  105.54946434   5-4-6  109.53398059   5-4-7  109.65604535   5-4-8  108.43490854

  6-4-7  109.49436728   6-4-8  109.86987750   7-4-8  109.83468330

 NUCLEAR CHARGE:                   10
 NUMBER OF PRIMITIVE AOS:        1046
 NUMBER OF SYMMETRY AOS:          786
 NUMBER OF CONTRACTIONS:          734   (  734A   )
 NUMBER OF CORE ORBITALS:           1   (    1A   )
 NUMBER OF VALENCE ORBITALS:        6   (    6A   )

 MOLECULE CHANGED: INITIALIZING OCCUPATION AND DUMP RECORDS


 NUCLEAR REPULSION ENERGY    8.99189736

 Basis set:  JKFIT                   
 Basis size:  1104
 Attributes:
 Sphericals:   T
 Basis set:  MP2FIT                  
 Basis size:  1246
 Attributes:
 Sphericals:   T
 Basis set:  RI                      
 Basis size:   730
 Attributes:
 Sphericals:   T
 Basis set:  TDDFT                   
 Basis size:  1246
 Attributes:
 Sphericals:   T

 Eigenvalues of metric

         1 0.173E-05 0.182E-05 0.349E-05 0.446E-05 0.531E-05 0.721E-05 0.798E-05 0.879E-05


 Contracted 2-electron integrals neglected if value below      1.0D-14

 OPERATOR DM      FOR CENTER  0  COORDINATES:    0.000000    0.000000    0.000000


 **********************************************************************************************************************************
 DATASETS  * FILE   NREC   LENGTH (MB)   RECORD NAMES
              1      18       49.80       500      610      700      900      950      970     1000      129      960     1100   
                                          VAR    BASINP    GEOM    SYMINP    ZMAT    AOBASIS   BASIS     P2S    ABASIS      S 
                                         1400     1410     1200     1210     1080     1600     1650     1700   
                                           T        V       H0       H01     AOSYM     SMH    MOLCAS    OPER   

              2       5       24.61       700     1000      520     2100      200   
                                         GEOM     BASIS   MCVARS     RHF    OPTIONS    

 PROGRAMS   *        TOTAL       INT   CCSD(T)    HF-SCF       INT
 CPU TIMES  *     49857.05      0.93  45638.24   1459.97   2757.67
 REAL TIME  *     56841.88 SEC
 DISK USED  *        14.28 GB (local),      542.37 GB (total)
 SF USED    *        13.87 GB
 GA USED    *         0.00 MB       (max)       0.00 MB       (current)
 **********************************************************************************************************************************


 PROGRAM * RHF-SCF (CLOSED SHELL)       Authors: W. Meyer, H.-J. Werner


 NUMBER OF ELECTRONS:       5+    5-    SPACE SYMMETRY=1    SPIN SYMMETRY: Singlet 
 CONVERGENCE THRESHOLDS:    1.00E-08 (Density)    1.00E-11 (Energy)
 MAX. NUMBER OF ITERATIONS:       60
 INTERPOLATION TYPE:            DIIS
 INTERPOLATION STEPS:              2 (START)      1 (STEP)
 LEVEL SHIFTS:                  0.00 (CLOSED)  0.00 (OPEN) 



 Orbital guess generated from atomic densities. Full valence occupancy:    7

 Molecular orbital dump at record        2101.2

 Initial occupancy:   5

 ITERATION    DDIFF          GRAD             ENERGY        2-EL.EN.            DIPOLE MOMENTS         DIIS   ORB.
    1      0.000D+00      0.000D+00       -76.02634224     77.409990    0.38420    0.69823   -0.82583    0    start
    2      0.000D+00      0.360D-02       -76.05312616     73.749660    0.22420    0.40486   -0.47946    1    diag
    3      0.132D-02      0.229D-02       -76.06472833     75.376059    0.26433    0.47791   -0.56583    2    diag
    4      0.497D-03      0.215D-03       -76.06492351     75.284476    0.26291    0.47483   -0.56231    3    diag
    5      0.622D-04      0.602D-04       -76.06494459     75.299003    0.26240    0.47369   -0.56100    4    diag
    6      0.195D-04      0.120D-04       -76.06494597     75.297925    0.26229    0.47342   -0.56070    5    diag
    7      0.529D-05      0.246D-05       -76.06494604     75.298071    0.26226    0.47333   -0.56061    6    diag
    8      0.140D-05      0.468D-06       -76.06494604     75.298059    0.26224    0.47331   -0.56058    7    diag
    9      0.262D-06      0.642D-07       -76.06494604     75.298049    0.26224    0.47330   -0.56057    8    diag
   10      0.472D-07      0.142D-07       -76.06494604     75.298053    0.26224    0.47330   -0.56057    9    orth
   11      0.928D-08      0.245D-08       -76.06494604     75.298052    0.26224    0.47330   -0.56057    0    orth

 Final occupancy:   5

 !RHF STATE  1.1 Energy               -76.064946041238
 Nuclear energy                         8.99189736
 One-electron energy                 -122.70586928
 Two-electron energy                   37.64902587
 Virial quotient                       -1.00195729
 !RHF STATE  1.1 Dipole moment          0.26224037     0.47330367    -0.56057218
 Dipole moment /Debye                   0.66650488     1.20293915    -1.42473904

 Orbital energies:

         1.1          2.1          3.1          4.1          5.1          6.1          7.1
    -20.567223    -1.341170    -0.708148    -0.578879    -0.508489     0.015332     0.030601


 HOMO      5.1    -0.508489 =     -13.8367eV
 LUMO      6.1     0.015332 =       0.4172eV
 LUMO-HOMO         0.523821 =      14.2539eV


 **********************************************************************************************************************************
 DATASETS  * FILE   NREC   LENGTH (MB)   RECORD NAMES
              1      18       49.80       500      610      700      900      950      970     1000      129      960     1100   
                                          VAR    BASINP    GEOM    SYMINP    ZMAT    AOBASIS   BASIS     P2S    ABASIS      S 
                                         1400     1410     1200     1210     1080     1600     1650     1700   
                                           T        V       H0       H01     AOSYM     SMH    MOLCAS    OPER   

              2       6       38.39       700     1000      520     2100      200     2101   
                                         GEOM     BASIS   MCVARS     RHF    OPTIONS    RHF  

 PROGRAMS   *        TOTAL    HF-SCF       INT   CCSD(T)    HF-SCF       INT
 CPU TIMES  *     51750.43   1893.37      0.93  45638.24   1459.97   2757.67
 REAL TIME  *     59048.22 SEC
 DISK USED  *        14.28 GB (local),      542.37 GB (total)
 SF USED    *        13.87 GB
 GA USED    *         0.00 MB       (max)       0.00 MB       (current)
 **********************************************************************************************************************************

 Basis set:  JKFIT                   
 Basis size:  1104
 Attributes:
 Sphericals:   T
 Basis set:  MP2FIT                  
 Basis size:  1246
 Attributes:
 Sphericals:   T
 Basis set:  RI                      
 Basis size:   730
 Attributes:
 Sphericals:   T
 Basis set:  TDDFT                   
 Basis size:  1246
 Attributes:
 Sphericals:   T

 PROGRAM * CCSD (Closed-shell coupled cluster)     Authors: C. Hampel, H.-J. Werner, 1991, M. Deegan, P.J. Knowles, 1992


 Convergence thresholds:  THRVAR = 1.00D-08  THRDEN = 1.00D-10

 CCSD(T)     terms to be evaluated (factor= 1.000)


 Number of core orbitals:           1 (   1 )
 Number of closed-shell orbitals:   4 (   4 )
 Number of external orbitals:     729 ( 729 )

 Molecular orbitals read from record     2101.2  Type=RHF/CANONICAL (state 1.1)

 Number of N-1 electron functions:               4
 Number of N-2 electron functions:              10
 Number of singly external CSFs:              2916
 Number of doubly external CSFs:           4252986
 Total number of CSFs:                     4255903

 Length of J-op  integral file:               0.00 MB
 Length of K-op  integral file:              37.04 MB
 Length of 3-ext integral record:             0.00 MB

 For full I/O caching in triples, increase memory by 535.09 Mwords to 2535.14 Mwords.

 Integral transformation finished. Total CPU:1401.19 sec, npass=  1  Memory used:1010.01 MW

 Reference energy:                    -76.06494604

 MP2 singlet pair energy:              -0.19219552
 MP2 triplet pair energy:              -0.10227609
 MP2 correlation energy:               -0.29447161
 MP2 total energy:                    -76.35941765

 SCS-MP2 correlation energy:           -0.29427308   (PS=  1.200000  PT=  0.333333)
 SCS-MP2 total energy:                -76.35921913

 ITER.      SQ.NORM     CORR.ENERGY   TOTAL ENERGY   ENERGY CHANGE        DEN1      VAR(S)    VAR(P)  DIIS     TIME  TIME/IT
   1      1.06415828    -0.29436192   -76.35930796     0.00010969     0.00605539  0.82D-03  0.10D-02  1  1  1775.82   385.00
   2      1.06773483    -0.29460352   -76.35954956    -0.00024160    -0.00495801  0.16D-04  0.12D-03  2  2  2152.44   387.44
   3      1.06916809    -0.29468330   -76.35962934    -0.00007979    -0.00102678  0.80D-05  0.68D-05  3  3  2528.36   388.09
   4      1.06965073    -0.29468155   -76.35962759     0.00000175    -0.00023496  0.52D-06  0.76D-06  4  4  2903.92   388.28
   5      1.06975623    -0.29467986   -76.35962590     0.00000169    -0.00003220  0.17D-06  0.53D-07  5  5  3279.92   388.39
   6      1.06979195    -0.29467732   -76.35962336     0.00000255    -0.00000777  0.18D-07  0.46D-08  6  6  3655.84   388.54
   7      1.06979985    -0.29467678   -76.35962282     0.00000053    -0.00000072  0.16D-08  0.81D-09  6  1  4032.45   388.65
   8      1.06980171    -0.29467667   -76.35962271     0.00000011    -0.00000010  0.25D-09  0.96D-10  6  2  4409.37   388.79
   9      1.06980239    -0.29467662   -76.35962267     0.00000004     0.00000007  0.20D-10  0.93D-11  6  3  4785.46   388.87
  10      1.06980253    -0.29467661   -76.35962266     0.00000001     0.00000003  0.22D-11  0.13D-11  6  4  5161.55   388.91
  11      1.06980254    -0.29467662   -76.35962266    -0.00000000     0.00000002  0.49D-12  0.16D-12  6  5  5538.36   388.96
  12      1.06980254    -0.29467662   -76.35962266    -0.00000000     0.00000001  0.86D-13  0.26D-13  6  6  5914.15   388.97
  13      1.06980253    -0.29467662   -76.35962266    -0.00000000     0.00000000  0.16D-13  0.49D-14  6  1  6289.83   388.95
  14      1.06980253    -0.29467662   -76.35962266    -0.00000000     0.00000000  0.18D-14  0.78D-15  6  2  6666.09   388.97
  15      1.06980253    -0.29467662   -76.35962266    -0.00000000    -0.00000000  0.21D-15  0.13D-15  6  3  7041.65   388.96
  16      1.06980253    -0.29467662   -76.35962266    -0.00000000    -0.00000000  0.52D-16  0.21D-16  6  4  7417.19   388.93

 Norm of t1 vector:      0.03760294      S-energy:    -0.00000000      T1 diagnostic:  0.00940073
                                                                       D1 diagnostic:  0.01942345


 Total CPU time for triples:   3482.13 sec


 RESULTS
 =======

  Reference energy                    -76.064946041237
  CCSD singlet pair energy             -0.204271157875
  CCSD triplet pair energy             -0.090405459251
  CCSD correlation energy              -0.294676617781

  Triples (T) contribution             -0.009870721326
  Total correlation energy             -0.304547339108

  CCSD total energy                   -76.359622659018
  CCSD[T] energy                      -76.369806514850
  CCSD-T energy                       -76.369348289171
 !CCSD(T) total energy                -76.369493380345

 Timing summary (sec):

 STEP                 CPU(USER)    SYS     CPU(TOT)    WALL
 Transformation       1403.10     45.80   1448.90   1450.75
 CCSD iterations      6014.47    201.80   6216.27   6223.73
 Triples              3482.13     87.75   3569.88   3573.78

 Program statistics:

 Available memory in ccsd:              1999999921
 Min. memory needed in ccsd:              19268142
 Max. memory used in ccsd:                22427508
 Max. memory used in cckext:              14646566 (16 integral passes)



 **********************************************************************************************************************************
 DATASETS  * FILE   NREC   LENGTH (MB)   RECORD NAMES
              1      19     6330.40       500      610      700      900      950      970     1000      129      960     1100   
                                          VAR    BASINP    GEOM    SYMINP    ZMAT    AOBASIS   BASIS     P2S    ABASIS      S 
                                         1400     1410     1200     1210     1080     1600     1650     1700     1380   
                                           T        V       H0       H01     AOSYM     SMH    MOLCAS    OPER     JKOP   

              2       6       38.39       700     1000      520     2100      200     2101   
                                         GEOM     BASIS   MCVARS     RHF    OPTIONS    RHF  

 PROGRAMS   *        TOTAL   CCSD(T)    HF-SCF       INT   CCSD(T)    HF-SCF       INT
 CPU TIMES  *     62650.38  10899.95   1893.37      0.93  45638.24   1459.97   2757.67
 REAL TIME  *     70297.13 SEC
 DISK USED  *        14.28 GB (local),      542.37 GB (total)
 SF USED    *        13.87 GB
 GA USED    *         0.00 MB       (max)       0.00 MB       (current)
 **********************************************************************************************************************************

 Running procedure: SET_MONOMER2

 Dummy atoms: O11  H21  H22


 Recomputing one-electron integrals since nuclear charges changed


 PROGRAM * SEWARD (Integral evaluation for generally contracted gaussian basis sets)     Author: Roland Lindh, 1990

 Geometry written to block  1 of record 700


 Point group  C1  



 ATOMIC COORDINATES

 NR  ATOM    CHARGE       X              Y              Z

   1  O11     0.00   -5.521590763    4.689166405    9.271374312
   2  H21     0.00   -3.831230745    4.709197502    8.531168589
   3  H22     0.00   -6.460595675    6.029171200    8.401722350
   4  C1      6.00   -6.193010455    2.801518980    2.403542658
   5  H41     1.00   -4.656285171    1.699997622    3.119937832
   6  H42     1.00   -5.973046335    4.726205038    2.982932688
   7  H43     1.00   -7.940251230    2.077186956    3.118237078
   8  H44     1.00   -6.176569838    2.685300823    0.384937212

 Bond lengths in Bohr (Angstrom)

 1-2  1.845432944  1-3  1.853007720  4-5  2.021904040  4-6  2.022002335  4-7  2.021953343
     ( 0.976561058)     ( 0.980569457)     ( 1.069945541)     ( 1.069997556)     ( 1.069971630)

 4-8  2.022015060
     ( 1.070004290)

 Bond angles

  2-1-3  105.54946434   5-4-6  109.53398059   5-4-7  109.65604535   5-4-8  108.43490854

  6-4-7  109.49436728   6-4-8  109.86987750   7-4-8  109.83468330

 NUCLEAR CHARGE:                   10
 NUMBER OF PRIMITIVE AOS:        1046
 NUMBER OF SYMMETRY AOS:          786
 NUMBER OF CONTRACTIONS:          734   (  734A   )
 NUMBER OF CORE ORBITALS:           1   (    1A   )
 NUMBER OF VALENCE ORBITALS:        8   (    8A   )

 MOLECULE CHANGED: INITIALIZING OCCUPATION AND DUMP RECORDS


 NUCLEAR REPULSION ENERGY   13.68681606

 Basis set:  JKFIT                   
 Basis size:  1104
 Attributes:
 Sphericals:   T
 Basis set:  MP2FIT                  
 Basis size:  1246
 Attributes:
 Sphericals:   T
 Basis set:  RI                      
 Basis size:   730
 Attributes:
 Sphericals:   T
 Basis set:  TDDFT                   
 Basis size:  1246
 Attributes:
 Sphericals:   T

 Eigenvalues of metric

         1 0.173E-05 0.182E-05 0.349E-05 0.446E-05 0.531E-05 0.721E-05 0.798E-05 0.879E-05


 Contracted 2-electron integrals neglected if value below      1.0D-14

 OPERATOR DM      FOR CENTER  0  COORDINATES:    0.000000    0.000000    0.000000


 **********************************************************************************************************************************
 DATASETS  * FILE   NREC   LENGTH (MB)   RECORD NAMES
              1      18       49.80       500      610      700      900      950      970     1000      129      960     1100   
                                          VAR    BASINP    GEOM    SYMINP    ZMAT    AOBASIS   BASIS     P2S    ABASIS      S 
                                         1400     1410     1200     1210     1080     1600     1650     1700   
                                           T        V       H0       H01     AOSYM     SMH    MOLCAS    OPER   

              2       6       38.39       700     1000      520     2100      200     2101   
                                         GEOM     BASIS   MCVARS     RHF    OPTIONS    RHF  

 PROGRAMS   *        TOTAL       INT   CCSD(T)    HF-SCF       INT   CCSD(T)    HF-SCF       INT
 CPU TIMES  *     62651.27      0.88  10899.95   1893.37      0.93  45638.24   1459.97   2757.67
 REAL TIME  *     70298.65 SEC
 DISK USED  *        14.28 GB (local),      542.37 GB (total)
 SF USED    *        13.87 GB
 GA USED    *         0.00 MB       (max)       0.00 MB       (current)
 **********************************************************************************************************************************


 PROGRAM * RHF-SCF (CLOSED SHELL)       Authors: W. Meyer, H.-J. Werner


 NUMBER OF ELECTRONS:       5+    5-    SPACE SYMMETRY=1    SPIN SYMMETRY: Singlet 
 CONVERGENCE THRESHOLDS:    1.00E-08 (Density)    1.00E-11 (Energy)
 MAX. NUMBER OF ITERATIONS:       60
 INTERPOLATION TYPE:            DIIS
 INTERPOLATION STEPS:              2 (START)      1 (STEP)
 LEVEL SHIFTS:                  0.00 (CLOSED)  0.00 (OPEN) 



 Orbital guess generated from atomic densities. Full valence occupancy:    9

 Molecular orbital dump at record        2102.2

 Initial occupancy:   5

 ITERATION    DDIFF          GRAD             ENERGY        2-EL.EN.            DIPOLE MOMENTS         DIIS   ORB.
    1      0.000D+00      0.000D+00       -40.19676525     53.509902    0.00411   -0.00276   -0.00131    0    start
    2      0.000D+00      0.198D-02       -40.21405745     52.218478    0.00128   -0.00088   -0.00038    1    diag
    3      0.945D-03      0.769D-03       -40.21634088     52.673985    0.00182   -0.00124   -0.00055    2    diag
    4      0.258D-03      0.192D-03       -40.21666120     52.619247    0.00162   -0.00110   -0.00048    3    diag
    5      0.978D-04      0.248D-04       -40.21666669     52.621405    0.00159   -0.00108   -0.00047    4    diag
    6      0.333D-04      0.204D-05       -40.21666673     52.621533    0.00159   -0.00108   -0.00047    5    diag
    7      0.608D-05      0.166D-06       -40.21666673     52.621496    0.00159   -0.00108   -0.00047    6    diag
    8      0.377D-06      0.136D-07       -40.21666673     52.621496    0.00159   -0.00108   -0.00047    7    diag
    9      0.552D-07      0.167D-08       -40.21666673     52.621496    0.00159   -0.00108   -0.00047    8    diag
   10      0.108D-07      0.465D-09       -40.21666673     52.621496    0.00159   -0.00108   -0.00047    9    orth
   11      0.120D-08      0.667D-10       -40.21666673     52.621496    0.00159   -0.00108   -0.00047    0    orth

 Final occupancy:   5

 !RHF STATE  1.1 Energy               -40.216666729291
 Nuclear energy                        13.68681606
 One-electron energy                  -80.21423097
 Two-electron energy                   26.31074819
 Virial quotient                       -0.99832815
 !RHF STATE  1.1 Dipole moment          0.00158574    -0.00108169    -0.00047297
 Dipole moment /Debye                   0.00403029    -0.00274920    -0.00120209

 Orbital energies:

         1.1          2.1          3.1          4.1          5.1          6.1          7.1
    -11.196017    -0.950605    -0.551931    -0.549996    -0.547818     0.021728     0.032282


 HOMO      5.1    -0.547818 =     -14.9069eV
 LUMO      6.1     0.021728 =       0.5913eV
 LUMO-HOMO         0.569546 =      15.4981eV


 **********************************************************************************************************************************
 DATASETS  * FILE   NREC   LENGTH (MB)   RECORD NAMES
              1      18       49.80       500      610      700      900      950      970     1000      129      960     1100   
                                          VAR    BASINP    GEOM    SYMINP    ZMAT    AOBASIS   BASIS     P2S    ABASIS      S 
                                         1400     1410     1200     1210     1080     1600     1650     1700   
                                           T        V       H0       H01     AOSYM     SMH    MOLCAS    OPER   

              2       7       62.47       700     1000      520     2100      200     2101     2102   
                                         GEOM     BASIS   MCVARS     RHF    OPTIONS    RHF      RHF  

 PROGRAMS   *        TOTAL    HF-SCF       INT   CCSD(T)    HF-SCF       INT   CCSD(T)    HF-SCF       INT
 CPU TIMES  *     64127.88   1476.61      0.88  10899.95   1893.37      0.93  45638.24   1459.97   2757.67
 REAL TIME  *     73062.34 SEC
 DISK USED  *        14.28 GB (local),      542.37 GB (total)
 SF USED    *        13.87 GB
 GA USED    *         0.00 MB       (max)       0.00 MB       (current)
 **********************************************************************************************************************************

 Basis set:  JKFIT                   
 Basis size:  1104
 Attributes:
 Sphericals:   T
 Basis set:  MP2FIT                  
 Basis size:  1246
 Attributes:
 Sphericals:   T
 Basis set:  RI                      
 Basis size:   730
 Attributes:
 Sphericals:   T
 Basis set:  TDDFT                   
 Basis size:  1246
 Attributes:
 Sphericals:   T

 PROGRAM * CCSD (Closed-shell coupled cluster)     Authors: C. Hampel, H.-J. Werner, 1991, M. Deegan, P.J. Knowles, 1992


 Convergence thresholds:  THRVAR = 1.00D-08  THRDEN = 1.00D-10

 CCSD(T)     terms to be evaluated (factor= 1.000)


 Number of core orbitals:           1 (   1 )
 Number of closed-shell orbitals:   4 (   4 )
 Number of external orbitals:     729 ( 729 )

 Molecular orbitals read from record     2102.2  Type=RHF/CANONICAL (state 1.1)

 Number of N-1 electron functions:               4
 Number of N-2 electron functions:              10
 Number of singly external CSFs:              2916
 Number of doubly external CSFs:           4252986
 Total number of CSFs:                     4255903

 Length of J-op  integral file:               0.00 MB
 Length of K-op  integral file:              37.04 MB
 Length of 3-ext integral record:             0.00 MB

 For full I/O caching in triples, increase memory by 535.09 Mwords to 2535.14 Mwords.

 Integral transformation finished. Total CPU:1407.34 sec, npass=  1  Memory used:1010.01 MW

 Reference energy:                    -40.21666673

 MP2 singlet pair energy:              -0.15787749
 MP2 triplet pair energy:              -0.05682285
 MP2 correlation energy:               -0.21470034
 MP2 total energy:                    -40.43136707

 SCS-MP2 correlation energy:           -0.22480943   (PS=  1.200000  PT=  0.333333)
 SCS-MP2 total energy:                -40.44147616

 ITER.      SQ.NORM     CORR.ENERGY   TOTAL ENERGY   ENERGY CHANGE        DEN1      VAR(S)    VAR(P)  DIIS     TIME  TIME/IT
   1      1.07073127    -0.22924275   -40.44590948    -0.01454241    -0.00881028  0.58D-03  0.96D-03  1  1  1753.21   410.77
   2      1.07565301    -0.23033747   -40.44700420    -0.00109472    -0.00537199  0.15D-04  0.11D-03  2  2  2106.03   418.14
   3      1.07738964    -0.23037797   -40.44704470    -0.00004050    -0.00128251  0.20D-05  0.63D-05  3  3  2464.98   421.73
   4      1.07778001    -0.23037970   -40.44704643    -0.00000173    -0.00020100  0.14D-06  0.36D-06  4  4  2827.64   424.35
   5      1.07783439    -0.23038346   -40.44705019    -0.00000376    -0.00001098  0.13D-07  0.24D-07  5  5  3185.35   425.04
   6      1.07784452    -0.23038215   -40.44704888     0.00000131    -0.00000413  0.79D-09  0.17D-08  6  6  3514.43   442.58
   7      1.07784586    -0.23038178   -40.44704850     0.00000038    -0.00000075  0.53D-10  0.13D-09  6  1  3872.26   440.79
   8      1.07784578    -0.23038183   -40.44704856    -0.00000005     0.00000024  0.57D-11  0.85D-11  6  3  4230.40   439.50
   9      1.07784592    -0.23038181   -40.44704854     0.00000002    -0.00000009  0.42D-12  0.61D-12  6  2  4584.69   438.39
  10      1.07784592    -0.23038181   -40.44704854     0.00000000     0.00000001  0.56D-13  0.64D-13  6  4  4939.12   437.48
  11      1.07784592    -0.23038181   -40.44704854     0.00000000     0.00000000  0.57D-14  0.64D-14  6  5  5296.40   436.96
  12      1.07784592    -0.23038181   -40.44704854     0.00000000     0.00000000  0.17D-15  0.66D-15  6  6  5652.21   436.59
  13      1.07784592    -0.23038181   -40.44704854    -0.00000000     0.00000000  0.15D-16  0.75D-16  6  1  6008.35   436.25
  14      1.07784592    -0.23038181   -40.44704854    -0.00000000     0.00000000  0.32D-17  0.14D-16  6  3  6360.98   435.73

 Norm of t1 vector:      0.03185996      S-energy:    -0.00000000      T1 diagnostic:  0.00796499
                                                                       D1 diagnostic:  0.01279384

 Total CPU time for triples:   3502.55 sec


 RESULTS
 =======

  Reference energy                    -40.216666729289
  CCSD singlet pair energy             -0.175399750432
  CCSD triplet pair energy             -0.054982059672
  CCSD correlation energy              -0.230381810106

  Triples (T) contribution             -0.007018697878
  Total correlation energy             -0.237400507983

  CCSD total energy                   -40.447048539395
  CCSD[T] energy                      -40.454291077365
  CCSD-T energy                       -40.454000282189
 !CCSD(T) total energy                -40.454067237273

 Timing summary (sec):

 STEP                 CPU(USER)    SYS     CPU(TOT)    WALL
 Transformation       1409.17     55.35   1464.52   1524.31
 CCSD iterations      4952.20    293.63   5245.83   6101.13
 Triples              3502.55     85.94   3588.49   3618.72

 Program statistics:

 Available memory in ccsd:              1999999916
 Min. memory needed in ccsd:              19268142
 Max. memory used in ccsd:                22427508
 Max. memory used in cckext:              14646566 (14 integral passes)



 **********************************************************************************************************************************
 DATASETS  * FILE   NREC   LENGTH (MB)   RECORD NAMES
              1      19     6330.40       500      610      700      900      950      970     1000      129      960     1100   
                                          VAR    BASINP    GEOM    SYMINP    ZMAT    AOBASIS   BASIS     P2S    ABASIS      S 
                                         1400     1410     1200     1210     1080     1600     1650     1700     1380   
                                           T        V       H0       H01     AOSYM     SMH    MOLCAS    OPER     JKOP   

              2       7       62.47       700     1000      520     2100      200     2101     2102   
                                         GEOM     BASIS   MCVARS     RHF    OPTIONS    RHF      RHF  

 PROGRAMS   *        TOTAL   CCSD(T)    HF-SCF       INT   CCSD(T)    HF-SCF       INT   CCSD(T)    HF-SCF       INT
 CPU TIMES  *     73992.07   9864.19   1476.61      0.88  10899.95   1893.37      0.93  45638.24   1459.97   2757.67
 REAL TIME  *     84307.32 SEC
 DISK USED  *        14.28 GB (local),      542.37 GB (total)
 SF USED    *        13.87 GB
 GA USED    *         0.00 MB       (max)       0.00 MB       (current)
 **********************************************************************************************************************************
 Molecular orbitals read from record     2102.2  Type=RHF/CANONICAL (state 1.1)
 Occupation numbers read from record     2102.2  Type=RHF/RHF (state 1.1)
 Orbital energies read from record       2102.2  Type=RHF/CANONICAL (state 1.1)
 Redundancy group numbers read from rec  2102.2  Type=RHF/RHF (state 1.1)

 CCSD(T)/aug-cc-pV5Z energy=    -40.454067237273

         CCSD(T)          HF-SCF         CCSD(T)          HF-SCF         CCSD(T)          HF-SCF
    -40.45406724    -40.21666673    -76.36949338    -76.06494604   -116.82398351   -116.28120312
 **********************************************************************************************************************************
 Molpro calculation terminated
