
 Primary working directories    : /scratch/klimes/415918/molpro.EYBIrLH2Or
 Secondary working directories  : /scratch/klimes/415918/molpro.EYBIrLH2Or
 Wavefunction directory         : /scratch/klimes/415918/
 Main file repository           : /scratch/klimes/415918/molpro.EYBIrLH2Or/

 id        : karlovklimes

 Nodes                      nprocs
 nc-22.cc.karlov.mff.cuni.cz    4

 Using customized tuning parameters: mindgm=1; mindgv=20; mindgc=4; mindgr=1; noblas=0; minvec=7
 default implementation of scratch files=sf  


 Variables initialized (930), CPU time= 0.01 sec
                                                                                 !gdirect
 memory,2000,m
 gthresh,orbital=1d-10,energy=1d-10,grid=1d-8
 
 symmetry,nosym
 angstrom
 geometry={
 O12        -3.033300000000      5.280000000000      1.506600000000
 H23        -3.438200000000      5.030900000000      0.655500000000
 H24        -2.124100000000      4.895600000000      1.489400000000
 C1        -3.277200000000      1.482500000000      1.271900000000
 H41        -2.464000000000      0.899600000000      1.651000000000
 H42        -3.160800000000      2.501000000000      1.578500000000
 H43        -4.201800000000      1.099200000000      1.650100000000
 H44        -3.268500000000      1.421000000000      0.203700000000
 }
 
 nkerna=1
 nkernb=1
 
 gf=0
 sing=1
 thrdum=1d-4
 gridthr=1d-8
 
 basis={
 set,orbital
 default,av5z
 set,jkfit
 default,av5z/jkfit
 set,mp2fit
 default,av5z/mp2fit
 set,ri
 default,av5z/optri
 set,tddft
 default,av5z/mp2fit
 }
 
 proc set_monomer1
 dummy,4,5,6,7,8
 endproc
 
 proc set_monomer2
 dummy,1,2,3
 endproc
 
                                                                                 !1234 energy
 {hf,accu=1.d-16}
 ccsd(t)
 
 set_monomer1
 {hf,accu=1.d-16}
 ccsd(t)
 
 set_monomer2
 {hf,accu=1.d-16}
 ccsd(t)
 
 Commands  initialized (760), CPU time= 0.02 sec, 617 directives.
 Default parameters read. Elapsed time= 0.20 sec

 Checking input...
 Passed
1


                                         ***  PROGRAM SYSTEM MOLPRO  ***
                                       Copyright, TTI GmbH Stuttgart, 2015
                                    Version 2019.1 linked Jan 14 2019 13:09:19


 **********************************************************************************************************************************
 LABEL *                                                                                 
  64 bit mpp version                                                                     DATE: 16-Mar-20          TIME: 11:01:30  
 **********************************************************************************************************************************

 SHA1:             d688ac825633d238f2093ded1675ba87ccd55965
 **********************************************************************************************************************************

 THRESHOLDS:

 ZERO    =  1.00D-12  ONEINT  =  1.00D-12  TWOINT  =  1.00D-11  PREFAC  =  1.00D-14  XXXXXX  =  1.00D-09  EORDER  =  1.00D-04
 ENERGY  =  1.00D-10  ETEST   =  0.00D+00  EDENS   =  0.00D+00  THRDEDEF=  1.00D-06  GRADIENT=  1.00D-02  STEP    =  1.00D-03
 ORBITAL =  1.00D-10  CIVEC   =  1.00D-05  COEFF   =  1.00D-04  PRINTCI =  5.00D-02  PUNCHCI =  9.90D+01  OPTGRAD =  3.00D-04
 OPTENERG=  1.00D-06  OPTSTEP =  3.00D-04  THRGRAD =  1.00D-10  COMPRESS=  1.00D-11  VARMIN  =  1.00D-07  VARMAX  =  1.00D-03
 THRDOUB =  0.00D+00  THRDIV  =  1.00D-05  THRRED  =  1.00D-07  THRPSP  =  1.00D+00  THRDC   =  1.00D-10  THRCS   =  1.00D-10
 THRNRM  =  1.00D-08  THREQ   =  0.00D+00  THRDE   =  1.00D+00  THRREF  =  1.00D-05  SPARFAC =  1.00D+00  THRDLP  =  1.00D-07
 THRDIA  =  1.00D-10  THRDLS  =  1.00D-07  THRGPS  =  0.00D+00  THRKEX  =  0.00D+00  THRDIS  =  2.00D-01  THRVAR  =  1.00D-10
 THRLOC  =  1.00D-06  THRGAP  =  1.00D-06  THRLOCT = -1.00D+00  THRGAPT = -1.00D+00  THRORB  =  1.00D-06  THRMLTP =  0.00D+00
 THRCPQCI=  1.00D-10  KEXTA   =  0.00D+00  THRCOARS=  0.00D+00  SYMTOL  =  1.00D-06  GRADTOL =  1.00D-06  THROVL  =  1.00D-08
 THRORTH =  1.00D-08  GRID    =  1.00D-08  GRIDMAX =  1.00D-03  DTMAX   =  0.00D+00  THROCCDE=  1.00D-01  THROCCDE=  1.00D-01
 THRPRINT=  2.50D-01


 Variable memory set to 2000000000 words,  buffer space 

 ZSYMEL=NOSYM
 ZUNIT=ANG


Geometry recognized as XYZ

 SETTING NKERNA         =         1.00000000                                  
 SETTING NKERNB         =         1.00000000                                  
 SETTING GF             =     0.00000000D+00                                  
 SETTING SING           =         1.00000000                                  
 SETTING THRDUM         =     1.00000000D-04                                  
 SETTING GRIDTHR        =     1.00000000D-08                                  
 SETTING BASIS          =    AV5Z


 Recomputing integrals since basis changed


 Using spherical harmonics

 Library entry O      S aug-cc-pV5Z          selected for orbital group  1
 Library entry O      P aug-cc-pV5Z          selected for orbital group  1
 Library entry O      D aug-cc-pV5Z          selected for orbital group  1
 Library entry O      F aug-cc-pV5Z          selected for orbital group  1
 Library entry O      G aug-cc-pV5Z          selected for orbital group  1
 Library entry O      H aug-cc-pV5Z          selected for orbital group  1
 Library entry H      S aug-cc-pV5Z          selected for orbital group  2
 Library entry H      P aug-cc-pV5Z          selected for orbital group  2
 Library entry H      D aug-cc-pV5Z          selected for orbital group  2
 Library entry H      F aug-cc-pV5Z          selected for orbital group  2
 Library entry H      G aug-cc-pV5Z          selected for orbital group  2
 Library entry C      S aug-cc-pV5Z          selected for orbital group  3
 Library entry C      P aug-cc-pV5Z          selected for orbital group  3
 Library entry C      D aug-cc-pV5Z          selected for orbital group  3
 Library entry C      F aug-cc-pV5Z          selected for orbital group  3
 Library entry C      G aug-cc-pV5Z          selected for orbital group  3
 Library entry C      H aug-cc-pV5Z          selected for orbital group  3


 PROGRAM * SEWARD (Integral evaluation for generally contracted gaussian basis sets)     Author: Roland Lindh, 1990

 Geometry written to block  1 of record 700


 Point group  C1  



 ATOMIC COORDINATES

 NR  ATOM    CHARGE       X              Y              Z

   1  O12     8.00   -5.732106254    9.977753938    2.847061379
   2  H23     1.00   -6.497256361    9.507023160    1.238715475
   3  H24     1.00   -4.013967261    9.251343215    2.814558090
   4  C1      6.00   -6.193010455    2.801518980    2.403542658
   5  H41     1.00   -4.656285171    1.699997622    3.119937832
   6  H42     1.00   -5.973046335    4.726205038    2.982932688
   7  H43     1.00   -7.940251230    2.077186956    3.118237078
   8  H44     1.00   -6.176569838    2.685300823    0.384937212

 Bond lengths in Bohr (Angstrom)

 1-2  1.842231989  1-3  1.865671621  4-5  2.021904040  4-6  2.022002335  4-7  2.021953343
     ( 0.974867186)     ( 0.987270905)     ( 1.069945541)     ( 1.069997556)     ( 1.069971630)

 4-8  2.022015060
     ( 1.070004290)

 Bond angles

  2-1-3  105.53314040   5-4-6  109.53398059   5-4-7  109.65604535   5-4-8  108.43490854

  6-4-7  109.49436728   6-4-8  109.86987750   7-4-8  109.83468330

 NUCLEAR CHARGE:                   20
 NUMBER OF PRIMITIVE AOS:        1046
 NUMBER OF SYMMETRY AOS:          786
 NUMBER OF CONTRACTIONS:          734   (  734A   )
 NUMBER OF CORE ORBITALS:           2   (    2A   )
 NUMBER OF VALENCE ORBITALS:       14   (   14A   )


 NUCLEAR REPULSION ENERGY   36.75387538


 Basis set:  JKFIT                   
 Basis size:  1104
 Attributes:
 Sphericals:   T
 Basis set:  MP2FIT                  
 Basis size:  1246
 Attributes:
 Sphericals:   T
 Basis set:  RI                      
 Basis size:   730
 Attributes:
 Sphericals:   T
 Basis set:  TDDFT                   
 Basis size:  1246
 Attributes:
 Sphericals:   T

 **********************************************************************************************************************************


 Eigenvalues of metric

         1 0.146E-05 0.191E-05 0.307E-05 0.396E-05 0.491E-05 0.623E-05 0.806E-05 0.911E-05


 Contracted 2-electron integrals neglected if value below      1.0D-14
 AO integral compression algorithm  1   Integral accuracy      1.0D-14

     154939.949 MB (compressed) written to integral file ( 49.1%)

     Node minimum: 37173.068 MB, node maximum: 39380.320 MB


 NUMBER OF SORTED TWO-ELECTRON INTEGRALS: 9095363064.     BUFFER LENGTH:  32768
 NUMBER OF SEGMENTS: 190  SEGMENT LENGTH:   47999780      RECORD LENGTH: 131072

 Memory used in sort:      48.16 MW

 SORT1 READ 39471948705. AND WROTE  7112184074. INTEGRALS IN  81490 RECORDS. CPU TIME:  1091.20 SEC, REAL TIME:  1351.36 SEC
 SORT2 READ 28456073257. AND WROTE 36381317385. INTEGRALS IN 595272 RECORDS. CPU TIME:   103.61 SEC, REAL TIME:  2294.02 SEC

 Node minimum:  9095228192.  Node maximum:  9095430501. integrals

 OPERATOR DM      FOR CENTER  0  COORDINATES:    0.000000    0.000000    0.000000


 **********************************************************************************************************************************
 DATASETS  * FILE   NREC   LENGTH (MB)   RECORD NAMES
              1      18       49.80       500      610      700      900      950      970     1000      129      960     1100   
                                          VAR    BASINP    GEOM    SYMINP    ZMAT    AOBASIS   BASIS     P2S    ABASIS      S 
                                         1400     1410     1200     1210     1080     1600     1650     1700   
                                           T        V       H0       H01     AOSYM     SMH    MOLCAS    OPER   

 PROGRAMS   *        TOTAL       INT
 CPU TIMES  *      2433.00   2432.76
 REAL TIME  *      4967.29 SEC
 DISK USED  *        50.44 MB (local),      496.26 GB (total)
 GA USED    *         0.00 MB       (max)       0.00 MB       (current)
 **********************************************************************************************************************************


 PROGRAM * RHF-SCF (CLOSED SHELL)       Authors: W. Meyer, H.-J. Werner


 NUMBER OF ELECTRONS:      10+   10-    SPACE SYMMETRY=1    SPIN SYMMETRY: Singlet 
 CONVERGENCE THRESHOLDS:    1.00E-08 (Density)    1.00E-11 (Energy)
 MAX. NUMBER OF ITERATIONS:       60
 INTERPOLATION TYPE:            DIIS
 INTERPOLATION STEPS:              2 (START)      1 (STEP)
 LEVEL SHIFTS:                  0.00 (CLOSED)  0.00 (OPEN) 



 Orbital guess generated from atomic densities. Full valence occupancy:   16

 Molecular orbital dump at record        2100.2

 Initial occupancy:  10

 ITERATION    DDIFF          GRAD             ENERGY        2-EL.EN.            DIPOLE MOMENTS         DIIS   ORB.
    1      0.000D+00      0.000D+00      -116.22254379    158.889758    0.49590   -0.60725   -0.83979    0    start
    2      0.000D+00      0.290D-02      -116.26647156    154.106542    0.26026   -0.35538   -0.45870    1    diag
    3      0.161D-02      0.170D-02      -116.27989969    156.118774    0.32020   -0.41698   -0.55552    2    diag
    4      0.554D-03      0.256D-03      -116.28056267    156.004740    0.31533   -0.40936   -0.54755    3    diag
    5      0.129D-03      0.752D-04      -116.28063330    156.000025    0.31466   -0.40927   -0.54680    4    diag
    6      0.532D-04      0.184D-04      -116.28063743    156.005627    0.31421   -0.40898   -0.54606    5    diag
    7      0.187D-04      0.387D-05      -116.28063769    156.003896    0.31418   -0.40904   -0.54605    6    diag
    8      0.535D-05      0.101D-05      -116.28063772    156.004089    0.31413   -0.40904   -0.54599    7    diag
    9      0.123D-05      0.231D-06      -116.28063772    156.004060    0.31411   -0.40904   -0.54597    8    diag
   10      0.347D-06      0.290D-07      -116.28063772    156.004061    0.31411   -0.40904   -0.54597    9    orth
   11      0.602D-07      0.768D-08      -116.28063772    156.004062    0.31411   -0.40904   -0.54597    9    diag
   12      0.643D-08      0.217D-08      -116.28063772    156.004062    0.31411   -0.40904   -0.54597    0    orth

 Final occupancy:  10

 !RHF STATE  1.1 Energy              -116.280637716366
 Nuclear energy                        36.75387538
 One-electron energy                 -231.03654419
 Two-electron energy                   78.00203110
 Virial quotient                       -1.00070468
 !RHF STATE  1.1 Dipole moment          0.31411149    -0.40903788    -0.54596881
 Dipole moment /Debye                   0.79833949    -1.03960249    -1.38762342

 Orbital energies:

         1.1          2.1          3.1          4.1          5.1          6.1          7.1          8.1          9.1         10.1
    -20.568021   -11.198420    -1.340909    -0.953744    -0.707546    -0.580191    -0.555378    -0.553563    -0.551259    -0.507210

        11.1         12.1
      0.019117     0.032427


 HOMO     10.1    -0.507210 =     -13.8019eV
 LUMO     11.1     0.019117 =       0.5202eV
 LUMO-HOMO         0.526328 =      14.3221eV


 **********************************************************************************************************************************
 DATASETS  * FILE   NREC   LENGTH (MB)   RECORD NAMES
              1      18       49.80       500      610      700      900      950      970     1000      129      960     1100   
                                          VAR    BASINP    GEOM    SYMINP    ZMAT    AOBASIS   BASIS     P2S    ABASIS      S 
                                         1400     1410     1200     1210     1080     1600     1650     1700   
                                           T        V       H0       H01     AOSYM     SMH    MOLCAS    OPER   

              2       4       13.79       700     1000      520     2100   
                                         GEOM     BASIS   MCVARS     RHF  

 PROGRAMS   *        TOTAL    HF-SCF       INT
 CPU TIMES  *      4034.36   1601.34   2432.76
 REAL TIME  *      8185.13 SEC
 DISK USED  *       102.61 MB (local),      496.47 GB (total)
 SF USED    *         2.16 MB
 GA USED    *         0.00 MB       (max)       0.00 MB       (current)
 **********************************************************************************************************************************

 Basis set:  JKFIT                   
 Basis size:  1104
 Attributes:
 Sphericals:   T
 Basis set:  MP2FIT                  
 Basis size:  1246
 Attributes:
 Sphericals:   T
 Basis set:  RI                      
 Basis size:   730
 Attributes:
 Sphericals:   T
 Basis set:  TDDFT                   
 Basis size:  1246
 Attributes:
 Sphericals:   T

 PROGRAM * CCSD (Closed-shell coupled cluster)     Authors: C. Hampel, H.-J. Werner, 1991, M. Deegan, P.J. Knowles, 1992


 Convergence thresholds:  THRVAR = 1.00D-08  THRDEN = 1.00D-10

 CCSD(T)     terms to be evaluated (factor= 1.000)


 Number of core orbitals:           2 (   2 )
 Number of closed-shell orbitals:   8 (   8 )
 Number of external orbitals:     724 ( 724 )

 Molecular orbitals read from record     2100.2  Type=RHF/CANONICAL (state 1.1)

 Number of N-1 electron functions:               8
 Number of N-2 electron functions:              36
 Number of singly external CSFs:              5792
 Number of doubly external CSFs:          16776528
 Total number of CSFs:                    16782321

 Length of J-op  integral file:               0.00 MB
 Length of K-op  integral file:              37.04 MB
 Length of 3-ext integral record:             0.00 MB

 For full I/O caching in triples, increase memory by 2034.74 Mwords to 4034.79 Mwords.

 Integral transformation finished. Total CPU:2774.07 sec, npass=  1  Memory used:1826.26 MW

 Reference energy:                   -116.28063772

 MP2 singlet pair energy:              -0.35044739
 MP2 triplet pair energy:              -0.15994878
 MP2 correlation energy:               -0.51039617
 MP2 total energy:                   -116.79103389

 SCS-MP2 correlation energy:           -0.52006055   (PS=  1.200000  PT=  0.333333)
 SCS-MP2 total energy:               -116.80069827

 ITER.      SQ.NORM     CORR.ENERGY   TOTAL ENERGY   ENERGY CHANGE        DEN1      VAR(S)    VAR(P)  DIIS     TIME  TIME/IT
   1      1.13536598    -0.52476203  -116.80539974    -0.01436586    -0.00264483  0.14D-02  0.20D-02  1  1  3916.73  1210.00
   2      1.14378191    -0.52609217  -116.80672989    -0.00133014    -0.01026654  0.31D-04  0.25D-03  2  2  5062.88  1223.07
   3      1.14709740    -0.52621810  -116.80685582    -0.00012593    -0.00238180  0.12D-04  0.14D-04  3  3  6207.42  1226.61
   4      1.14801049    -0.52621384  -116.80685156     0.00000426    -0.00046282  0.66D-06  0.13D-05  4  4  7355.16  1226.83
   5      1.14818067    -0.52621567  -116.80685339    -0.00000183    -0.00004590  0.22D-06  0.93D-07  5  5  8501.59  1226.68
   6      1.14822998    -0.52621266  -116.80685037     0.00000301    -0.00001067  0.23D-07  0.79D-08  6  6  9655.59  1226.82
   7      1.14824088    -0.52621135  -116.80684907     0.00000130    -0.00000228  0.22D-08  0.11D-08  6  2 10806.17  1230.42
   8      1.14824345    -0.52621112  -116.80684883     0.00000024    -0.00000025  0.39D-09  0.12D-09  6  1 11924.78  1238.08
   9      1.14824442    -0.52621106  -116.80684878     0.00000005    -0.00000001  0.34D-10  0.17D-10  6  3 13066.89  1237.84
  10      1.14824457    -0.52621106  -116.80684878    -0.00000000     0.00000009  0.37D-11  0.26D-11  6  4 14214.94  1236.68
  11      1.14824454    -0.52621107  -116.80684879    -0.00000001     0.00000008  0.65D-12  0.33D-12  6  5 15385.61  1234.37
  12      1.14824452    -0.52621107  -116.80684879    -0.00000000     0.00000002  0.11D-12  0.41D-13  6  6 16559.89  1232.17
  13      1.14824450    -0.52621107  -116.80684879    -0.00000000     0.00000001  0.21D-13  0.62D-14  6  2 17732.21  1229.86
  14      1.14824450    -0.52621107  -116.80684879    -0.00000000     0.00000000  0.34D-14  0.13D-14  6  1 18903.43  1227.70
  15      1.14824450    -0.52621107  -116.80684879    -0.00000000    -0.00000000  0.46D-15  0.22D-15  6  3 20077.09  1225.87
  16      1.14824450    -0.52621107  -116.80684879    -0.00000000    -0.00000000  0.10D-15  0.41D-16  6  4 21251.43  1224.12
  17      1.14824450    -0.52621107  -116.80684879     0.00000000    -0.00000000  0.39D-16  0.13D-16  6  5 22424.97  1222.51

 Norm of t1 vector:      0.05021575      S-energy:    -0.00000000      T1 diagnostic:  0.00887697
                                                                       D1 diagnostic:  0.02041227

   CPU time for triples:   3436.83 sec for i =  1 -  3 /  8 (~   6.2 % done)
   CPU time for triples:   3443.05 sec for i =  4 -  5 /  8 (~  26.8 % done)
   CPU time for triples:   3440.30 sec for i =  6 -  6 /  8 (~  44.6 % done)
   CPU time for triples:   5997.41 sec for i =  7 -  7 /  8 (~  68.8 % done)
   CPU time for triples:   7656.72 sec for i =  8 -  8 /  8 (  100.0 % done)

 Total CPU time for triples:  23993.33 sec


 RESULTS
 =======

  Reference energy                   -116.280637716367
  CCSD singlet pair energy             -0.379949861532
  CCSD triplet pair energy             -0.146261212874
  CCSD correlation energy              -0.526211074872

  Triples (T) contribution             -0.017112074908
  Total correlation energy             -0.543323149781

  CCSD total energy                  -116.806848791239
  CCSD[T] energy                     -116.824505359885
  CCSD-T energy                      -116.823744123500
 !CCSD(T) total energy               -116.823960866148

 Timing summary (sec):

 STEP                 CPU(USER)    SYS     CPU(TOT)    WALL
 Transformation       2779.84    101.12   2880.96   2942.14
 CCSD iterations     19645.57    438.70  20084.27  20783.74
 Triples             23993.33    507.53  24500.86  24530.19

 Program statistics:

 Available memory in ccsd:              1999999734
 Min. memory needed in ccsd:              48755833
 Max. memory used in ccsd:                63342105
 Max. memory used in cckext:              42809278 (17 integral passes)



 **********************************************************************************************************************************
 DATASETS  * FILE   NREC   LENGTH (MB)   RECORD NAMES
              1      19    12452.38       500      610      700      900      950      970     1000      129      960     1100   
                                          VAR    BASINP    GEOM    SYMINP    ZMAT    AOBASIS   BASIS     P2S    ABASIS      S 
                                         1400     1410     1200     1210     1080     1600     1650     1700     1380   
                                           T        V       H0       H01     AOSYM     SMH    MOLCAS    OPER     JKOP   

              2       4       13.79       700     1000      520     2100   
                                         GEOM     BASIS   MCVARS     RHF  

 PROGRAMS   *        TOTAL   CCSD(T)    HF-SCF       INT
 CPU TIMES  *     50453.39  46419.03   1601.34   2432.76
 REAL TIME  *     56442.66 SEC
 DISK USED  *        14.28 GB (local),      547.74 GB (total)
 SF USED    *        13.87 GB
 GA USED    *         0.00 MB       (max)       0.00 MB       (current)
 **********************************************************************************************************************************

 Running procedure: SET_MONOMER1

 Dummy atoms: C1  H41  H42  H43  H44


 Recomputing one-electron integrals since nuclear charges changed


 PROGRAM * SEWARD (Integral evaluation for generally contracted gaussian basis sets)     Author: Roland Lindh, 1990

 Geometry written to block  1 of record 700


 Point group  C1  



 ATOMIC COORDINATES

 NR  ATOM    CHARGE       X              Y              Z

   1  O12     8.00   -5.732106254    9.977753938    2.847061379
   2  H23     1.00   -6.497256361    9.507023160    1.238715475
   3  H24     1.00   -4.013967261    9.251343215    2.814558090
   4  C1      0.00   -6.193010455    2.801518980    2.403542658
   5  H41     0.00   -4.656285171    1.699997622    3.119937832
   6  H42     0.00   -5.973046335    4.726205038    2.982932688
   7  H43     0.00   -7.940251230    2.077186956    3.118237078
   8  H44     0.00   -6.176569838    2.685300823    0.384937212

 Bond lengths in Bohr (Angstrom)

 1-2  1.842231989  1-3  1.865671621  4-5  2.021904040  4-6  2.022002335  4-7  2.021953343
     ( 0.974867186)     ( 0.987270905)     ( 1.069945541)     ( 1.069997556)     ( 1.069971630)

 4-8  2.022015060
     ( 1.070004290)

 Bond angles

  2-1-3  105.53314040   5-4-6  109.53398059   5-4-7  109.65604535   5-4-8  108.43490854

  6-4-7  109.49436728   6-4-8  109.86987750   7-4-8  109.83468330

 NUCLEAR CHARGE:                   10
 NUMBER OF PRIMITIVE AOS:        1046
 NUMBER OF SYMMETRY AOS:          786
 NUMBER OF CONTRACTIONS:          734   (  734A   )
 NUMBER OF CORE ORBITALS:           1   (    1A   )
 NUMBER OF VALENCE ORBITALS:        6   (    6A   )

 MOLECULE CHANGED: INITIALIZING OCCUPATION AND DUMP RECORDS


 NUCLEAR REPULSION ENERGY    8.96929098

 Basis set:  JKFIT                   
 Basis size:  1104
 Attributes:
 Sphericals:   T
 Basis set:  MP2FIT                  
 Basis size:  1246
 Attributes:
 Sphericals:   T
 Basis set:  RI                      
 Basis size:   730
 Attributes:
 Sphericals:   T
 Basis set:  TDDFT                   
 Basis size:  1246
 Attributes:
 Sphericals:   T

 Eigenvalues of metric

         1 0.146E-05 0.191E-05 0.307E-05 0.396E-05 0.491E-05 0.623E-05 0.806E-05 0.911E-05


 Contracted 2-electron integrals neglected if value below      1.0D-14

 OPERATOR DM      FOR CENTER  0  COORDINATES:    0.000000    0.000000    0.000000


 **********************************************************************************************************************************
 DATASETS  * FILE   NREC   LENGTH (MB)   RECORD NAMES
              1      18       49.80       500      610      700      900      950      970     1000      129      960     1100   
                                          VAR    BASINP    GEOM    SYMINP    ZMAT    AOBASIS   BASIS     P2S    ABASIS      S 
                                         1400     1410     1200     1210     1080     1600     1650     1700   
                                           T        V       H0       H01     AOSYM     SMH    MOLCAS    OPER   

              2       5       24.61       700     1000      520     2100      200   
                                         GEOM     BASIS   MCVARS     RHF    OPTIONS    

 PROGRAMS   *        TOTAL       INT   CCSD(T)    HF-SCF       INT
 CPU TIMES  *     50454.33      0.93  46419.03   1601.34   2432.76
 REAL TIME  *     56445.43 SEC
 DISK USED  *        14.28 GB (local),      547.77 GB (total)
 SF USED    *        13.87 GB
 GA USED    *         0.00 MB       (max)       0.00 MB       (current)
 **********************************************************************************************************************************


 PROGRAM * RHF-SCF (CLOSED SHELL)       Authors: W. Meyer, H.-J. Werner


 NUMBER OF ELECTRONS:       5+    5-    SPACE SYMMETRY=1    SPIN SYMMETRY: Singlet 
 CONVERGENCE THRESHOLDS:    1.00E-08 (Density)    1.00E-11 (Energy)
 MAX. NUMBER OF ITERATIONS:       60
 INTERPOLATION TYPE:            DIIS
 INTERPOLATION STEPS:              2 (START)      1 (STEP)
 LEVEL SHIFTS:                  0.00 (CLOSED)  0.00 (OPEN) 



 Orbital guess generated from atomic densities. Full valence occupancy:    7

 Molecular orbital dump at record        2101.2

 Initial occupancy:   5

 ITERATION    DDIFF          GRAD             ENERGY        2-EL.EN.            DIPOLE MOMENTS         DIIS   ORB.
    1      0.000D+00      0.000D+00       -76.02580848     77.378409    0.49247   -0.61457   -0.83961    0    start
    2      0.000D+00      0.360D-02       -76.05259480     73.708601    0.28197   -0.35560   -0.48832    1    diag
    3      0.131D-02      0.230D-02       -76.06428013     75.341117    0.33383   -0.42018   -0.57644    2    diag
    4      0.496D-03      0.215D-03       -76.06447701     75.249362    0.33104   -0.41742   -0.57316    3    diag
    5      0.627D-04      0.607D-04       -76.06449852     75.263990    0.32997   -0.41639   -0.57197    4    diag
    6      0.199D-04      0.122D-04       -76.06449995     75.262887    0.32969   -0.41615   -0.57170    5    diag
    7      0.528D-05      0.250D-05       -76.06450002     75.263034    0.32961   -0.41607   -0.57162    6    diag
    8      0.148D-05      0.473D-06       -76.06450002     75.263022    0.32959   -0.41605   -0.57159    7    diag
    9      0.303D-06      0.653D-07       -76.06450002     75.263012    0.32959   -0.41604   -0.57158    8    diag
   10      0.496D-07      0.147D-07       -76.06450002     75.263015    0.32959   -0.41604   -0.57158    9    orth
   11      0.112D-07      0.266D-08       -76.06450002     75.263015    0.32959   -0.41604   -0.57158    9    diag
   12      0.174D-08      0.467D-09       -76.06450002     75.263015    0.32959   -0.41604   -0.57158    0    orth

 Final occupancy:   5

 !RHF STATE  1.1 Energy               -76.064500020250
 Nuclear energy                         8.96929098
 One-electron energy                 -122.66529828
 Two-electron energy                   37.63150728
 Virial quotient                       -1.00206780
 !RHF STATE  1.1 Dipole moment          0.32958654    -0.41604440    -0.57158204
 Dipole moment /Debye                   0.83767055    -1.05741012    -1.45272149

 Orbital energies:

         1.1          2.1          3.1          4.1          5.1          6.1          7.1
    -20.567644    -1.339990    -0.706787    -0.578418    -0.508302     0.014465     0.031029


 HOMO      5.1    -0.508302 =     -13.8316eV
 LUMO      6.1     0.014465 =       0.3936eV
 LUMO-HOMO         0.522767 =      14.2252eV


 **********************************************************************************************************************************
 DATASETS  * FILE   NREC   LENGTH (MB)   RECORD NAMES
              1      18       49.80       500      610      700      900      950      970     1000      129      960     1100   
                                          VAR    BASINP    GEOM    SYMINP    ZMAT    AOBASIS   BASIS     P2S    ABASIS      S 
                                         1400     1410     1200     1210     1080     1600     1650     1700   
                                           T        V       H0       H01     AOSYM     SMH    MOLCAS    OPER   

              2       6       38.39       700     1000      520     2100      200     2101   
                                         GEOM     BASIS   MCVARS     RHF    OPTIONS    RHF  

 PROGRAMS   *        TOTAL    HF-SCF       INT   CCSD(T)    HF-SCF       INT
 CPU TIMES  *     52621.91   2167.57      0.93  46419.03   1601.34   2432.76
 REAL TIME  *     58772.49 SEC
 DISK USED  *        14.28 GB (local),      547.77 GB (total)
 SF USED    *        13.87 GB
 GA USED    *         0.00 MB       (max)       0.00 MB       (current)
 **********************************************************************************************************************************

 Basis set:  JKFIT                   
 Basis size:  1104
 Attributes:
 Sphericals:   T
 Basis set:  MP2FIT                  
 Basis size:  1246
 Attributes:
 Sphericals:   T
 Basis set:  RI                      
 Basis size:   730
 Attributes:
 Sphericals:   T
 Basis set:  TDDFT                   
 Basis size:  1246
 Attributes:
 Sphericals:   T

 PROGRAM * CCSD (Closed-shell coupled cluster)     Authors: C. Hampel, H.-J. Werner, 1991, M. Deegan, P.J. Knowles, 1992


 Convergence thresholds:  THRVAR = 1.00D-08  THRDEN = 1.00D-10

 CCSD(T)     terms to be evaluated (factor= 1.000)


 Number of core orbitals:           1 (   1 )
 Number of closed-shell orbitals:   4 (   4 )
 Number of external orbitals:     729 ( 729 )

 Molecular orbitals read from record     2101.2  Type=RHF/CANONICAL (state 1.1)

 Number of N-1 electron functions:               4
 Number of N-2 electron functions:              10
 Number of singly external CSFs:              2916
 Number of doubly external CSFs:           4252986
 Total number of CSFs:                     4255903

 Length of J-op  integral file:               0.00 MB
 Length of K-op  integral file:              37.04 MB
 Length of 3-ext integral record:             0.00 MB

 For full I/O caching in triples, increase memory by 535.09 Mwords to 2535.14 Mwords.

 Integral transformation finished. Total CPU:1467.19 sec, npass=  1  Memory used:1010.01 MW

 Reference energy:                    -76.06450002

 MP2 singlet pair energy:              -0.19233220
 MP2 triplet pair energy:              -0.10234332
 MP2 correlation energy:               -0.29467552
 MP2 total energy:                    -76.35917554

 SCS-MP2 correlation energy:           -0.29447893   (PS=  1.200000  PT=  0.333333)
 SCS-MP2 total energy:                -76.35897895

 ITER.      SQ.NORM     CORR.ENERGY   TOTAL ENERGY   ENERGY CHANGE        DEN1      VAR(S)    VAR(P)  DIIS     TIME  TIME/IT
   1      1.06431953    -0.29453423   -76.35903425     0.00014129     0.00612077  0.82D-03  0.11D-02  1  1  1858.01   401.94
   2      1.06792258    -0.29477615   -76.35927617    -0.00024192    -0.00498162  0.16D-04  0.12D-03  2  2  2249.72   403.57
   3      1.06937192    -0.29485741   -76.35935743    -0.00008126    -0.00103512  0.81D-05  0.69D-05  3  3  2641.00   404.08
   4      1.06986022    -0.29485575   -76.35935577     0.00000167    -0.00023737  0.54D-06  0.78D-06  4  4  3033.19   404.64
   5      1.06996850    -0.29485404   -76.35935406     0.00000170    -0.00003330  0.17D-06  0.55D-07  5  5  3425.27   404.91
   6      1.07000489    -0.29485148   -76.35935150     0.00000256    -0.00000789  0.19D-07  0.47D-08  6  6  3816.94   405.04
   7      1.07001301    -0.29485093   -76.35935095     0.00000055    -0.00000076  0.16D-08  0.81D-09  6  1  4208.18   405.09
   8      1.07001488    -0.29485082   -76.35935084     0.00000012    -0.00000010  0.25D-09  0.97D-10  6  2  4598.85   405.04
   9      1.07001558    -0.29485077   -76.35935079     0.00000004     0.00000007  0.21D-10  0.94D-11  6  3  4990.56   405.11
  10      1.07001572    -0.29485076   -76.35935078     0.00000001     0.00000003  0.23D-11  0.13D-11  6  4  5381.74   405.16
  11      1.07001572    -0.29485077   -76.35935079    -0.00000000     0.00000002  0.52D-12  0.17D-12  6  5  5773.58   405.24
  12      1.07001572    -0.29485077   -76.35935079    -0.00000000     0.00000001  0.91D-13  0.27D-13  6  6  6165.15   405.28
  13      1.07001571    -0.29485077   -76.35935079    -0.00000000     0.00000000  0.16D-13  0.51D-14  6  1  6557.34   405.34
  14      1.07001571    -0.29485077   -76.35935079    -0.00000000     0.00000000  0.19D-14  0.80D-15  6  2  6948.38   405.35
  15      1.07001571    -0.29485077   -76.35935079    -0.00000000     0.00000000  0.21D-15  0.13D-15  6  3  7340.47   405.42
  16      1.07001571    -0.29485077   -76.35935079    -0.00000000    -0.00000000  0.48D-16  0.21D-16  6  4  7732.65   405.44

 Norm of t1 vector:      0.03777746      S-energy:    -0.00000000      T1 diagnostic:  0.00944436
                                                                       D1 diagnostic:  0.01952178


 Total CPU time for triples:   3494.23 sec


 RESULTS
 =======

  Reference energy                    -76.064500020253
  CCSD singlet pair energy             -0.204430760247
  CCSD triplet pair energy             -0.090420006452
  CCSD correlation energy              -0.294850766808

  Triples (T) contribution             -0.009898713509
  Total correlation energy             -0.304749480317

  CCSD total energy                   -76.359350787061
  CCSD[T] energy                      -76.369564877278
  CCSD-T energy                       -76.369103291313
 !CCSD(T) total energy                -76.369249500570

 Timing summary (sec):

 STEP                 CPU(USER)    SYS     CPU(TOT)    WALL
 Transformation       1469.12     48.82   1517.94   1520.19
 CCSD iterations      6263.90    216.05   6479.95   6487.97
 Triples              3494.23     76.16   3570.39   3574.25

 Program statistics:

 Available memory in ccsd:              1999999921
 Min. memory needed in ccsd:              19268142
 Max. memory used in ccsd:                22427508
 Max. memory used in cckext:              14646566 (16 integral passes)



 **********************************************************************************************************************************
 DATASETS  * FILE   NREC   LENGTH (MB)   RECORD NAMES
              1      19     6330.40       500      610      700      900      950      970     1000      129      960     1100   
                                          VAR    BASINP    GEOM    SYMINP    ZMAT    AOBASIS   BASIS     P2S    ABASIS      S 
                                         1400     1410     1200     1210     1080     1600     1650     1700     1380   
                                           T        V       H0       H01     AOSYM     SMH    MOLCAS    OPER     JKOP   

              2       6       38.39       700     1000      520     2100      200     2101   
                                         GEOM     BASIS   MCVARS     RHF    OPTIONS    RHF  

 PROGRAMS   *        TOTAL   CCSD(T)    HF-SCF       INT   CCSD(T)    HF-SCF       INT
 CPU TIMES  *     63849.43  11227.51   2167.57      0.93  46419.03   1601.34   2432.76
 REAL TIME  *     70356.44 SEC
 DISK USED  *        14.28 GB (local),      547.77 GB (total)
 SF USED    *        13.87 GB
 GA USED    *         0.00 MB       (max)       0.00 MB       (current)
 **********************************************************************************************************************************

 Running procedure: SET_MONOMER2

 Dummy atoms: O12  H23  H24


 Recomputing one-electron integrals since nuclear charges changed


 PROGRAM * SEWARD (Integral evaluation for generally contracted gaussian basis sets)     Author: Roland Lindh, 1990

 Geometry written to block  1 of record 700


 Point group  C1  



 ATOMIC COORDINATES

 NR  ATOM    CHARGE       X              Y              Z

   1  O12     0.00   -5.732106254    9.977753938    2.847061379
   2  H23     0.00   -6.497256361    9.507023160    1.238715475
   3  H24     0.00   -4.013967261    9.251343215    2.814558090
   4  C1      6.00   -6.193010455    2.801518980    2.403542658
   5  H41     1.00   -4.656285171    1.699997622    3.119937832
   6  H42     1.00   -5.973046335    4.726205038    2.982932688
   7  H43     1.00   -7.940251230    2.077186956    3.118237078
   8  H44     1.00   -6.176569838    2.685300823    0.384937212

 Bond lengths in Bohr (Angstrom)

 1-2  1.842231989  1-3  1.865671621  4-5  2.021904040  4-6  2.022002335  4-7  2.021953343
     ( 0.974867186)     ( 0.987270905)     ( 1.069945541)     ( 1.069997556)     ( 1.069971630)

 4-8  2.022015060
     ( 1.070004290)

 Bond angles

  2-1-3  105.53314040   5-4-6  109.53398059   5-4-7  109.65604535   5-4-8  108.43490854

  6-4-7  109.49436728   6-4-8  109.86987750   7-4-8  109.83468330

 NUCLEAR CHARGE:                   10
 NUMBER OF PRIMITIVE AOS:        1046
 NUMBER OF SYMMETRY AOS:          786
 NUMBER OF CONTRACTIONS:          734   (  734A   )
 NUMBER OF CORE ORBITALS:           1   (    1A   )
 NUMBER OF VALENCE ORBITALS:        8   (    8A   )

 MOLECULE CHANGED: INITIALIZING OCCUPATION AND DUMP RECORDS


 NUCLEAR REPULSION ENERGY   13.68681606

 Basis set:  JKFIT                   
 Basis size:  1104
 Attributes:
 Sphericals:   T
 Basis set:  MP2FIT                  
 Basis size:  1246
 Attributes:
 Sphericals:   T
 Basis set:  RI                      
 Basis size:   730
 Attributes:
 Sphericals:   T
 Basis set:  TDDFT                   
 Basis size:  1246
 Attributes:
 Sphericals:   T

 Eigenvalues of metric

         1 0.146E-05 0.191E-05 0.307E-05 0.396E-05 0.491E-05 0.623E-05 0.806E-05 0.911E-05


 Contracted 2-electron integrals neglected if value below      1.0D-14

 OPERATOR DM      FOR CENTER  0  COORDINATES:    0.000000    0.000000    0.000000


 **********************************************************************************************************************************
 DATASETS  * FILE   NREC   LENGTH (MB)   RECORD NAMES
              1      18       49.80       500      610      700      900      950      970     1000      129      960     1100   
                                          VAR    BASINP    GEOM    SYMINP    ZMAT    AOBASIS   BASIS     P2S    ABASIS      S 
                                         1400     1410     1200     1210     1080     1600     1650     1700   
                                           T        V       H0       H01     AOSYM     SMH    MOLCAS    OPER   

              2       6       38.39       700     1000      520     2100      200     2101   
                                         GEOM     BASIS   MCVARS     RHF    OPTIONS    RHF  

 PROGRAMS   *        TOTAL       INT   CCSD(T)    HF-SCF       INT   CCSD(T)    HF-SCF       INT
 CPU TIMES  *     63850.36      0.92  11227.51   2167.57      0.93  46419.03   1601.34   2432.76
 REAL TIME  *     70358.68 SEC
 DISK USED  *        14.28 GB (local),      547.77 GB (total)
 SF USED    *        13.87 GB
 GA USED    *         0.00 MB       (max)       0.00 MB       (current)
 **********************************************************************************************************************************


 PROGRAM * RHF-SCF (CLOSED SHELL)       Authors: W. Meyer, H.-J. Werner


 NUMBER OF ELECTRONS:       5+    5-    SPACE SYMMETRY=1    SPIN SYMMETRY: Singlet 
 CONVERGENCE THRESHOLDS:    1.00E-08 (Density)    1.00E-11 (Energy)
 MAX. NUMBER OF ITERATIONS:       60
 INTERPOLATION TYPE:            DIIS
 INTERPOLATION STEPS:              2 (START)      1 (STEP)
 LEVEL SHIFTS:                  0.00 (CLOSED)  0.00 (OPEN) 



 Orbital guess generated from atomic densities. Full valence occupancy:    9

 Molecular orbital dump at record        2102.2

 Initial occupancy:   5

 ITERATION    DDIFF          GRAD             ENERGY        2-EL.EN.            DIPOLE MOMENTS         DIIS   ORB.
    1      0.000D+00      0.000D+00       -40.19676547     53.509905    0.00411   -0.00276   -0.00131    0    start
    2      0.000D+00      0.198D-02       -40.21405766     52.218481    0.00128   -0.00088   -0.00039    1    diag
    3      0.949D-03      0.769D-03       -40.21634109     52.673988    0.00182   -0.00124   -0.00055    2    diag
    4      0.262D-03      0.192D-03       -40.21666142     52.619251    0.00162   -0.00110   -0.00049    3    diag
    5      0.104D-03      0.248D-04       -40.21666690     52.621409    0.00159   -0.00109   -0.00048    4    diag
    6      0.346D-04      0.204D-05       -40.21666694     52.621537    0.00159   -0.00109   -0.00048    5    diag
    7      0.571D-05      0.166D-06       -40.21666694     52.621499    0.00159   -0.00109   -0.00048    6    diag
    8      0.317D-06      0.136D-07       -40.21666694     52.621500    0.00159   -0.00109   -0.00048    7    diag
    9      0.582D-07      0.167D-08       -40.21666694     52.621500    0.00159   -0.00109   -0.00048    8    diag
   10      0.101D-07      0.465D-09       -40.21666694     52.621500    0.00159   -0.00109   -0.00048    9    orth
   11      0.106D-08      0.667D-10       -40.21666694     52.621500    0.00159   -0.00109   -0.00048    0    orth

 Final occupancy:   5

 !RHF STATE  1.1 Energy               -40.216666941271
 Nuclear energy                        13.68681606
 One-electron energy                  -80.21423275
 Two-electron energy                   26.31074976
 Virial quotient                       -0.99832812
 !RHF STATE  1.1 Dipole moment          0.00158542    -0.00108518    -0.00047670
 Dipole moment /Debye                   0.00402948    -0.00275808    -0.00121157

 Orbital energies:

         1.1          2.1          3.1          4.1          5.1          6.1          7.1
    -11.196017    -0.950605    -0.551931    -0.549996    -0.547818     0.021223     0.034493


 HOMO      5.1    -0.547818 =     -14.9069eV
 LUMO      6.1     0.021223 =       0.5775eV
 LUMO-HOMO         0.569040 =      15.4844eV


 **********************************************************************************************************************************
 DATASETS  * FILE   NREC   LENGTH (MB)   RECORD NAMES
              1      18       49.80       500      610      700      900      950      970     1000      129      960     1100   
                                          VAR    BASINP    GEOM    SYMINP    ZMAT    AOBASIS   BASIS     P2S    ABASIS      S 
                                         1400     1410     1200     1210     1080     1600     1650     1700   
                                           T        V       H0       H01     AOSYM     SMH    MOLCAS    OPER   

              2       7       62.47       700     1000      520     2100      200     2101     2102   
                                         GEOM     BASIS   MCVARS     RHF    OPTIONS    RHF      RHF  

 PROGRAMS   *        TOTAL    HF-SCF       INT   CCSD(T)    HF-SCF       INT   CCSD(T)    HF-SCF       INT
 CPU TIMES  *     65851.39   2001.01      0.92  11227.51   2167.57      0.93  46419.03   1601.34   2432.76
 REAL TIME  *     72507.15 SEC
 DISK USED  *        14.28 GB (local),      547.77 GB (total)
 SF USED    *        13.87 GB
 GA USED    *         0.00 MB       (max)       0.00 MB       (current)
 **********************************************************************************************************************************

 Basis set:  JKFIT                   
 Basis size:  1104
 Attributes:
 Sphericals:   T
 Basis set:  MP2FIT                  
 Basis size:  1246
 Attributes:
 Sphericals:   T
 Basis set:  RI                      
 Basis size:   730
 Attributes:
 Sphericals:   T
 Basis set:  TDDFT                   
 Basis size:  1246
 Attributes:
 Sphericals:   T

 PROGRAM * CCSD (Closed-shell coupled cluster)     Authors: C. Hampel, H.-J. Werner, 1991, M. Deegan, P.J. Knowles, 1992


 Convergence thresholds:  THRVAR = 1.00D-08  THRDEN = 1.00D-10

 CCSD(T)     terms to be evaluated (factor= 1.000)


 Number of core orbitals:           1 (   1 )
 Number of closed-shell orbitals:   4 (   4 )
 Number of external orbitals:     729 ( 729 )

 Molecular orbitals read from record     2102.2  Type=RHF/CANONICAL (state 1.1)

 Number of N-1 electron functions:               4
 Number of N-2 electron functions:              10
 Number of singly external CSFs:              2916
 Number of doubly external CSFs:           4252986
 Total number of CSFs:                     4255903

 Length of J-op  integral file:               0.00 MB
 Length of K-op  integral file:              37.04 MB
 Length of 3-ext integral record:             0.00 MB

 For full I/O caching in triples, increase memory by 535.09 Mwords to 2535.14 Mwords.

 Integral transformation finished. Total CPU:1483.23 sec, npass=  1  Memory used:1010.01 MW

 Reference energy:                    -40.21666694

 MP2 singlet pair energy:              -0.15788254
 MP2 triplet pair energy:              -0.05682326
 MP2 correlation energy:               -0.21470580
 MP2 total energy:                    -40.43137274

 SCS-MP2 correlation energy:           -0.22481574   (PS=  1.200000  PT=  0.333333)
 SCS-MP2 total energy:                -40.44148268

 ITER.      SQ.NORM     CORR.ENERGY   TOTAL ENERGY   ENERGY CHANGE        DEN1      VAR(S)    VAR(P)  DIIS     TIME  TIME/IT
   1      1.07073071    -0.22924578   -40.44591272    -0.01453998    -0.00880751  0.58D-03  0.96D-03  1  1  1884.79   413.34
   2      1.07565227    -0.23034050   -40.44700744    -0.00109472    -0.00537194  0.15D-04  0.11D-03  2  2  2286.35   414.65
   3      1.07738914    -0.23038100   -40.44704794    -0.00004050    -0.00128282  0.20D-05  0.63D-05  3  3  2683.81   413.51
   4      1.07777958    -0.23038273   -40.44704967    -0.00000173    -0.00020105  0.14D-06  0.36D-06  4  4  3092.90   416.09
   5      1.07783400    -0.23038648   -40.44705342    -0.00000376    -0.00001101  0.13D-07  0.24D-07  5  5  3492.98   415.80
   6      1.07784413    -0.23038518   -40.44705212     0.00000130    -0.00000411  0.80D-09  0.18D-08  6  6  3895.13   415.94
   7      1.07784549    -0.23038480   -40.44705174     0.00000038    -0.00000076  0.53D-10  0.13D-09  6  1  4292.89   415.42
   8      1.07784541    -0.23038485   -40.44705179    -0.00000005     0.00000024  0.59D-11  0.86D-11  6  3  4699.74   416.13
   9      1.07784555    -0.23038483   -40.44705178     0.00000002    -0.00000009  0.43D-12  0.62D-12  6  2  5101.58   416.15
  10      1.07784555    -0.23038483   -40.44705178     0.00000000     0.00000001  0.57D-13  0.65D-13  6  4  5498.66   415.67
  11      1.07784556    -0.23038483   -40.44705177     0.00000000     0.00000000  0.58D-14  0.64D-14  6  5  5905.59   416.24
  12      1.07784555    -0.23038483   -40.44705177     0.00000000     0.00000000  0.18D-15  0.67D-15  6  6  6306.12   416.15
  13      1.07784555    -0.23038483   -40.44705177    -0.00000000     0.00000000  0.18D-16  0.81D-16  6  1  6706.32   416.06
  14      1.07784555    -0.23038483   -40.44705177    -0.00000000     0.00000000  0.38D-17  0.16D-16  6  3  7108.23   416.09

 Norm of t1 vector:      0.03186064      S-energy:    -0.00000000      T1 diagnostic:  0.00796516
                                                                       D1 diagnostic:  0.01279408

 Total CPU time for triples:   3495.44 sec


 RESULTS
 =======

  Reference energy                    -40.216666941270
  CCSD singlet pair energy             -0.175402440631
  CCSD triplet pair energy             -0.054982391867
  CCSD correlation energy              -0.230384832503

  Triples (T) contribution             -0.007018951020
  Total correlation energy             -0.237403783523

  CCSD total energy                   -40.447051773773
  CCSD[T] energy                      -40.454294566304
  CCSD-T energy                       -40.454003769473
 !CCSD(T) total energy                -40.454070724793

 Timing summary (sec):

 STEP                 CPU(USER)    SYS     CPU(TOT)    WALL
 Transformation       1485.38     48.38   1533.76   1535.94
 CCSD iterations      5623.23    196.00   5819.23   5826.15
 Triples              3495.44     75.15   3570.59   3574.57

 Program statistics:

 Available memory in ccsd:              1999999916
 Min. memory needed in ccsd:              19268142
 Max. memory used in ccsd:                22427508
 Max. memory used in cckext:              14646566 (14 integral passes)



 **********************************************************************************************************************************
 DATASETS  * FILE   NREC   LENGTH (MB)   RECORD NAMES
              1      19     6330.40       500      610      700      900      950      970     1000      129      960     1100   
                                          VAR    BASINP    GEOM    SYMINP    ZMAT    AOBASIS   BASIS     P2S    ABASIS      S 
                                         1400     1410     1200     1210     1080     1600     1650     1700     1380   
                                           T        V       H0       H01     AOSYM     SMH    MOLCAS    OPER     JKOP   

              2       7       62.47       700     1000      520     2100      200     2101     2102   
                                         GEOM     BASIS   MCVARS     RHF    OPTIONS    RHF      RHF  

 PROGRAMS   *        TOTAL   CCSD(T)    HF-SCF       INT   CCSD(T)    HF-SCF       INT   CCSD(T)    HF-SCF       INT
 CPU TIMES  *     76455.73  10604.33   2001.01      0.92  11227.51   2167.57      0.93  46419.03   1601.34   2432.76
 REAL TIME  *     83445.40 SEC
 DISK USED  *        14.28 GB (local),      547.77 GB (total)
 SF USED    *        13.87 GB
 GA USED    *         0.00 MB       (max)       0.00 MB       (current)
 **********************************************************************************************************************************
 Molecular orbitals read from record     2102.2  Type=RHF/CANONICAL (state 1.1)
 Occupation numbers read from record     2102.2  Type=RHF/RHF (state 1.1)
 Orbital energies read from record       2102.2  Type=RHF/CANONICAL (state 1.1)
 Redundancy group numbers read from rec  2102.2  Type=RHF/RHF (state 1.1)

 CCSD(T)/aug-cc-pV5Z energy=    -40.454070724793

         CCSD(T)          HF-SCF         CCSD(T)          HF-SCF         CCSD(T)          HF-SCF
    -40.45407072    -40.21666694    -76.36924950    -76.06450002   -116.82396087   -116.28063772
 **********************************************************************************************************************************
 Molpro calculation terminated
