
 Primary working directories    : /scratch/klimes/415919/molpro.2N7WI6Tw56
 Secondary working directories  : /scratch/klimes/415919/molpro.2N7WI6Tw56
 Wavefunction directory         : /scratch/klimes/415919/
 Main file repository           : /scratch/klimes/415919/molpro.2N7WI6Tw56/

 id        : karlovklimes

 Nodes                      nprocs
 nc-01.cc.karlov.mff.cuni.cz    4

 Using customized tuning parameters: mindgm=1; mindgv=20; mindgc=4; mindgr=1; noblas=0; minvec=7
 default implementation of scratch files=sf  


 Variables initialized (930), CPU time= 0.01 sec
                                                                                 !gdirect
 memory,2000,m
 gthresh,orbital=1d-10,energy=1d-10,grid=1d-8
 
 symmetry,nosym
 angstrom
 geometry={
 O13        -4.053700000000      0.094100000000      4.862800000000
 H25        -3.635600000000      1.001800000000      4.895500000000
 H26        -4.213700000000     -0.141300000000      5.785400000000
 C1        -3.277200000000      1.482500000000      1.271900000000
 H41        -2.464000000000      0.899600000000      1.651000000000
 H42        -3.160800000000      2.501000000000      1.578500000000
 H43        -4.201800000000      1.099200000000      1.650100000000
 H44        -3.268500000000      1.421000000000      0.203700000000
 }
 
 nkerna=1
 nkernb=1
 
 gf=0
 sing=1
 thrdum=1d-4
 gridthr=1d-8
 
 basis={
 set,orbital
 default,av5z
 set,jkfit
 default,av5z/jkfit
 set,mp2fit
 default,av5z/mp2fit
 set,ri
 default,av5z/optri
 set,tddft
 default,av5z/mp2fit
 }
 
 proc set_monomer1
 dummy,4,5,6,7,8
 endproc
 
 proc set_monomer2
 dummy,1,2,3
 endproc
 
                                                                                 !1234 energy
 {hf,accu=1.d-16}
 ccsd(t)
 
 set_monomer1
 {hf,accu=1.d-16}
 ccsd(t)
 
 set_monomer2
 {hf,accu=1.d-16}
 ccsd(t)
 
 Commands  initialized (760), CPU time= 0.02 sec, 617 directives.
 Default parameters read. Elapsed time= 0.20 sec

 Checking input...
 Passed
1


                                         ***  PROGRAM SYSTEM MOLPRO  ***
                                       Copyright, TTI GmbH Stuttgart, 2015
                                    Version 2019.1 linked Jan 14 2019 13:09:19


 **********************************************************************************************************************************
 LABEL *                                                                                 
  64 bit mpp version                                                                     DATE: 16-Mar-20          TIME: 11:01:38  
 **********************************************************************************************************************************

 SHA1:             d688ac825633d238f2093ded1675ba87ccd55965
 **********************************************************************************************************************************

 THRESHOLDS:

 ZERO    =  1.00D-12  ONEINT  =  1.00D-12  TWOINT  =  1.00D-11  PREFAC  =  1.00D-14  XXXXXX  =  1.00D-09  EORDER  =  1.00D-04
 ENERGY  =  1.00D-10  ETEST   =  0.00D+00  EDENS   =  0.00D+00  THRDEDEF=  1.00D-06  GRADIENT=  1.00D-02  STEP    =  1.00D-03
 ORBITAL =  1.00D-10  CIVEC   =  1.00D-05  COEFF   =  1.00D-04  PRINTCI =  5.00D-02  PUNCHCI =  9.90D+01  OPTGRAD =  3.00D-04
 OPTENERG=  1.00D-06  OPTSTEP =  3.00D-04  THRGRAD =  1.00D-10  COMPRESS=  1.00D-11  VARMIN  =  1.00D-07  VARMAX  =  1.00D-03
 THRDOUB =  0.00D+00  THRDIV  =  1.00D-05  THRRED  =  1.00D-07  THRPSP  =  1.00D+00  THRDC   =  1.00D-10  THRCS   =  1.00D-10
 THRNRM  =  1.00D-08  THREQ   =  0.00D+00  THRDE   =  1.00D+00  THRREF  =  1.00D-05  SPARFAC =  1.00D+00  THRDLP  =  1.00D-07
 THRDIA  =  1.00D-10  THRDLS  =  1.00D-07  THRGPS  =  0.00D+00  THRKEX  =  0.00D+00  THRDIS  =  2.00D-01  THRVAR  =  1.00D-10
 THRLOC  =  1.00D-06  THRGAP  =  1.00D-06  THRLOCT = -1.00D+00  THRGAPT = -1.00D+00  THRORB  =  1.00D-06  THRMLTP =  0.00D+00
 THRCPQCI=  1.00D-10  KEXTA   =  0.00D+00  THRCOARS=  0.00D+00  SYMTOL  =  1.00D-06  GRADTOL =  1.00D-06  THROVL  =  1.00D-08
 THRORTH =  1.00D-08  GRID    =  1.00D-08  GRIDMAX =  1.00D-03  DTMAX   =  0.00D+00  THROCCDE=  1.00D-01  THROCCDE=  1.00D-01
 THRPRINT=  2.50D-01


 Variable memory set to 2000000000 words,  buffer space 

 ZSYMEL=NOSYM
 ZUNIT=ANG


Geometry recognized as XYZ

 SETTING NKERNA         =         1.00000000                                  
 SETTING NKERNB         =         1.00000000                                  
 SETTING GF             =     0.00000000D+00                                  
 SETTING SING           =         1.00000000                                  
 SETTING THRDUM         =     1.00000000D-04                                  
 SETTING GRIDTHR        =     1.00000000D-08                                  
 SETTING BASIS          =    AV5Z


 Recomputing integrals since basis changed


 Using spherical harmonics

 Library entry O      S aug-cc-pV5Z          selected for orbital group  1
 Library entry O      P aug-cc-pV5Z          selected for orbital group  1
 Library entry O      D aug-cc-pV5Z          selected for orbital group  1
 Library entry O      F aug-cc-pV5Z          selected for orbital group  1
 Library entry O      G aug-cc-pV5Z          selected for orbital group  1
 Library entry O      H aug-cc-pV5Z          selected for orbital group  1
 Library entry H      S aug-cc-pV5Z          selected for orbital group  2
 Library entry H      P aug-cc-pV5Z          selected for orbital group  2
 Library entry H      D aug-cc-pV5Z          selected for orbital group  2
 Library entry H      F aug-cc-pV5Z          selected for orbital group  2
 Library entry H      G aug-cc-pV5Z          selected for orbital group  2
 Library entry C      S aug-cc-pV5Z          selected for orbital group  3
 Library entry C      P aug-cc-pV5Z          selected for orbital group  3
 Library entry C      D aug-cc-pV5Z          selected for orbital group  3
 Library entry C      F aug-cc-pV5Z          selected for orbital group  3
 Library entry C      G aug-cc-pV5Z          selected for orbital group  3
 Library entry C      H aug-cc-pV5Z          selected for orbital group  3


 PROGRAM * SEWARD (Integral evaluation for generally contracted gaussian basis sets)     Author: Roland Lindh, 1990

 Geometry written to block  1 of record 700


 Point group  C1  



 ATOMIC COORDINATES

 NR  ATOM    CHARGE       X              Y              Z

   1  O13     8.00   -7.660382791    0.177823228    9.189360199
   2  H25     1.00   -6.870288298    1.893127632    9.251154243
   3  H26     1.00   -7.962738971   -0.267018301   10.932821521
   4  C1      6.00   -6.193010455    2.801518980    2.403542658
   5  H41     1.00   -4.656285171    1.699997622    3.119937832
   6  H42     1.00   -5.973046335    4.726205038    2.982932688
   7  H43     1.00   -7.940251230    2.077186956    3.118237078
   8  H44     1.00   -6.176569838    2.685300823    0.384937212

 Bond lengths in Bohr (Angstrom)

 1-2  1.889533542  1-3  1.824543951  4-5  2.021904040  4-6  2.022002335  4-7  2.021953343
     ( 0.999898090)     ( 0.965507079)     ( 1.069945541)     ( 1.069997556)     ( 1.069971630)

 4-8  2.022015060
     ( 1.070004290)

 Bond angles

  2-1-3  105.03277623   5-4-6  109.53398059   5-4-7  109.65604535   5-4-8  108.43490854

  6-4-7  109.49436728   6-4-8  109.86987750   7-4-8  109.83468330

 NUCLEAR CHARGE:                   20
 NUMBER OF PRIMITIVE AOS:        1046
 NUMBER OF SYMMETRY AOS:          786
 NUMBER OF CONTRACTIONS:          734   (  734A   )
 NUMBER OF CORE ORBITALS:           2   (    2A   )
 NUMBER OF VALENCE ORBITALS:       14   (   14A   )


 NUCLEAR REPULSION ENERGY   35.91495842


 Basis set:  JKFIT                   
 Basis size:  1104
 Attributes:
 Sphericals:   T
 Basis set:  MP2FIT                  
 Basis size:  1246
 Attributes:
 Sphericals:   T
 Basis set:  RI                      
 Basis size:   730
 Attributes:
 Sphericals:   T
 Basis set:  TDDFT                   
 Basis size:  1246
 Attributes:
 Sphericals:   T

 **********************************************************************************************************************************


 Eigenvalues of metric

         1 0.163E-05 0.189E-05 0.352E-05 0.500E-05 0.545E-05 0.801E-05 0.819E-05 0.873E-05


 Contracted 2-electron integrals neglected if value below      1.0D-14
 AO integral compression algorithm  1   Integral accuracy      1.0D-14

     139005.264 MB (compressed) written to integral file ( 44.0%)

     Node minimum: 33202.110 MB, node maximum: 35546.989 MB


 NUMBER OF SORTED TWO-ELECTRON INTEGRALS: 9095363064.     BUFFER LENGTH:  32768
 NUMBER OF SEGMENTS: 190  SEGMENT LENGTH:   47999780      RECORD LENGTH: 131072

 Memory used in sort:      48.16 MW

 SORT1 READ 39467646309. AND WROTE  6442242601. INTEGRALS IN  73824 RECORDS. CPU TIME:   846.59 SEC, REAL TIME:   995.30 SEC
 SORT2 READ 25767805090. AND WROTE 36381317385. INTEGRALS IN 506624 RECORDS. CPU TIME:   131.11 SEC, REAL TIME:   526.02 SEC

 Node minimum:  9095228192.  Node maximum:  9095430501. integrals

 OPERATOR DM      FOR CENTER  0  COORDINATES:    0.000000    0.000000    0.000000


 **********************************************************************************************************************************
 DATASETS  * FILE   NREC   LENGTH (MB)   RECORD NAMES
              1      18       49.80       500      610      700      900      950      970     1000      129      960     1100   
                                          VAR    BASINP    GEOM    SYMINP    ZMAT    AOBASIS   BASIS     P2S    ABASIS      S 
                                         1400     1410     1200     1210     1080     1600     1650     1700   
                                           T        V       H0       H01     AOSYM     SMH    MOLCAS    OPER   

 PROGRAMS   *        TOTAL       INT
 CPU TIMES  *      2467.19   2466.96
 REAL TIME  *      3073.62 SEC
 DISK USED  *        50.44 MB (local),      448.06 GB (total)
 GA USED    *         0.00 MB       (max)       0.00 MB       (current)
 **********************************************************************************************************************************


 PROGRAM * RHF-SCF (CLOSED SHELL)       Authors: W. Meyer, H.-J. Werner


 NUMBER OF ELECTRONS:      10+   10-    SPACE SYMMETRY=1    SPIN SYMMETRY: Singlet 
 CONVERGENCE THRESHOLDS:    1.00E-08 (Density)    1.00E-11 (Energy)
 MAX. NUMBER OF ITERATIONS:       60
 INTERPOLATION TYPE:            DIIS
 INTERPOLATION STEPS:              2 (START)      1 (STEP)
 LEVEL SHIFTS:                  0.00 (CLOSED)  0.00 (OPEN) 



 Orbital guess generated from atomic densities. Full valence occupancy:   16

 Molecular orbital dump at record        2100.2

 Initial occupancy:  10

 ITERATION    DDIFF          GRAD             ENERGY        2-EL.EN.            DIPOLE MOMENTS         DIIS   ORB.
    1      0.000D+00      0.000D+00      -116.22177941    157.584866    0.25818    0.65632    0.91822    0    start
    2      0.000D+00      0.292D-02      -116.26591510    152.523697    0.12481    0.33158    0.54627    1    diag
    3      0.163D-02      0.172D-02      -116.27977923    154.623215    0.15713    0.41279    0.64325    2    diag
    4      0.557D-03      0.254D-03      -116.28044109    154.509821    0.15377    0.40499    0.63542    3    diag
    5      0.122D-03      0.750D-04      -116.28051135    154.504733    0.15304    0.40389    0.63569    4    diag
    6      0.499D-04      0.182D-04      -116.28051533    154.510341    0.15269    0.40313    0.63521    5    diag
    7      0.184D-04      0.375D-05      -116.28051558    154.508648    0.15265    0.40307    0.63526    6    diag
    8      0.579D-05      0.976D-06      -116.28051560    154.508830    0.15261    0.40300    0.63523    7    diag
    9      0.139D-05      0.226D-06      -116.28051560    154.508803    0.15260    0.40298    0.63521    8    diag
   10      0.292D-06      0.265D-07      -116.28051560    154.508804    0.15260    0.40298    0.63521    9    orth
   11      0.644D-07      0.614D-08      -116.28051560    154.508805    0.15260    0.40298    0.63521    9    diag
   12      0.489D-08      0.156D-08      -116.28051560    154.508805    0.15260    0.40298    0.63521    0    orth

 Final occupancy:  10

 !RHF STATE  1.1 Energy              -116.280515599078
 Nuclear energy                        35.91495842
 One-electron energy                 -229.44987653
 Two-electron energy                   77.25440251
 Virial quotient                       -1.00078385
 !RHF STATE  1.1 Dipole moment          0.15260305     0.40298066     0.63521198
 Dipole moment /Debye                   0.38785285     1.02420759     1.61444206

 Orbital energies:

         1.1          2.1          3.1          4.1          5.1          6.1          7.1          8.1          9.1         10.1
    -20.567975   -11.190716    -1.339707    -0.945531    -0.705044    -0.579148    -0.547248    -0.544340    -0.542560    -0.508266

        11.1         12.1
      0.020513     0.030917


 HOMO     10.1    -0.508266 =     -13.8306eV
 LUMO     11.1     0.020513 =       0.5582eV
 LUMO-HOMO         0.528780 =      14.3888eV


 **********************************************************************************************************************************
 DATASETS  * FILE   NREC   LENGTH (MB)   RECORD NAMES
              1      18       49.80       500      610      700      900      950      970     1000      129      960     1100   
                                          VAR    BASINP    GEOM    SYMINP    ZMAT    AOBASIS   BASIS     P2S    ABASIS      S 
                                         1400     1410     1200     1210     1080     1600     1650     1700   
                                           T        V       H0       H01     AOSYM     SMH    MOLCAS    OPER   

              2       4       13.79       700     1000      520     2100   
                                         GEOM     BASIS   MCVARS     RHF  

 PROGRAMS   *        TOTAL    HF-SCF       INT
 CPU TIMES  *      6883.81   4416.61   2466.96
 REAL TIME  *      7827.62 SEC
 DISK USED  *       102.61 MB (local),      448.27 GB (total)
 SF USED    *         2.16 MB
 GA USED    *         0.00 MB       (max)       0.00 MB       (current)
 **********************************************************************************************************************************

 Basis set:  JKFIT                   
 Basis size:  1104
 Attributes:
 Sphericals:   T
 Basis set:  MP2FIT                  
 Basis size:  1246
 Attributes:
 Sphericals:   T
 Basis set:  RI                      
 Basis size:   730
 Attributes:
 Sphericals:   T
 Basis set:  TDDFT                   
 Basis size:  1246
 Attributes:
 Sphericals:   T

 PROGRAM * CCSD (Closed-shell coupled cluster)     Authors: C. Hampel, H.-J. Werner, 1991, M. Deegan, P.J. Knowles, 1992


 Convergence thresholds:  THRVAR = 1.00D-08  THRDEN = 1.00D-10

 CCSD(T)     terms to be evaluated (factor= 1.000)


 Number of core orbitals:           2 (   2 )
 Number of closed-shell orbitals:   8 (   8 )
 Number of external orbitals:     724 ( 724 )

 Molecular orbitals read from record     2100.2  Type=RHF/CANONICAL (state 1.1)

 Number of N-1 electron functions:               8
 Number of N-2 electron functions:              36
 Number of singly external CSFs:              5792
 Number of doubly external CSFs:          16776528
 Total number of CSFs:                    16782321

 Length of J-op  integral file:               0.00 MB
 Length of K-op  integral file:              37.04 MB
 Length of 3-ext integral record:             0.00 MB

 For full I/O caching in triples, increase memory by 2034.74 Mwords to 4034.79 Mwords.

 Integral transformation finished. Total CPU:4620.41 sec, npass=  1  Memory used:1826.26 MW

 Reference energy:                   -116.28051560

 MP2 singlet pair energy:              -0.35042955
 MP2 triplet pair energy:              -0.15963933
 MP2 correlation energy:               -0.51006888
 MP2 total energy:                   -116.79058448

 SCS-MP2 correlation energy:           -0.51984660   (PS=  1.200000  PT=  0.333333)
 SCS-MP2 total energy:               -116.80036219

 ITER.      SQ.NORM     CORR.ENERGY   TOTAL ENERGY   ENERGY CHANGE        DEN1      VAR(S)    VAR(P)  DIIS     TIME  TIME/IT
   1      1.13537799    -0.52440572  -116.80492132    -0.01433684    -0.00259711  0.14D-02  0.20D-02  1  1  5908.14  1311.73
   2      1.14379582    -0.52573619  -116.80625178    -0.00133046    -0.01026995  0.31D-04  0.26D-03  2  2  7200.46  1319.51
   3      1.14712762    -0.52586585  -116.80638145    -0.00012966    -0.00240446  0.11D-04  0.14D-04  3  3  8493.61  1321.52
   4      1.14804394    -0.52586330  -116.80637890     0.00000254    -0.00046300  0.66D-06  0.13D-05  4  4  9788.52  1322.96
   5      1.14821030    -0.52586516  -116.80638076    -0.00000186    -0.00004483  0.21D-06  0.92D-07  5  5 11085.82  1324.41
   6      1.14825836    -0.52586218  -116.80637777     0.00000299    -0.00001041  0.22D-07  0.75D-08  6  6 12382.41  1325.47
   7      1.14826881    -0.52586092  -116.80637652     0.00000126    -0.00000211  0.20D-08  0.94D-09  6  2 13677.34  1325.66
   8      1.14827122    -0.52586074  -116.80637634     0.00000018    -0.00000011  0.32D-09  0.99D-10  6  1 14974.57  1326.09
   9      1.14827214    -0.52586068  -116.80637628     0.00000006    -0.00000004  0.23D-10  0.15D-10  6  3 16269.47  1326.33
  10      1.14827224    -0.52586069  -116.80637629    -0.00000001     0.00000011  0.25D-11  0.17D-11  6  4 17565.33  1326.63
  11      1.14827221    -0.52586069  -116.80637629    -0.00000001     0.00000007  0.38D-12  0.24D-12  6  5 18859.09  1326.61
  12      1.14827218    -0.52586069  -116.80637629    -0.00000000     0.00000002  0.82D-13  0.30D-13  6  6 20154.72  1326.84
  13      1.14827216    -0.52586070  -116.80637630    -0.00000000     0.00000001  0.16D-13  0.44D-14  6  2 21450.77  1327.01
  14      1.14827216    -0.52586070  -116.80637630    -0.00000000     0.00000000  0.24D-14  0.93D-15  6  1 22747.82  1327.16
  15      1.14827215    -0.52586070  -116.80637630    -0.00000000     0.00000000  0.30D-15  0.14D-15  6  3 24044.24  1327.29
  16      1.14827215    -0.52586070  -116.80637630    -0.00000000    -0.00000000  0.48D-16  0.25D-16  6  4 25340.33  1327.43
  17      1.14827215    -0.52586070  -116.80637630    -0.00000000    -0.00000000  0.14D-16  0.69D-17  6  5 26636.33  1327.53

 Norm of t1 vector:      0.04988087      S-energy:    -0.00000000      T1 diagnostic:  0.00881777
                                                                       D1 diagnostic:  0.01982966

   CPU time for triples:   3463.41 sec for i =  1 -  3 /  8 (~   6.2 % done)
   CPU time for triples:   3502.84 sec for i =  4 -  5 /  8 (~  26.8 % done)
   CPU time for triples:   3501.52 sec for i =  6 -  6 /  8 (~  44.6 % done)
   CPU time for triples:   6120.64 sec for i =  7 -  7 /  8 (~  68.8 % done)
   CPU time for triples:   7858.29 sec for i =  8 -  8 /  8 (  100.0 % done)

 Total CPU time for triples:  24480.88 sec


 RESULTS
 =======

  Reference energy                   -116.280515599080
  CCSD singlet pair energy             -0.380022469509
  CCSD triplet pair energy             -0.145838227347
  CCSD correlation energy              -0.525860697088

  Triples (T) contribution             -0.017029055760
  Total correlation energy             -0.542889752848

  CCSD total energy                  -116.806376296168
  CCSD[T] energy                     -116.823949022132
  CCSD-T energy                      -116.823189651250
 !CCSD(T) total energy               -116.823405351928

 Timing summary (sec):

 STEP                 CPU(USER)    SYS     CPU(TOT)    WALL
 Transformation       4628.32    167.66   4795.98   4804.90
 CCSD iterations     22008.45    516.12  22524.57  22569.76
 Triples             24480.88    865.84  25346.72  25375.87

 Program statistics:

 Available memory in ccsd:              1999999734
 Min. memory needed in ccsd:              48755833
 Max. memory used in ccsd:                63342105
 Max. memory used in cckext:              42809278 (17 integral passes)



 **********************************************************************************************************************************
 DATASETS  * FILE   NREC   LENGTH (MB)   RECORD NAMES
              1      19    12452.38       500      610      700      900      950      970     1000      129      960     1100   
                                          VAR    BASINP    GEOM    SYMINP    ZMAT    AOBASIS   BASIS     P2S    ABASIS      S 
                                         1400     1410     1200     1210     1080     1600     1650     1700     1380   
                                           T        V       H0       H01     AOSYM     SMH    MOLCAS    OPER     JKOP   

              2       4       13.79       700     1000      520     2100   
                                         GEOM     BASIS   MCVARS     RHF  

 PROGRAMS   *        TOTAL   CCSD(T)    HF-SCF       INT
 CPU TIMES  *     58001.78  51117.95   4416.61   2466.96
 REAL TIME  *     60579.69 SEC
 DISK USED  *        14.28 GB (local),      499.54 GB (total)
 SF USED    *        13.87 GB
 GA USED    *         0.00 MB       (max)       0.00 MB       (current)
 **********************************************************************************************************************************

 Running procedure: SET_MONOMER1

 Dummy atoms: C1  H41  H42  H43  H44


 Recomputing one-electron integrals since nuclear charges changed


 PROGRAM * SEWARD (Integral evaluation for generally contracted gaussian basis sets)     Author: Roland Lindh, 1990

 Geometry written to block  1 of record 700


 Point group  C1  



 ATOMIC COORDINATES

 NR  ATOM    CHARGE       X              Y              Z

   1  O13     8.00   -7.660382791    0.177823228    9.189360199
   2  H25     1.00   -6.870288298    1.893127632    9.251154243
   3  H26     1.00   -7.962738971   -0.267018301   10.932821521
   4  C1      0.00   -6.193010455    2.801518980    2.403542658
   5  H41     0.00   -4.656285171    1.699997622    3.119937832
   6  H42     0.00   -5.973046335    4.726205038    2.982932688
   7  H43     0.00   -7.940251230    2.077186956    3.118237078
   8  H44     0.00   -6.176569838    2.685300823    0.384937212

 Bond lengths in Bohr (Angstrom)

 1-2  1.889533542  1-3  1.824543951  4-5  2.021904040  4-6  2.022002335  4-7  2.021953343
     ( 0.999898090)     ( 0.965507079)     ( 1.069945541)     ( 1.069997556)     ( 1.069971630)

 4-8  2.022015060
     ( 1.070004290)

 Bond angles

  2-1-3  105.03277623   5-4-6  109.53398059   5-4-7  109.65604535   5-4-8  108.43490854

  6-4-7  109.49436728   6-4-8  109.86987750   7-4-8  109.83468330

 NUCLEAR CHARGE:                   10
 NUMBER OF PRIMITIVE AOS:        1046
 NUMBER OF SYMMETRY AOS:          786
 NUMBER OF CONTRACTIONS:          734   (  734A   )
 NUMBER OF CORE ORBITALS:           1   (    1A   )
 NUMBER OF VALENCE ORBITALS:        6   (    6A   )

 MOLECULE CHANGED: INITIALIZING OCCUPATION AND DUMP RECORDS


 NUCLEAR REPULSION ENERGY    8.95777847

 Basis set:  JKFIT                   
 Basis size:  1104
 Attributes:
 Sphericals:   T
 Basis set:  MP2FIT                  
 Basis size:  1246
 Attributes:
 Sphericals:   T
 Basis set:  RI                      
 Basis size:   730
 Attributes:
 Sphericals:   T
 Basis set:  TDDFT                   
 Basis size:  1246
 Attributes:
 Sphericals:   T

 Eigenvalues of metric

         1 0.163E-05 0.189E-05 0.352E-05 0.500E-05 0.545E-05 0.801E-05 0.819E-05 0.873E-05


 Contracted 2-electron integrals neglected if value below      1.0D-14

 OPERATOR DM      FOR CENTER  0  COORDINATES:    0.000000    0.000000    0.000000


 **********************************************************************************************************************************
 DATASETS  * FILE   NREC   LENGTH (MB)   RECORD NAMES
              1      18       49.80       500      610      700      900      950      970     1000      129      960     1100   
                                          VAR    BASINP    GEOM    SYMINP    ZMAT    AOBASIS   BASIS     P2S    ABASIS      S 
                                         1400     1410     1200     1210     1080     1600     1650     1700   
                                           T        V       H0       H01     AOSYM     SMH    MOLCAS    OPER   

              2       5       24.61       700     1000      520     2100      200   
                                         GEOM     BASIS   MCVARS     RHF    OPTIONS    

 PROGRAMS   *        TOTAL       INT   CCSD(T)    HF-SCF       INT
 CPU TIMES  *     58002.76      0.97  51117.95   4416.61   2466.96
 REAL TIME  *     60582.70 SEC
 DISK USED  *        14.28 GB (local),      499.57 GB (total)
 SF USED    *        13.87 GB
 GA USED    *         0.00 MB       (max)       0.00 MB       (current)
 **********************************************************************************************************************************


 PROGRAM * RHF-SCF (CLOSED SHELL)       Authors: W. Meyer, H.-J. Werner


 NUMBER OF ELECTRONS:       5+    5-    SPACE SYMMETRY=1    SPIN SYMMETRY: Singlet 
 CONVERGENCE THRESHOLDS:    1.00E-08 (Density)    1.00E-11 (Energy)
 MAX. NUMBER OF ITERATIONS:       60
 INTERPOLATION TYPE:            DIIS
 INTERPOLATION STEPS:              2 (START)      1 (STEP)
 LEVEL SHIFTS:                  0.00 (CLOSED)  0.00 (OPEN) 



 Orbital guess generated from atomic densities. Full valence occupancy:    7

 Molecular orbital dump at record        2101.2

 Initial occupancy:   5

 ITERATION    DDIFF          GRAD             ENERGY        2-EL.EN.            DIPOLE MOMENTS         DIIS   ORB.
    1      0.000D+00      0.000D+00       -76.02492125     77.361649    0.25440    0.65997    0.91911    0    start
    2      0.000D+00      0.361D-02       -76.05179788     73.680938    0.14290    0.37316    0.53678    1    diag
    3      0.131D-02      0.231D-02       -76.06359085     75.320024    0.16997    0.44329    0.63374    2    diag
    4      0.495D-03      0.216D-03       -76.06379029     75.228169    0.16805    0.43879    0.63083    3    diag
    5      0.642D-04      0.614D-04       -76.06381250     75.242972    0.16730    0.43704    0.62981    4    diag
    6      0.208D-04      0.125D-04       -76.06381400     75.241835    0.16709    0.43656    0.62961    5    diag
    7      0.547D-05      0.257D-05       -76.06381408     75.241981    0.16703    0.43642    0.62954    6    diag
    8      0.147D-05      0.479D-06       -76.06381408     75.241968    0.16702    0.43639    0.62951    7    diag
    9      0.270D-06      0.664D-07       -76.06381408     75.241958    0.16702    0.43639    0.62951    8    diag
   10      0.379D-07      0.155D-07       -76.06381408     75.241961    0.16702    0.43639    0.62951    9    orth
   11      0.805D-08      0.359D-08       -76.06381408     75.241961    0.16702    0.43639    0.62951    0    orth

 Final occupancy:   5

 !RHF STATE  1.1 Energy               -76.063814081545
 Nuclear energy                         8.95777847
 One-electron energy                 -122.64257294
 Two-electron energy                   37.62098039
 Virial quotient                       -1.00210314
 !RHF STATE  1.1 Dipole moment          0.16701501     0.43638903     0.62950847
 Dipole moment /Debye                   0.42448200     1.10911764     1.59994614

 Orbital energies:

         1.1          2.1          3.1          4.1          5.1          6.1          7.1
    -20.568098    -1.339775    -0.705101    -0.578978    -0.508353     0.017846     0.028484


 HOMO      5.1    -0.508353 =     -13.8330eV
 LUMO      6.1     0.017846 =       0.4856eV
 LUMO-HOMO         0.526199 =      14.3186eV


 **********************************************************************************************************************************
 DATASETS  * FILE   NREC   LENGTH (MB)   RECORD NAMES
              1      18       49.80       500      610      700      900      950      970     1000      129      960     1100   
                                          VAR    BASINP    GEOM    SYMINP    ZMAT    AOBASIS   BASIS     P2S    ABASIS      S 
                                         1400     1410     1200     1210     1080     1600     1650     1700   
                                           T        V       H0       H01     AOSYM     SMH    MOLCAS    OPER   

              2       6       38.39       700     1000      520     2100      200     2101   
                                         GEOM     BASIS   MCVARS     RHF    OPTIONS    RHF  

 PROGRAMS   *        TOTAL    HF-SCF       INT   CCSD(T)    HF-SCF       INT
 CPU TIMES  *     62055.89   4053.12      0.97  51117.95   4416.61   2466.96
 REAL TIME  *     64972.09 SEC
 DISK USED  *        14.28 GB (local),      499.57 GB (total)
 SF USED    *        13.87 GB
 GA USED    *         0.00 MB       (max)       0.00 MB       (current)
 **********************************************************************************************************************************

 Basis set:  JKFIT                   
 Basis size:  1104
 Attributes:
 Sphericals:   T
 Basis set:  MP2FIT                  
 Basis size:  1246
 Attributes:
 Sphericals:   T
 Basis set:  RI                      
 Basis size:   730
 Attributes:
 Sphericals:   T
 Basis set:  TDDFT                   
 Basis size:  1246
 Attributes:
 Sphericals:   T

 PROGRAM * CCSD (Closed-shell coupled cluster)     Authors: C. Hampel, H.-J. Werner, 1991, M. Deegan, P.J. Knowles, 1992


 Convergence thresholds:  THRVAR = 1.00D-08  THRDEN = 1.00D-10

 CCSD(T)     terms to be evaluated (factor= 1.000)


 Number of core orbitals:           1 (   1 )
 Number of closed-shell orbitals:   4 (   4 )
 Number of external orbitals:     729 ( 729 )

 Molecular orbitals read from record     2101.2  Type=RHF/CANONICAL (state 1.1)

 Number of N-1 electron functions:               4
 Number of N-2 electron functions:              10
 Number of singly external CSFs:              2916
 Number of doubly external CSFs:           4252986
 Total number of CSFs:                     4255903

 Length of J-op  integral file:               0.00 MB
 Length of K-op  integral file:              37.04 MB
 Length of 3-ext integral record:             0.00 MB

 For full I/O caching in triples, increase memory by 535.09 Mwords to 2535.14 Mwords.

 Integral transformation finished. Total CPU:2450.11 sec, npass=  1  Memory used:1010.01 MW

 Reference energy:                    -76.06381408

 MP2 singlet pair energy:              -0.19241579
 MP2 triplet pair energy:              -0.10239433
 MP2 correlation energy:               -0.29481012
 MP2 total energy:                    -76.35862420

 SCS-MP2 correlation energy:           -0.29461097   (PS=  1.200000  PT=  0.333333)
 SCS-MP2 total energy:                -76.35842506

 ITER.      SQ.NORM     CORR.ENERGY   TOTAL ENERGY   ENERGY CHANGE        DEN1      VAR(S)    VAR(P)  DIIS     TIME  TIME/IT
   1      1.06445115    -0.29465863   -76.35847272     0.00015149     0.00615655  0.83D-03  0.11D-02  1  1  2963.43   532.42
   2      1.06807725    -0.29490206   -76.35871614    -0.00024342    -0.00500044  0.16D-04  0.12D-03  2  2  3482.76   537.92
   3      1.06954360    -0.29498466   -76.35879874    -0.00008260    -0.00104317  0.82D-05  0.69D-05  3  3  4001.92   539.58
   4      1.07003998    -0.29498311   -76.35879719     0.00000155    -0.00024022  0.52D-06  0.76D-06  4  4  4520.68   540.48
   5      1.07014691    -0.29498145   -76.35879553     0.00000165    -0.00003223  0.17D-06  0.52D-07  5  5  5038.51   540.76
   6      1.07018352    -0.29497880   -76.35879288     0.00000265    -0.00000802  0.17D-07  0.42D-08  6  6  5554.64   540.76
   7      1.07019124    -0.29497830   -76.35879238     0.00000051    -0.00000068  0.12D-08  0.61D-09  6  1  6072.30   540.87
   8      1.07019280    -0.29497822   -76.35879230     0.00000008     0.00000009  0.18D-09  0.71D-10  6  2  6590.17   540.98
   9      1.07019345    -0.29497817   -76.35879225     0.00000005    -0.00000000  0.12D-10  0.73D-11  6  3  7109.18   541.27
  10      1.07019353    -0.29497817   -76.35879225     0.00000000     0.00000005  0.18D-11  0.85D-12  6  4  7627.90   541.37
  11      1.07019353    -0.29497817   -76.35879225    -0.00000000     0.00000002  0.39D-12  0.14D-12  6  5  8145.38   541.49
  12      1.07019352    -0.29497817   -76.35879225    -0.00000000     0.00000001  0.78D-13  0.20D-13  6  6  8664.51   541.58
  13      1.07019351    -0.29497817   -76.35879225    -0.00000000     0.00000000  0.12D-13  0.35D-14  6  1  9181.39   541.51
  14      1.07019350    -0.29497817   -76.35879225    -0.00000000     0.00000000  0.13D-14  0.70D-15  6  2  9699.32   541.58
  15      1.07019350    -0.29497817   -76.35879225    -0.00000000     0.00000000  0.14D-15  0.96D-16  6  3 10214.76   541.51
  16      1.07019350    -0.29497817   -76.35879225    -0.00000000     0.00000000  0.19D-16  0.13D-16  6  4 10731.40   541.48

 Norm of t1 vector:      0.03794252      S-energy:    -0.00000000      T1 diagnostic:  0.00948563
                                                                       D1 diagnostic:  0.01961350


 Total CPU time for triples:   3600.85 sec


 RESULTS
 =======

  Reference energy                    -76.063814081547
  CCSD singlet pair energy             -0.204547268114
  CCSD triplet pair energy             -0.090430902513
  CCSD correlation energy              -0.294978171241

  Triples (T) contribution             -0.009918900887
  Total correlation energy             -0.304897072128

  CCSD total energy                   -76.358792252788
  CCSD[T] energy                      -76.369028552396
  CCSD-T energy                       -76.368563877088
 !CCSD(T) total energy                -76.368711153675

 Timing summary (sec):

 STEP                 CPU(USER)    SYS     CPU(TOT)    WALL
 Transformation       2452.89     95.61   2548.50   2551.71
 CCSD iterations      8278.89    374.17   8653.06   8665.27
 Triples              3600.85    132.41   3733.26   3737.58

 Program statistics:

 Available memory in ccsd:              1999999921
 Min. memory needed in ccsd:              19268142
 Max. memory used in ccsd:                22427508
 Max. memory used in cckext:              14646566 (16 integral passes)



 **********************************************************************************************************************************
 DATASETS  * FILE   NREC   LENGTH (MB)   RECORD NAMES
              1      19     6330.40       500      610      700      900      950      970     1000      129      960     1100   
                                          VAR    BASINP    GEOM    SYMINP    ZMAT    AOBASIS   BASIS     P2S    ABASIS      S 
                                         1400     1410     1200     1210     1080     1600     1650     1700     1380   
                                           T        V       H0       H01     AOSYM     SMH    MOLCAS    OPER     JKOP   

              2       6       38.39       700     1000      520     2100      200     2101   
                                         GEOM     BASIS   MCVARS     RHF    OPTIONS    RHF  

 PROGRAMS   *        TOTAL   CCSD(T)    HF-SCF       INT   CCSD(T)    HF-SCF       INT
 CPU TIMES  *     76388.81  14332.92   4053.12      0.97  51117.95   4416.61   2466.96
 REAL TIME  *     79928.34 SEC
 DISK USED  *        14.28 GB (local),      499.57 GB (total)
 SF USED    *        13.87 GB
 GA USED    *         0.00 MB       (max)       0.00 MB       (current)
 **********************************************************************************************************************************

 Running procedure: SET_MONOMER2

 Dummy atoms: O13  H25  H26


 Recomputing one-electron integrals since nuclear charges changed


 PROGRAM * SEWARD (Integral evaluation for generally contracted gaussian basis sets)     Author: Roland Lindh, 1990

 Geometry written to block  1 of record 700


 Point group  C1  



 ATOMIC COORDINATES

 NR  ATOM    CHARGE       X              Y              Z

   1  O13     0.00   -7.660382791    0.177823228    9.189360199
   2  H25     0.00   -6.870288298    1.893127632    9.251154243
   3  H26     0.00   -7.962738971   -0.267018301   10.932821521
   4  C1      6.00   -6.193010455    2.801518980    2.403542658
   5  H41     1.00   -4.656285171    1.699997622    3.119937832
   6  H42     1.00   -5.973046335    4.726205038    2.982932688
   7  H43     1.00   -7.940251230    2.077186956    3.118237078
   8  H44     1.00   -6.176569838    2.685300823    0.384937212

 Bond lengths in Bohr (Angstrom)

 1-2  1.889533542  1-3  1.824543951  4-5  2.021904040  4-6  2.022002335  4-7  2.021953343
     ( 0.999898090)     ( 0.965507079)     ( 1.069945541)     ( 1.069997556)     ( 1.069971630)

 4-8  2.022015060
     ( 1.070004290)

 Bond angles

  2-1-3  105.03277623   5-4-6  109.53398059   5-4-7  109.65604535   5-4-8  108.43490854

  6-4-7  109.49436728   6-4-8  109.86987750   7-4-8  109.83468330

 NUCLEAR CHARGE:                   10
 NUMBER OF PRIMITIVE AOS:        1046
 NUMBER OF SYMMETRY AOS:          786
 NUMBER OF CONTRACTIONS:          734   (  734A   )
 NUMBER OF CORE ORBITALS:           1   (    1A   )
 NUMBER OF VALENCE ORBITALS:        8   (    8A   )

 MOLECULE CHANGED: INITIALIZING OCCUPATION AND DUMP RECORDS


 NUCLEAR REPULSION ENERGY   13.68681606

 Basis set:  JKFIT                   
 Basis size:  1104
 Attributes:
 Sphericals:   T
 Basis set:  MP2FIT                  
 Basis size:  1246
 Attributes:
 Sphericals:   T
 Basis set:  RI                      
 Basis size:   730
 Attributes:
 Sphericals:   T
 Basis set:  TDDFT                   
 Basis size:  1246
 Attributes:
 Sphericals:   T

 Eigenvalues of metric

         1 0.163E-05 0.189E-05 0.352E-05 0.500E-05 0.545E-05 0.801E-05 0.819E-05 0.873E-05


 Contracted 2-electron integrals neglected if value below      1.0D-14

 OPERATOR DM      FOR CENTER  0  COORDINATES:    0.000000    0.000000    0.000000


 **********************************************************************************************************************************
 DATASETS  * FILE   NREC   LENGTH (MB)   RECORD NAMES
              1      18       49.80       500      610      700      900      950      970     1000      129      960     1100   
                                          VAR    BASINP    GEOM    SYMINP    ZMAT    AOBASIS   BASIS     P2S    ABASIS      S 
                                         1400     1410     1200     1210     1080     1600     1650     1700   
                                           T        V       H0       H01     AOSYM     SMH    MOLCAS    OPER   

              2       6       38.39       700     1000      520     2100      200     2101   
                                         GEOM     BASIS   MCVARS     RHF    OPTIONS    RHF  

 PROGRAMS   *        TOTAL       INT   CCSD(T)    HF-SCF       INT   CCSD(T)    HF-SCF       INT
 CPU TIMES  *     76389.79      0.96  14332.92   4053.12      0.97  51117.95   4416.61   2466.96
 REAL TIME  *     79930.81 SEC
 DISK USED  *        14.28 GB (local),      499.57 GB (total)
 SF USED    *        13.87 GB
 GA USED    *         0.00 MB       (max)       0.00 MB       (current)
 **********************************************************************************************************************************


 PROGRAM * RHF-SCF (CLOSED SHELL)       Authors: W. Meyer, H.-J. Werner


 NUMBER OF ELECTRONS:       5+    5-    SPACE SYMMETRY=1    SPIN SYMMETRY: Singlet 
 CONVERGENCE THRESHOLDS:    1.00E-08 (Density)    1.00E-11 (Energy)
 MAX. NUMBER OF ITERATIONS:       60
 INTERPOLATION TYPE:            DIIS
 INTERPOLATION STEPS:              2 (START)      1 (STEP)
 LEVEL SHIFTS:                  0.00 (CLOSED)  0.00 (OPEN) 



 Orbital guess generated from atomic densities. Full valence occupancy:    9

 Molecular orbital dump at record        2102.2

 Initial occupancy:   5

 ITERATION    DDIFF          GRAD             ENERGY        2-EL.EN.            DIPOLE MOMENTS         DIIS   ORB.
    1      0.000D+00      0.000D+00       -40.19676520     53.509901    0.00411   -0.00276   -0.00131    0    start
    2      0.000D+00      0.198D-02       -40.21405740     52.218477    0.00129   -0.00087   -0.00038    1    diag
    3      0.947D-03      0.769D-03       -40.21634083     52.673984    0.00182   -0.00123   -0.00055    2    diag
    4      0.258D-03      0.192D-03       -40.21666115     52.619247    0.00162   -0.00110   -0.00048    3    diag
    5      0.965D-04      0.248D-04       -40.21666664     52.621405    0.00159   -0.00108   -0.00047    4    diag
    6      0.331D-04      0.204D-05       -40.21666668     52.621533    0.00159   -0.00108   -0.00047    5    diag
    7      0.622D-05      0.166D-06       -40.21666668     52.621495    0.00159   -0.00108   -0.00047    6    diag
    8      0.405D-06      0.136D-07       -40.21666668     52.621496    0.00159   -0.00108   -0.00047    7    diag
    9      0.542D-07      0.167D-08       -40.21666668     52.621496    0.00159   -0.00108   -0.00047    8    diag
   10      0.110D-07      0.465D-09       -40.21666668     52.621496    0.00159   -0.00108   -0.00047    9    orth
   11      0.116D-08      0.666D-10       -40.21666668     52.621496    0.00159   -0.00108   -0.00047    0    orth

 Final occupancy:   5

 !RHF STATE  1.1 Energy               -40.216666679315
 Nuclear energy                        13.68681606
 One-electron energy                  -80.21423054
 Two-electron energy                   26.31074780
 Virial quotient                       -0.99832815
 !RHF STATE  1.1 Dipole moment          0.00158844    -0.00107869    -0.00047419
 Dipole moment /Debye                   0.00403715    -0.00274158    -0.00120518

 Orbital energies:

         1.1          2.1          3.1          4.1          5.1          6.1          7.1
    -11.196017    -0.950605    -0.551931    -0.549996    -0.547818     0.020635     0.030911


 HOMO      5.1    -0.547818 =     -14.9069eV
 LUMO      6.1     0.020635 =       0.5615eV
 LUMO-HOMO         0.568453 =      15.4684eV


 **********************************************************************************************************************************
 DATASETS  * FILE   NREC   LENGTH (MB)   RECORD NAMES
              1      18       49.80       500      610      700      900      950      970     1000      129      960     1100   
                                          VAR    BASINP    GEOM    SYMINP    ZMAT    AOBASIS   BASIS     P2S    ABASIS      S 
                                         1400     1410     1200     1210     1080     1600     1650     1700   
                                           T        V       H0       H01     AOSYM     SMH    MOLCAS    OPER   

              2       7       62.47       700     1000      520     2100      200     2101     2102   
                                         GEOM     BASIS   MCVARS     RHF    OPTIONS    RHF      RHF  

 PROGRAMS   *        TOTAL    HF-SCF       INT   CCSD(T)    HF-SCF       INT   CCSD(T)    HF-SCF       INT
 CPU TIMES  *     80446.56   4056.77      0.96  14332.92   4053.12      0.97  51117.95   4416.61   2466.96
 REAL TIME  *     84321.35 SEC
 DISK USED  *        14.28 GB (local),      499.57 GB (total)
 SF USED    *        13.87 GB
 GA USED    *         0.00 MB       (max)       0.00 MB       (current)
 **********************************************************************************************************************************

 Basis set:  JKFIT                   
 Basis size:  1104
 Attributes:
 Sphericals:   T
 Basis set:  MP2FIT                  
 Basis size:  1246
 Attributes:
 Sphericals:   T
 Basis set:  RI                      
 Basis size:   730
 Attributes:
 Sphericals:   T
 Basis set:  TDDFT                   
 Basis size:  1246
 Attributes:
 Sphericals:   T

 PROGRAM * CCSD (Closed-shell coupled cluster)     Authors: C. Hampel, H.-J. Werner, 1991, M. Deegan, P.J. Knowles, 1992


 Convergence thresholds:  THRVAR = 1.00D-08  THRDEN = 1.00D-10

 CCSD(T)     terms to be evaluated (factor= 1.000)


 Number of core orbitals:           1 (   1 )
 Number of closed-shell orbitals:   4 (   4 )
 Number of external orbitals:     729 ( 729 )

 Molecular orbitals read from record     2102.2  Type=RHF/CANONICAL (state 1.1)

 Number of N-1 electron functions:               4
 Number of N-2 electron functions:              10
 Number of singly external CSFs:              2916
 Number of doubly external CSFs:           4252986
 Total number of CSFs:                     4255903

 Length of J-op  integral file:               0.00 MB
 Length of K-op  integral file:              37.04 MB
 Length of 3-ext integral record:             0.00 MB

 For full I/O caching in triples, increase memory by 535.09 Mwords to 2535.14 Mwords.

 Integral transformation finished. Total CPU:2522.71 sec, npass=  1  Memory used:1010.01 MW

 Reference energy:                    -40.21666668

 MP2 singlet pair energy:              -0.15787547
 MP2 triplet pair energy:              -0.05682265
 MP2 correlation energy:               -0.21469812
 MP2 total energy:                    -40.43136479

 SCS-MP2 correlation energy:           -0.22480687   (PS=  1.200000  PT=  0.333333)
 SCS-MP2 total energy:                -40.44147355

 ITER.      SQ.NORM     CORR.ENERGY   TOTAL ENERGY   ENERGY CHANGE        DEN1      VAR(S)    VAR(P)  DIIS     TIME  TIME/IT
   1      1.07073148    -0.22924151   -40.44590819    -0.01454340    -0.00881144  0.58D-03  0.96D-03  1  1  3036.42   532.31
   2      1.07565327    -0.23033624   -40.44700292    -0.00109473    -0.00537199  0.15D-04  0.11D-03  2  2  3554.38   536.94
   3      1.07738980    -0.23037675   -40.44704343    -0.00004051    -0.00128239  0.20D-05  0.63D-05  3  3  4068.38   537.55
   4      1.07778015    -0.23037848   -40.44704516    -0.00000173    -0.00020098  0.14D-06  0.35D-06  4  4  4584.25   538.06
   5      1.07783451    -0.23038224   -40.44704892    -0.00000376    -0.00001096  0.13D-07  0.24D-07  5  5  5101.22   538.65
   6      1.07784464    -0.23038092   -40.44704760     0.00000132    -0.00000414  0.78D-09  0.17D-08  6  6  5616.60   538.70
   7      1.07784596    -0.23038055   -40.44704723     0.00000037    -0.00000073  0.52D-10  0.13D-09  6  1  6131.27   538.70
   8      1.07784588    -0.23038060   -40.44704728    -0.00000006     0.00000024  0.55D-11  0.79D-11  6  3  6646.18   538.71
   9      1.07784602    -0.23038059   -40.44704727     0.00000002    -0.00000009  0.39D-12  0.55D-12  6  2  7163.80   539.03
  10      1.07784602    -0.23038059   -40.44704726     0.00000000     0.00000001  0.53D-13  0.60D-13  6  4  7681.13   539.29
  11      1.07784602    -0.23038058   -40.44704726     0.00000000    -0.00000000  0.54D-14  0.63D-14  6  5  8196.86   539.33
  12      1.07784602    -0.23038058   -40.44704726     0.00000000     0.00000000  0.15D-15  0.65D-15  6  6  8712.41   539.34
  13      1.07784602    -0.23038058   -40.44704726    -0.00000000     0.00000000  0.12D-16  0.70D-16  6  1  9229.18   539.47
  14      1.07784602    -0.23038058   -40.44704726    -0.00000000     0.00000000  0.30D-17  0.16D-16  6  3  9745.53   539.55

 Norm of t1 vector:      0.03185959      S-energy:     0.00000000      T1 diagnostic:  0.00796490
                                                                       D1 diagnostic:  0.01279369

 Total CPU time for triples:   3601.38 sec


 RESULTS
 =======

  Reference energy                    -40.216666679315
  CCSD singlet pair energy             -0.175398689890
  CCSD triplet pair energy             -0.054981894075
  CCSD correlation energy              -0.230380583962

  Triples (T) contribution             -0.007018596982
  Total correlation energy             -0.237399180945

  CCSD total energy                   -40.447047263278
  CCSD[T] energy                      -40.454289699030
  CCSD-T energy                       -40.453998905789
 !CCSD(T) total energy                -40.454065860260

 Timing summary (sec):

 STEP                 CPU(USER)    SYS     CPU(TOT)    WALL
 Transformation       2525.52     98.71   2624.23   2628.78
 CCSD iterations      7220.40    324.79   7545.19   7555.29
 Triples              3601.38    134.30   3735.68   3739.97

 Program statistics:

 Available memory in ccsd:              1999999916
 Min. memory needed in ccsd:              19268142
 Max. memory used in ccsd:                22427508
 Max. memory used in cckext:              14646566 (14 integral passes)



 **********************************************************************************************************************************
 DATASETS  * FILE   NREC   LENGTH (MB)   RECORD NAMES
              1      19     6330.40       500      610      700      900      950      970     1000      129      960     1100   
                                          VAR    BASINP    GEOM    SYMINP    ZMAT    AOBASIS   BASIS     P2S    ABASIS      S 
                                         1400     1410     1200     1210     1080     1600     1650     1700     1380   
                                           T        V       H0       H01     AOSYM     SMH    MOLCAS    OPER     JKOP   

              2       7       62.47       700     1000      520     2100      200     2101     2102   
                                         GEOM     BASIS   MCVARS     RHF    OPTIONS    RHF      RHF  

 PROGRAMS   *        TOTAL   CCSD(T)    HF-SCF       INT   CCSD(T)    HF-SCF       INT   CCSD(T)    HF-SCF       INT
 CPU TIMES  *     93794.13  13347.56   4056.77      0.96  14332.92   4053.12      0.97  51117.95   4416.61   2466.96
 REAL TIME  *     98247.03 SEC
 DISK USED  *        14.28 GB (local),      499.57 GB (total)
 SF USED    *        13.87 GB
 GA USED    *         0.00 MB       (max)       0.00 MB       (current)
 **********************************************************************************************************************************
 Molecular orbitals read from record     2102.2  Type=RHF/CANONICAL (state 1.1)
 Occupation numbers read from record     2102.2  Type=RHF/RHF (state 1.1)
 Orbital energies read from record       2102.2  Type=RHF/CANONICAL (state 1.1)
 Redundancy group numbers read from rec  2102.2  Type=RHF/RHF (state 1.1)

 CCSD(T)/aug-cc-pV5Z energy=    -40.454065860260

         CCSD(T)          HF-SCF         CCSD(T)          HF-SCF         CCSD(T)          HF-SCF
    -40.45406586    -40.21666668    -76.36871115    -76.06381408   -116.82340535   -116.28051560
 **********************************************************************************************************************************
 Molpro calculation terminated
