
 Primary working directories    : /scratch/klimes/415920/molpro.l82Mxz09BE
 Secondary working directories  : /scratch/klimes/415920/molpro.l82Mxz09BE
 Wavefunction directory         : /scratch/klimes/415920/
 Main file repository           : /scratch/klimes/415920/molpro.l82Mxz09BE/

 id        : karlovklimes

 Nodes                      nprocs
 nc-05.cc.karlov.mff.cuni.cz    4

 Using customized tuning parameters: mindgm=1; mindgv=20; mindgc=4; mindgr=1; noblas=0; minvec=7
 default implementation of scratch files=sf  


 Variables initialized (930), CPU time= 0.01 sec
                                                                                 !gdirect
 memory,2000,m
 gthresh,orbital=1d-10,energy=1d-10,grid=1d-8
 
 symmetry,nosym
 angstrom
 geometry={
 O14        -4.369600000000      4.555200000000     -0.937800000000
 H27        -4.635300000000      5.332600000000     -1.445500000000
 H28        -5.213600000000      4.102600000000     -0.695700000000
 C1        -3.277200000000      1.482500000000      1.271900000000
 H41        -2.464000000000      0.899600000000      1.651000000000
 H42        -3.160800000000      2.501000000000      1.578500000000
 H43        -4.201800000000      1.099200000000      1.650100000000
 H44        -3.268500000000      1.421000000000      0.203700000000
 }
 
 nkerna=1
 nkernb=1
 
 gf=0
 sing=1
 thrdum=1d-4
 gridthr=1d-8
 
 basis={
 set,orbital
 default,av5z
 set,jkfit
 default,av5z/jkfit
 set,mp2fit
 default,av5z/mp2fit
 set,ri
 default,av5z/optri
 set,tddft
 default,av5z/mp2fit
 }
 
 proc set_monomer1
 dummy,4,5,6,7,8
 endproc
 
 proc set_monomer2
 dummy,1,2,3
 endproc
 
                                                                                 !1234 energy
 {hf,accu=1.d-16}
 ccsd(t)
 
 set_monomer1
 {hf,accu=1.d-16}
 ccsd(t)
 
 set_monomer2
 {hf,accu=1.d-16}
 ccsd(t)
 
 Commands  initialized (760), CPU time= 0.02 sec, 617 directives.
 Default parameters read. Elapsed time= 0.17 sec

 Checking input...
 Passed
1


                                         ***  PROGRAM SYSTEM MOLPRO  ***
                                       Copyright, TTI GmbH Stuttgart, 2015
                                    Version 2019.1 linked Jan 14 2019 13:09:19


 **********************************************************************************************************************************
 LABEL *                                                                                 
  64 bit mpp version                                                                     DATE: 16-Mar-20          TIME: 11:01:49  
 **********************************************************************************************************************************

 SHA1:             d688ac825633d238f2093ded1675ba87ccd55965
 **********************************************************************************************************************************

 THRESHOLDS:

 ZERO    =  1.00D-12  ONEINT  =  1.00D-12  TWOINT  =  1.00D-11  PREFAC  =  1.00D-14  XXXXXX  =  1.00D-09  EORDER  =  1.00D-04
 ENERGY  =  1.00D-10  ETEST   =  0.00D+00  EDENS   =  0.00D+00  THRDEDEF=  1.00D-06  GRADIENT=  1.00D-02  STEP    =  1.00D-03
 ORBITAL =  1.00D-10  CIVEC   =  1.00D-05  COEFF   =  1.00D-04  PRINTCI =  5.00D-02  PUNCHCI =  9.90D+01  OPTGRAD =  3.00D-04
 OPTENERG=  1.00D-06  OPTSTEP =  3.00D-04  THRGRAD =  1.00D-10  COMPRESS=  1.00D-11  VARMIN  =  1.00D-07  VARMAX  =  1.00D-03
 THRDOUB =  0.00D+00  THRDIV  =  1.00D-05  THRRED  =  1.00D-07  THRPSP  =  1.00D+00  THRDC   =  1.00D-10  THRCS   =  1.00D-10
 THRNRM  =  1.00D-08  THREQ   =  0.00D+00  THRDE   =  1.00D+00  THRREF  =  1.00D-05  SPARFAC =  1.00D+00  THRDLP  =  1.00D-07
 THRDIA  =  1.00D-10  THRDLS  =  1.00D-07  THRGPS  =  0.00D+00  THRKEX  =  0.00D+00  THRDIS  =  2.00D-01  THRVAR  =  1.00D-10
 THRLOC  =  1.00D-06  THRGAP  =  1.00D-06  THRLOCT = -1.00D+00  THRGAPT = -1.00D+00  THRORB  =  1.00D-06  THRMLTP =  0.00D+00
 THRCPQCI=  1.00D-10  KEXTA   =  0.00D+00  THRCOARS=  0.00D+00  SYMTOL  =  1.00D-06  GRADTOL =  1.00D-06  THROVL  =  1.00D-08
 THRORTH =  1.00D-08  GRID    =  1.00D-08  GRIDMAX =  1.00D-03  DTMAX   =  0.00D+00  THROCCDE=  1.00D-01  THROCCDE=  1.00D-01
 THRPRINT=  2.50D-01


 Variable memory set to 2000000000 words,  buffer space 

 ZSYMEL=NOSYM
 ZUNIT=ANG


Geometry recognized as XYZ

 SETTING NKERNA         =         1.00000000                                  
 SETTING NKERNB         =         1.00000000                                  
 SETTING GF             =     0.00000000D+00                                  
 SETTING SING           =         1.00000000                                  
 SETTING THRDUM         =     1.00000000D-04                                  
 SETTING GRIDTHR        =     1.00000000D-08                                  
 SETTING BASIS          =    AV5Z


 Recomputing integrals since basis changed


 Using spherical harmonics

 Library entry O      S aug-cc-pV5Z          selected for orbital group  1
 Library entry O      P aug-cc-pV5Z          selected for orbital group  1
 Library entry O      D aug-cc-pV5Z          selected for orbital group  1
 Library entry O      F aug-cc-pV5Z          selected for orbital group  1
 Library entry O      G aug-cc-pV5Z          selected for orbital group  1
 Library entry O      H aug-cc-pV5Z          selected for orbital group  1
 Library entry H      S aug-cc-pV5Z          selected for orbital group  2
 Library entry H      P aug-cc-pV5Z          selected for orbital group  2
 Library entry H      D aug-cc-pV5Z          selected for orbital group  2
 Library entry H      F aug-cc-pV5Z          selected for orbital group  2
 Library entry H      G aug-cc-pV5Z          selected for orbital group  2
 Library entry C      S aug-cc-pV5Z          selected for orbital group  3
 Library entry C      P aug-cc-pV5Z          selected for orbital group  3
 Library entry C      D aug-cc-pV5Z          selected for orbital group  3
 Library entry C      F aug-cc-pV5Z          selected for orbital group  3
 Library entry C      G aug-cc-pV5Z          selected for orbital group  3
 Library entry C      H aug-cc-pV5Z          selected for orbital group  3


 PROGRAM * SEWARD (Integral evaluation for generally contracted gaussian basis sets)     Author: Roland Lindh, 1990

 Geometry written to block  1 of record 700


 Point group  C1  



 ATOMIC COORDINATES

 NR  ATOM    CHARGE       X              Y              Z

   1  O14     8.00   -8.257347274    8.608080443   -1.772185160
   2  H27     1.00   -8.759447505   10.077153532   -2.731599113
   3  H28     1.00   -9.852276123    7.752790399   -1.314682465
   4  C1      6.00   -6.193010455    2.801518980    2.403542658
   5  H41     1.00   -4.656285171    1.699997622    3.119937832
   6  H42     1.00   -5.973046335    4.726205038    2.982932688
   7  H43     1.00   -7.940251230    2.077186956    3.118237078
   8  H44     1.00   -6.176569838    2.685300823    0.384937212

 Bond lengths in Bohr (Angstrom)

 1-2  1.825035758  1-3  1.866715781  4-5  2.021904040  4-6  2.022002335  4-7  2.021953343
     ( 0.965767332)     ( 0.987823451)     ( 1.069945541)     ( 1.069997556)     ( 1.069971630)

 4-8  2.022015060
     ( 1.070004290)

 Bond angles

  2-1-3  105.22390814   5-4-6  109.53398059   5-4-7  109.65604535   5-4-8  108.43490854

  6-4-7  109.49436728   6-4-8  109.86987750   7-4-8  109.83468330

 NUCLEAR CHARGE:                   20
 NUMBER OF PRIMITIVE AOS:        1046
 NUMBER OF SYMMETRY AOS:          786
 NUMBER OF CONTRACTIONS:          734   (  734A   )
 NUMBER OF CORE ORBITALS:           2   (    2A   )
 NUMBER OF VALENCE ORBITALS:       14   (   14A   )


 NUCLEAR REPULSION ENERGY   35.88393783


 Basis set:  JKFIT                   
 Basis size:  1104
 Attributes:
 Sphericals:   T
 Basis set:  MP2FIT                  
 Basis size:  1246
 Attributes:
 Sphericals:   T
 Basis set:  RI                      
 Basis size:   730
 Attributes:
 Sphericals:   T
 Basis set:  TDDFT                   
 Basis size:  1246
 Attributes:
 Sphericals:   T

 **********************************************************************************************************************************


 Eigenvalues of metric

         1 0.191E-05 0.250E-05 0.362E-05 0.494E-05 0.549E-05 0.825E-05 0.854E-05 0.889E-05


 Contracted 2-electron integrals neglected if value below      1.0D-14
 AO integral compression algorithm  1   Integral accuracy      1.0D-14

     144585.523 MB (compressed) written to integral file ( 45.8%)

     Node minimum: 33606.337 MB, node maximum: 37942.985 MB


 NUMBER OF SORTED TWO-ELECTRON INTEGRALS: 9095363064.     BUFFER LENGTH:  32768
 NUMBER OF SEGMENTS: 190  SEGMENT LENGTH:   47999780      RECORD LENGTH: 131072

 Memory used in sort:      48.16 MW

 SORT1 READ 39467284725. AND WROTE  6574945168. INTEGRALS IN  75342 RECORDS. CPU TIME:   875.39 SEC, REAL TIME:   995.56 SEC
 SORT2 READ 26304265743. AND WROTE 36381317385. INTEGRALS IN 554520 RECORDS. CPU TIME:   130.27 SEC, REAL TIME:   731.96 SEC

 Node minimum:  9095228192.  Node maximum:  9095430501. integrals

 OPERATOR DM      FOR CENTER  0  COORDINATES:    0.000000    0.000000    0.000000


 **********************************************************************************************************************************
 DATASETS  * FILE   NREC   LENGTH (MB)   RECORD NAMES
              1      18       49.80       500      610      700      900      950      970     1000      129      960     1100   
                                          VAR    BASINP    GEOM    SYMINP    ZMAT    AOBASIS   BASIS     P2S    ABASIS      S 
                                         1400     1410     1200     1210     1080     1600     1650     1700   
                                           T        V       H0       H01     AOSYM     SMH    MOLCAS    OPER   

 PROGRAMS   *        TOTAL       INT
 CPU TIMES  *      1992.71   1992.51
 REAL TIME  *      2772.34 SEC
 DISK USED  *        50.44 MB (local),      460.09 GB (total)
 GA USED    *         0.00 MB       (max)       0.00 MB       (current)
 **********************************************************************************************************************************


 PROGRAM * RHF-SCF (CLOSED SHELL)       Authors: W. Meyer, H.-J. Werner


 NUMBER OF ELECTRONS:      10+   10-    SPACE SYMMETRY=1    SPIN SYMMETRY: Singlet 
 CONVERGENCE THRESHOLDS:    1.00E-08 (Density)    1.00E-11 (Energy)
 MAX. NUMBER OF ITERATIONS:       60
 INTERPOLATION TYPE:            DIIS
 INTERPOLATION STEPS:              2 (START)      1 (STEP)
 LEVEL SHIFTS:                  0.00 (CLOSED)  0.00 (OPEN) 



 Orbital guess generated from atomic densities. Full valence occupancy:   16

 Molecular orbital dump at record        2100.2

 Initial occupancy:  10

 ITERATION    DDIFF          GRAD             ENERGY        2-EL.EN.            DIPOLE MOMENTS         DIIS   ORB.
    1      0.000D+00      0.000D+00      -116.22311908    157.541387   -1.07353    0.30735   -0.25595    0    start
    2      0.000D+00      0.292D-02      -116.26725886    152.480480   -0.60122    0.22040   -0.17458    1    diag
    3      0.162D-02      0.171D-02      -116.28093303    154.571103   -0.72149    0.24516   -0.19636    2    diag
    4      0.553D-03      0.253D-03      -116.28158744    154.457726   -0.71091    0.24308   -0.19433    3    diag
    5      0.121D-03      0.742D-04      -116.28165593    154.452647   -0.71032    0.24379   -0.19464    4    diag
    6      0.499D-04      0.180D-04      -116.28165976    154.458190   -0.70946    0.24377   -0.19457    5    diag
    7      0.185D-04      0.363D-05      -116.28165999    154.456527   -0.70945    0.24380   -0.19459    6    diag
    8      0.570D-05      0.922D-06      -116.28166001    154.456695   -0.70937    0.24380   -0.19459    7    diag
    9      0.132D-05      0.218D-06      -116.28166001    154.456668   -0.70935    0.24380   -0.19458    8    diag
   10      0.271D-06      0.258D-07      -116.28166001    154.456669   -0.70935    0.24380   -0.19458    9    orth
   11      0.621D-07      0.585D-08      -116.28166001    154.456670   -0.70935    0.24380   -0.19458    9    diag
   12      0.482D-08      0.151D-08      -116.28166001    154.456670   -0.70935    0.24380   -0.19458    0    orth

 Final occupancy:  10

 !RHF STATE  1.1 Energy              -116.281660012056
 Nuclear energy                        35.88393783
 One-electron energy                 -229.39393299
 Two-electron energy                   77.22833514
 Virial quotient                       -1.00062192
 !RHF STATE  1.1 Dipole moment         -0.70934621     0.24379781    -0.19458081
 Dipole moment /Debye                  -1.80286014     0.61963164    -0.49454268

 Orbital energies:

         1.1          2.1          3.1          4.1          5.1          6.1          7.1          8.1          9.1         10.1
    -20.567040   -11.189024    -1.342414    -0.943780    -0.708584    -0.580089    -0.545439    -0.542886    -0.540620    -0.508754

        11.1         12.1
      0.020796     0.031230


 HOMO     10.1    -0.508754 =     -13.8439eV
 LUMO     11.1     0.020796 =       0.5659eV
 LUMO-HOMO         0.529551 =      14.4098eV


 **********************************************************************************************************************************
 DATASETS  * FILE   NREC   LENGTH (MB)   RECORD NAMES
              1      18       49.80       500      610      700      900      950      970     1000      129      960     1100   
                                          VAR    BASINP    GEOM    SYMINP    ZMAT    AOBASIS   BASIS     P2S    ABASIS      S 
                                         1400     1410     1200     1210     1080     1600     1650     1700   
                                           T        V       H0       H01     AOSYM     SMH    MOLCAS    OPER   

              2       4       13.79       700     1000      520     2100   
                                         GEOM     BASIS   MCVARS     RHF  

 PROGRAMS   *        TOTAL    HF-SCF       INT
 CPU TIMES  *      4965.41   2972.69   1992.51
 REAL TIME  *      5999.30 SEC
 DISK USED  *       102.61 MB (local),      460.29 GB (total)
 SF USED    *         2.16 MB
 GA USED    *         0.00 MB       (max)       0.00 MB       (current)
 **********************************************************************************************************************************

 Basis set:  JKFIT                   
 Basis size:  1104
 Attributes:
 Sphericals:   T
 Basis set:  MP2FIT                  
 Basis size:  1246
 Attributes:
 Sphericals:   T
 Basis set:  RI                      
 Basis size:   730
 Attributes:
 Sphericals:   T
 Basis set:  TDDFT                   
 Basis size:  1246
 Attributes:
 Sphericals:   T

 PROGRAM * CCSD (Closed-shell coupled cluster)     Authors: C. Hampel, H.-J. Werner, 1991, M. Deegan, P.J. Knowles, 1992


 Convergence thresholds:  THRVAR = 1.00D-08  THRDEN = 1.00D-10

 CCSD(T)     terms to be evaluated (factor= 1.000)


 Number of core orbitals:           2 (   2 )
 Number of closed-shell orbitals:   8 (   8 )
 Number of external orbitals:     724 ( 724 )

 Molecular orbitals read from record     2100.2  Type=RHF/CANONICAL (state 1.1)

 Number of N-1 electron functions:               8
 Number of N-2 electron functions:              36
 Number of singly external CSFs:              5792
 Number of doubly external CSFs:          16776528
 Total number of CSFs:                    16782321

 Length of J-op  integral file:               0.00 MB
 Length of K-op  integral file:              37.04 MB
 Length of 3-ext integral record:             0.00 MB

 For full I/O caching in triples, increase memory by 2034.74 Mwords to 4034.79 Mwords.

 Integral transformation finished. Total CPU:2750.04 sec, npass=  1  Memory used:1826.26 MW

 Reference energy:                   -116.28166001

 MP2 singlet pair energy:              -0.35012295
 MP2 triplet pair energy:              -0.15945611
 MP2 correlation energy:               -0.50957906
 MP2 total energy:                   -116.79123907

 SCS-MP2 correlation energy:           -0.51936467   (PS=  1.200000  PT=  0.333333)
 SCS-MP2 total energy:               -116.80102469

 ITER.      SQ.NORM     CORR.ENERGY   TOTAL ENERGY   ENERGY CHANGE        DEN1      VAR(S)    VAR(P)  DIIS     TIME  TIME/IT
   1      1.13498213    -0.52398559  -116.80564561    -0.01440654    -0.00274391  0.14D-02  0.20D-02  1  1  3870.43  1139.62
   2      1.14333250    -0.52531421  -116.80697422    -0.00132861    -0.01021093  0.31D-04  0.25D-03  2  2  4998.76  1145.67
   3      1.14662736    -0.52544076  -116.80710077    -0.00012655    -0.00238895  0.11D-04  0.13D-04  3  3  6127.71  1147.18
   4      1.14752844    -0.52543806  -116.80709807     0.00000270    -0.00045658  0.65D-06  0.12D-05  4  4  7255.19  1147.56
   5      1.14769130    -0.52543988  -116.80709990    -0.00000183    -0.00004401  0.20D-06  0.89D-07  5  5  8382.16  1147.75
   6      1.14773812    -0.52543696  -116.80709697     0.00000293    -0.00001014  0.21D-07  0.73D-08  6  6  9508.73  1147.79
   7      1.14774816    -0.52543573  -116.80709574     0.00000123    -0.00000200  0.19D-08  0.90D-09  6  2 10637.88  1148.17
   8      1.14775047    -0.52543555  -116.80709556     0.00000018    -0.00000010  0.30D-09  0.93D-10  6  1 11765.51  1148.24
   9      1.14775135    -0.52543550  -116.80709551     0.00000005    -0.00000004  0.21D-10  0.14D-10  6  3 12893.33  1148.35
  10      1.14775145    -0.52543550  -116.80709552    -0.00000001     0.00000011  0.22D-11  0.16D-11  6  4 14021.69  1148.47
  11      1.14775142    -0.52543551  -116.80709552    -0.00000001     0.00000007  0.33D-12  0.22D-12  6  5 15149.70  1148.55
  12      1.14775140    -0.52543551  -116.80709552    -0.00000000     0.00000002  0.69D-13  0.28D-13  6  6 16277.29  1148.54
  13      1.14775138    -0.52543551  -116.80709552    -0.00000000     0.00000001  0.13D-13  0.38D-14  6  2 17403.22  1148.46
  14      1.14775137    -0.52543551  -116.80709552    -0.00000000     0.00000000  0.21D-14  0.80D-15  6  1 18531.07  1148.51
  15      1.14775137    -0.52543551  -116.80709552    -0.00000000     0.00000000  0.28D-15  0.12D-15  6  3 19658.02  1148.48
  16      1.14775137    -0.52543551  -116.80709552    -0.00000000    -0.00000000  0.46D-16  0.21D-16  6  4 20784.39  1148.47
  17      1.14775137    -0.52543551  -116.80709552    -0.00000000    -0.00000000  0.15D-16  0.69D-17  6  5 21910.61  1148.41

 Norm of t1 vector:      0.04954245      S-energy:    -0.00000000      T1 diagnostic:  0.00875795
                                                                       D1 diagnostic:  0.01958839

   CPU time for triples:   3492.56 sec for i =  1 -  4 /  8 (~  14.3 % done)
   CPU time for triples:   6987.78 sec for i =  5 -  6 /  8 (~  44.6 % done)
   CPU time for triples:   6139.13 sec for i =  7 -  7 /  8 (~  68.8 % done)
   CPU time for triples:   7903.76 sec for i =  8 -  8 /  8 (  100.0 % done)

 Total CPU time for triples:  24523.31 sec


 RESULTS
 =======

  Reference energy                   -116.281660012062
  CCSD singlet pair energy             -0.379654689899
  CCSD triplet pair energy             -0.145780821591
  CCSD correlation energy              -0.525435511696

  Triples (T) contribution             -0.016959354481
  Total correlation energy             -0.542394866178

  CCSD total energy                  -116.807095523758
  CCSD[T] energy                     -116.824593012379
  CCSD-T energy                      -116.823841991028
 !CCSD(T) total energy               -116.824054878240

 Timing summary (sec):

 STEP                 CPU(USER)    SYS     CPU(TOT)    WALL
 Transformation       2756.16    117.71   2873.87   2895.72
 CCSD iterations     19154.88    338.91  19493.79  19524.15
 Triples             24523.31    858.63  25381.94  25409.50

 Program statistics:

 Available memory in ccsd:              1999999734
 Min. memory needed in ccsd:              48755833
 Max. memory used in ccsd:                63342105
 Max. memory used in cckext:              42809278 (17 integral passes)



 **********************************************************************************************************************************
 DATASETS  * FILE   NREC   LENGTH (MB)   RECORD NAMES
              1      19    12452.38       500      610      700      900      950      970     1000      129      960     1100   
                                          VAR    BASINP    GEOM    SYMINP    ZMAT    AOBASIS   BASIS     P2S    ABASIS      S 
                                         1400     1410     1200     1210     1080     1600     1650     1700     1380   
                                           T        V       H0       H01     AOSYM     SMH    MOLCAS    OPER     JKOP   

              2       4       13.79       700     1000      520     2100   
                                         GEOM     BASIS   MCVARS     RHF  

 PROGRAMS   *        TOTAL   CCSD(T)    HF-SCF       INT
 CPU TIMES  *     51400.04  46434.63   2972.69   1992.51
 REAL TIME  *     53830.98 SEC
 DISK USED  *        14.28 GB (local),      511.56 GB (total)
 SF USED    *        13.87 GB
 GA USED    *         0.00 MB       (max)       0.00 MB       (current)
 **********************************************************************************************************************************

 Running procedure: SET_MONOMER1

 Dummy atoms: C1  H41  H42  H43  H44


 Recomputing one-electron integrals since nuclear charges changed


 PROGRAM * SEWARD (Integral evaluation for generally contracted gaussian basis sets)     Author: Roland Lindh, 1990

 Geometry written to block  1 of record 700


 Point group  C1  



 ATOMIC COORDINATES

 NR  ATOM    CHARGE       X              Y              Z

   1  O14     8.00   -8.257347274    8.608080443   -1.772185160
   2  H27     1.00   -8.759447505   10.077153532   -2.731599113
   3  H28     1.00   -9.852276123    7.752790399   -1.314682465
   4  C1      0.00   -6.193010455    2.801518980    2.403542658
   5  H41     0.00   -4.656285171    1.699997622    3.119937832
   6  H42     0.00   -5.973046335    4.726205038    2.982932688
   7  H43     0.00   -7.940251230    2.077186956    3.118237078
   8  H44     0.00   -6.176569838    2.685300823    0.384937212

 Bond lengths in Bohr (Angstrom)

 1-2  1.825035758  1-3  1.866715781  4-5  2.021904040  4-6  2.022002335  4-7  2.021953343
     ( 0.965767332)     ( 0.987823451)     ( 1.069945541)     ( 1.069997556)     ( 1.069971630)

 4-8  2.022015060
     ( 1.070004290)

 Bond angles

  2-1-3  105.22390814   5-4-6  109.53398059   5-4-7  109.65604535   5-4-8  108.43490854

  6-4-7  109.49436728   6-4-8  109.86987750   7-4-8  109.83468330

 NUCLEAR CHARGE:                   10
 NUMBER OF PRIMITIVE AOS:        1046
 NUMBER OF SYMMETRY AOS:          786
 NUMBER OF CONTRACTIONS:          734   (  734A   )
 NUMBER OF CORE ORBITALS:           1   (    1A   )
 NUMBER OF VALENCE ORBITALS:        6   (    6A   )

 MOLECULE CHANGED: INITIALIZING OCCUPATION AND DUMP RECORDS


 NUCLEAR REPULSION ENERGY    9.00998347

 Basis set:  JKFIT                   
 Basis size:  1104
 Attributes:
 Sphericals:   T
 Basis set:  MP2FIT                  
 Basis size:  1246
 Attributes:
 Sphericals:   T
 Basis set:  RI                      
 Basis size:   730
 Attributes:
 Sphericals:   T
 Basis set:  TDDFT                   
 Basis size:  1246
 Attributes:
 Sphericals:   T

 Eigenvalues of metric

         1 0.191E-05 0.250E-05 0.362E-05 0.494E-05 0.549E-05 0.825E-05 0.854E-05 0.889E-05


 Contracted 2-electron integrals neglected if value below      1.0D-14

 OPERATOR DM      FOR CENTER  0  COORDINATES:    0.000000    0.000000    0.000000


 **********************************************************************************************************************************
 DATASETS  * FILE   NREC   LENGTH (MB)   RECORD NAMES
              1      18       49.80       500      610      700      900      950      970     1000      129      960     1100   
                                          VAR    BASINP    GEOM    SYMINP    ZMAT    AOBASIS   BASIS     P2S    ABASIS      S 
                                         1400     1410     1200     1210     1080     1600     1650     1700   
                                           T        V       H0       H01     AOSYM     SMH    MOLCAS    OPER   

              2       5       24.61       700     1000      520     2100      200   
                                         GEOM     BASIS   MCVARS     RHF    OPTIONS    

 PROGRAMS   *        TOTAL       INT   CCSD(T)    HF-SCF       INT
 CPU TIMES  *     51400.96      0.91  46434.63   2972.69   1992.51
 REAL TIME  *     53833.97 SEC
 DISK USED  *        14.28 GB (local),      511.60 GB (total)
 SF USED    *        13.87 GB
 GA USED    *         0.00 MB       (max)       0.00 MB       (current)
 **********************************************************************************************************************************


 PROGRAM * RHF-SCF (CLOSED SHELL)       Authors: W. Meyer, H.-J. Werner


 NUMBER OF ELECTRONS:       5+    5-    SPACE SYMMETRY=1    SPIN SYMMETRY: Singlet 
 CONVERGENCE THRESHOLDS:    1.00E-08 (Density)    1.00E-11 (Energy)
 MAX. NUMBER OF ITERATIONS:       60
 INTERPOLATION TYPE:            DIIS
 INTERPOLATION STEPS:              2 (START)      1 (STEP)
 LEVEL SHIFTS:                  0.00 (CLOSED)  0.00 (OPEN) 



 Orbital guess generated from atomic densities. Full valence occupancy:    7

 Molecular orbital dump at record        2101.2

 Initial occupancy:   5

 ITERATION    DDIFF          GRAD             ENERGY        2-EL.EN.            DIPOLE MOMENTS         DIIS   ORB.
    1      0.000D+00      0.000D+00       -76.02637162     77.434589   -1.07772    0.30879   -0.25373    0    start
    2      0.000D+00      0.360D-02       -76.05321227     73.778094   -0.62374    0.18492   -0.15079    1    diag
    3      0.130D-02      0.229D-02       -76.06478972     75.401804   -0.73650    0.21698   -0.17717    2    diag
    4      0.491D-03      0.215D-03       -76.06498459     75.310341   -0.73151    0.21674   -0.17676    3    diag
    5      0.626D-04      0.602D-04       -76.06500561     75.324872   -0.72965    0.21671   -0.17663    4    diag
    6      0.196D-04      0.120D-04       -76.06500698     75.323801   -0.72921    0.21674   -0.17664    5    diag
    7      0.511D-05      0.246D-05       -76.06500705     75.323945   -0.72907    0.21675   -0.17663    6    diag
    8      0.135D-05      0.467D-06       -76.06500705     75.323933   -0.72903    0.21674   -0.17662    7    diag
    9      0.252D-06      0.637D-07       -76.06500705     75.323924   -0.72902    0.21674   -0.17662    8    diag
   10      0.369D-07      0.143D-07       -76.06500705     75.323927   -0.72902    0.21674   -0.17662    9    orth
   11      0.813D-08      0.293D-08       -76.06500705     75.323926   -0.72902    0.21674   -0.17662    0    orth

 Final occupancy:   5

 !RHF STATE  1.1 Energy               -76.065007054277
 Nuclear energy                         9.00998347
 One-electron energy                 -122.73695373
 Two-electron energy                   37.66196321
 Virial quotient                       -1.00185521
 !RHF STATE  1.1 Dipole moment         -0.72902127     0.21674037    -0.17662309
 Dipole moment /Debye                  -1.85286588     0.55086299    -0.44890173

 Orbital energies:

         1.1          2.1          3.1          4.1          5.1          6.1          7.1
    -20.567051    -1.342373    -0.708545    -0.579806    -0.508738     0.018399     0.028800


 HOMO      5.1    -0.508738 =     -13.8435eV
 LUMO      6.1     0.018399 =       0.5007eV
 LUMO-HOMO         0.527137 =      14.3441eV


 **********************************************************************************************************************************
 DATASETS  * FILE   NREC   LENGTH (MB)   RECORD NAMES
              1      18       49.80       500      610      700      900      950      970     1000      129      960     1100   
                                          VAR    BASINP    GEOM    SYMINP    ZMAT    AOBASIS   BASIS     P2S    ABASIS      S 
                                         1400     1410     1200     1210     1080     1600     1650     1700   
                                           T        V       H0       H01     AOSYM     SMH    MOLCAS    OPER   

              2       6       38.39       700     1000      520     2100      200     2101   
                                         GEOM     BASIS   MCVARS     RHF    OPTIONS    RHF  

 PROGRAMS   *        TOTAL    HF-SCF       INT   CCSD(T)    HF-SCF       INT
 CPU TIMES  *     53810.68   2409.71      0.91  46434.63   2972.69   1992.51
 REAL TIME  *     56415.48 SEC
 DISK USED  *        14.28 GB (local),      511.60 GB (total)
 SF USED    *        13.87 GB
 GA USED    *         0.00 MB       (max)       0.00 MB       (current)
 **********************************************************************************************************************************

 Basis set:  JKFIT                   
 Basis size:  1104
 Attributes:
 Sphericals:   T
 Basis set:  MP2FIT                  
 Basis size:  1246
 Attributes:
 Sphericals:   T
 Basis set:  RI                      
 Basis size:   730
 Attributes:
 Sphericals:   T
 Basis set:  TDDFT                   
 Basis size:  1246
 Attributes:
 Sphericals:   T

 PROGRAM * CCSD (Closed-shell coupled cluster)     Authors: C. Hampel, H.-J. Werner, 1991, M. Deegan, P.J. Knowles, 1992


 Convergence thresholds:  THRVAR = 1.00D-08  THRDEN = 1.00D-10

 CCSD(T)     terms to be evaluated (factor= 1.000)


 Number of core orbitals:           1 (   1 )
 Number of closed-shell orbitals:   4 (   4 )
 Number of external orbitals:     729 ( 729 )

 Molecular orbitals read from record     2101.2  Type=RHF/CANONICAL (state 1.1)

 Number of N-1 electron functions:               4
 Number of N-2 electron functions:              10
 Number of singly external CSFs:              2916
 Number of doubly external CSFs:           4252986
 Total number of CSFs:                     4255903

 Length of J-op  integral file:               0.00 MB
 Length of K-op  integral file:              37.04 MB
 Length of 3-ext integral record:             0.00 MB

 For full I/O caching in triples, increase memory by 535.09 Mwords to 2535.14 Mwords.

 Integral transformation finished. Total CPU:1453.01 sec, npass=  1  Memory used:1010.01 MW

 Reference energy:                    -76.06500705

 MP2 singlet pair energy:              -0.19211247
 MP2 triplet pair energy:              -0.10223511
 MP2 correlation energy:               -0.29434758
 MP2 total energy:                    -76.35935463

 SCS-MP2 correlation energy:           -0.29414792   (PS=  1.200000  PT=  0.333333)
 SCS-MP2 total energy:                -76.35915497

 ITER.      SQ.NORM     CORR.ENERGY   TOTAL ENERGY   ENERGY CHANGE        DEN1      VAR(S)    VAR(P)  DIIS     TIME  TIME/IT
   1      1.06405963    -0.29425997   -76.35926702     0.00008761     0.00601420  0.81D-03  0.10D-02  1  1  1840.85   398.27
   2      1.06762143    -0.29450145   -76.35950851    -0.00024148    -0.00494454  0.16D-04  0.12D-03  2  2  2229.85   400.97
   3      1.06904652    -0.29458044   -76.35958749    -0.00007899    -0.00102238  0.80D-05  0.67D-05  3  3  2617.90   401.57
   4      1.06952720    -0.29457865   -76.35958570     0.00000179    -0.00023397  0.51D-06  0.73D-06  4  4  3007.66   402.16
   5      1.06963068    -0.29457698   -76.35958404     0.00000167    -0.00003124  0.16D-06  0.50D-07  5  5  3397.86   402.47
   6      1.06966617    -0.29457439   -76.35958144     0.00000260    -0.00000776  0.16D-07  0.40D-08  6  6  3787.43   402.76
   7      1.06967366    -0.29457389   -76.35958094     0.00000050    -0.00000066  0.12D-08  0.58D-09  6  1  4176.53   402.78
   8      1.06967517    -0.29457381   -76.35958087     0.00000007     0.00000008  0.17D-09  0.67D-10  6  2  4565.99   402.85
   9      1.06967580    -0.29457377   -76.35958082     0.00000005    -0.00000000  0.11D-10  0.67D-11  6  3  4955.61   402.95
  10      1.06967588    -0.29457376   -76.35958082     0.00000000     0.00000004  0.16D-11  0.76D-12  6  4  5345.73   403.06
  11      1.06967587    -0.29457376   -76.35958082    -0.00000000     0.00000002  0.34D-12  0.12D-12  6  5  5735.32   403.11
  12      1.06967586    -0.29457376   -76.35958082    -0.00000000     0.00000001  0.68D-13  0.17D-13  6  6  6125.81   403.22
  13      1.06967586    -0.29457377   -76.35958082    -0.00000000     0.00000000  0.10D-13  0.31D-14  6  1  6515.59   403.27
  14      1.06967585    -0.29457377   -76.35958082    -0.00000000     0.00000000  0.12D-14  0.62D-15  6  2  6883.72   401.68
  15      1.06967585    -0.29457377   -76.35958082    -0.00000000     0.00000000  0.13D-15  0.85D-16  6  3  7248.62   400.07
  16      1.06967585    -0.29457377   -76.35958082    -0.00000000     0.00000000  0.18D-16  0.12D-16  6  4  7615.64   398.82

 Norm of t1 vector:      0.03751466      S-energy:    -0.00000000      T1 diagnostic:  0.00937866
                                                                       D1 diagnostic:  0.01937416


 Total CPU time for triples:   3612.91 sec


 RESULTS
 =======

  Reference energy                    -76.065007054275
  CCSD singlet pair energy             -0.204176241404
  CCSD triplet pair energy             -0.090397524149
  CCSD correlation energy              -0.294573766097

  Triples (T) contribution             -0.009853278050
  Total correlation energy             -0.304427044147

  CCSD total energy                   -76.359580820372
  CCSD[T] energy                      -76.369746006857
  CCSD-T energy                       -76.369289582325
 !CCSD(T) total energy                -76.369434098422

 Timing summary (sec):

 STEP                 CPU(USER)    SYS     CPU(TOT)    WALL
 Transformation       1454.92     51.12   1506.04   1507.67
 CCSD iterations      6161.10    210.48   6371.58   6382.05
 Triples              3612.91    125.89   3738.80   3742.77

 Program statistics:

 Available memory in ccsd:              1999999921
 Min. memory needed in ccsd:              19268142
 Max. memory used in ccsd:                22427508
 Max. memory used in cckext:              14646566 (16 integral passes)



 **********************************************************************************************************************************
 DATASETS  * FILE   NREC   LENGTH (MB)   RECORD NAMES
              1      19     6330.40       500      610      700      900      950      970     1000      129      960     1100   
                                          VAR    BASINP    GEOM    SYMINP    ZMAT    AOBASIS   BASIS     P2S    ABASIS      S 
                                         1400     1410     1200     1210     1080     1600     1650     1700     1380   
                                           T        V       H0       H01     AOSYM     SMH    MOLCAS    OPER     JKOP   

              2       6       38.39       700     1000      520     2100      200     2101   
                                         GEOM     BASIS   MCVARS     RHF    OPTIONS    RHF  

 PROGRAMS   *        TOTAL   CCSD(T)    HF-SCF       INT   CCSD(T)    HF-SCF       INT
 CPU TIMES  *     65039.85  11229.17   2409.71      0.91  46434.63   2972.69   1992.51
 REAL TIME  *     68049.27 SEC
 DISK USED  *        14.28 GB (local),      511.60 GB (total)
 SF USED    *        13.87 GB
 GA USED    *         0.00 MB       (max)       0.00 MB       (current)
 **********************************************************************************************************************************

 Running procedure: SET_MONOMER2

 Dummy atoms: O14  H27  H28


 Recomputing one-electron integrals since nuclear charges changed


 PROGRAM * SEWARD (Integral evaluation for generally contracted gaussian basis sets)     Author: Roland Lindh, 1990

 Geometry written to block  1 of record 700


 Point group  C1  



 ATOMIC COORDINATES

 NR  ATOM    CHARGE       X              Y              Z

   1  O14     0.00   -8.257347274    8.608080443   -1.772185160
   2  H27     0.00   -8.759447505   10.077153532   -2.731599113
   3  H28     0.00   -9.852276123    7.752790399   -1.314682465
   4  C1      6.00   -6.193010455    2.801518980    2.403542658
   5  H41     1.00   -4.656285171    1.699997622    3.119937832
   6  H42     1.00   -5.973046335    4.726205038    2.982932688
   7  H43     1.00   -7.940251230    2.077186956    3.118237078
   8  H44     1.00   -6.176569838    2.685300823    0.384937212

 Bond lengths in Bohr (Angstrom)

 1-2  1.825035758  1-3  1.866715781  4-5  2.021904040  4-6  2.022002335  4-7  2.021953343
     ( 0.965767332)     ( 0.987823451)     ( 1.069945541)     ( 1.069997556)     ( 1.069971630)

 4-8  2.022015060
     ( 1.070004290)

 Bond angles

  2-1-3  105.22390814   5-4-6  109.53398059   5-4-7  109.65604535   5-4-8  108.43490854

  6-4-7  109.49436728   6-4-8  109.86987750   7-4-8  109.83468330

 NUCLEAR CHARGE:                   10
 NUMBER OF PRIMITIVE AOS:        1046
 NUMBER OF SYMMETRY AOS:          786
 NUMBER OF CONTRACTIONS:          734   (  734A   )
 NUMBER OF CORE ORBITALS:           1   (    1A   )
 NUMBER OF VALENCE ORBITALS:        8   (    8A   )

 MOLECULE CHANGED: INITIALIZING OCCUPATION AND DUMP RECORDS


 NUCLEAR REPULSION ENERGY   13.68681606

 Basis set:  JKFIT                   
 Basis size:  1104
 Attributes:
 Sphericals:   T
 Basis set:  MP2FIT                  
 Basis size:  1246
 Attributes:
 Sphericals:   T
 Basis set:  RI                      
 Basis size:   730
 Attributes:
 Sphericals:   T
 Basis set:  TDDFT                   
 Basis size:  1246
 Attributes:
 Sphericals:   T

 Eigenvalues of metric

         1 0.191E-05 0.250E-05 0.362E-05 0.494E-05 0.549E-05 0.825E-05 0.854E-05 0.889E-05


 Contracted 2-electron integrals neglected if value below      1.0D-14

 OPERATOR DM      FOR CENTER  0  COORDINATES:    0.000000    0.000000    0.000000


 **********************************************************************************************************************************
 DATASETS  * FILE   NREC   LENGTH (MB)   RECORD NAMES
              1      18       49.80       500      610      700      900      950      970     1000      129      960     1100   
                                          VAR    BASINP    GEOM    SYMINP    ZMAT    AOBASIS   BASIS     P2S    ABASIS      S 
                                         1400     1410     1200     1210     1080     1600     1650     1700   
                                           T        V       H0       H01     AOSYM     SMH    MOLCAS    OPER   

              2       6       38.39       700     1000      520     2100      200     2101   
                                         GEOM     BASIS   MCVARS     RHF    OPTIONS    RHF  

 PROGRAMS   *        TOTAL       INT   CCSD(T)    HF-SCF       INT   CCSD(T)    HF-SCF       INT
 CPU TIMES  *     65040.76      0.90  11229.17   2409.71      0.91  46434.63   2972.69   1992.51
 REAL TIME  *     68051.32 SEC
 DISK USED  *        14.28 GB (local),      511.60 GB (total)
 SF USED    *        13.87 GB
 GA USED    *         0.00 MB       (max)       0.00 MB       (current)
 **********************************************************************************************************************************


 PROGRAM * RHF-SCF (CLOSED SHELL)       Authors: W. Meyer, H.-J. Werner


 NUMBER OF ELECTRONS:       5+    5-    SPACE SYMMETRY=1    SPIN SYMMETRY: Singlet 
 CONVERGENCE THRESHOLDS:    1.00E-08 (Density)    1.00E-11 (Energy)
 MAX. NUMBER OF ITERATIONS:       60
 INTERPOLATION TYPE:            DIIS
 INTERPOLATION STEPS:              2 (START)      1 (STEP)
 LEVEL SHIFTS:                  0.00 (CLOSED)  0.00 (OPEN) 



 Orbital guess generated from atomic densities. Full valence occupancy:    9

 Molecular orbital dump at record        2102.2

 Initial occupancy:   5

 ITERATION    DDIFF          GRAD             ENERGY        2-EL.EN.            DIPOLE MOMENTS         DIIS   ORB.
    1      0.000D+00      0.000D+00       -40.19676524     53.509902    0.00411   -0.00276   -0.00131    0    start
    2      0.000D+00      0.198D-02       -40.21405744     52.218478    0.00128   -0.00087   -0.00039    1    diag
    3      0.949D-03      0.769D-03       -40.21634087     52.673984    0.00182   -0.00123   -0.00055    2    diag
    4      0.258D-03      0.192D-03       -40.21666119     52.619247    0.00162   -0.00110   -0.00049    3    diag
    5      0.976D-04      0.248D-04       -40.21666668     52.621405    0.00159   -0.00108   -0.00048    4    diag
    6      0.341D-04      0.204D-05       -40.21666672     52.621533    0.00159   -0.00108   -0.00048    5    diag
    7      0.625D-05      0.166D-06       -40.21666672     52.621496    0.00159   -0.00108   -0.00048    6    diag
    8      0.387D-06      0.136D-07       -40.21666672     52.621496    0.00159   -0.00108   -0.00048    7    diag
    9      0.553D-07      0.167D-08       -40.21666672     52.621496    0.00159   -0.00108   -0.00048    8    diag
   10      0.109D-07      0.465D-09       -40.21666672     52.621496    0.00159   -0.00108   -0.00048    9    orth
   11      0.113D-08      0.666D-10       -40.21666672     52.621496    0.00159   -0.00108   -0.00048    0    orth

 Final occupancy:   5

 !RHF STATE  1.1 Energy               -40.216666718387
 Nuclear energy                        13.68681606
 One-electron energy                  -80.21423091
 Two-electron energy                   26.31074813
 Virial quotient                       -0.99832815
 !RHF STATE  1.1 Dipole moment          0.00158550    -0.00107948    -0.00047616
 Dipole moment /Debye                   0.00402967    -0.00274357    -0.00121021

 Orbital energies:

         1.1          2.1          3.1          4.1          5.1          6.1          7.1
    -11.196017    -0.950605    -0.551931    -0.549996    -0.547818     0.020690     0.031246


 HOMO      5.1    -0.547818 =     -14.9069eV
 LUMO      6.1     0.020690 =       0.5630eV
 LUMO-HOMO         0.568507 =      15.4699eV


 **********************************************************************************************************************************
 DATASETS  * FILE   NREC   LENGTH (MB)   RECORD NAMES
              1      18       49.80       500      610      700      900      950      970     1000      129      960     1100   
                                          VAR    BASINP    GEOM    SYMINP    ZMAT    AOBASIS   BASIS     P2S    ABASIS      S 
                                         1400     1410     1200     1210     1080     1600     1650     1700   
                                           T        V       H0       H01     AOSYM     SMH    MOLCAS    OPER   

              2       7       62.47       700     1000      520     2100      200     2101     2102   
                                         GEOM     BASIS   MCVARS     RHF    OPTIONS    RHF      RHF  

 PROGRAMS   *        TOTAL    HF-SCF       INT   CCSD(T)    HF-SCF       INT   CCSD(T)    HF-SCF       INT
 CPU TIMES  *     67391.83   2351.07      0.90  11229.17   2409.71      0.91  46434.63   2972.69   1992.51
 REAL TIME  *     70567.82 SEC
 DISK USED  *        14.28 GB (local),      511.60 GB (total)
 SF USED    *        13.87 GB
 GA USED    *         0.00 MB       (max)       0.00 MB       (current)
 **********************************************************************************************************************************

 Basis set:  JKFIT                   
 Basis size:  1104
 Attributes:
 Sphericals:   T
 Basis set:  MP2FIT                  
 Basis size:  1246
 Attributes:
 Sphericals:   T
 Basis set:  RI                      
 Basis size:   730
 Attributes:
 Sphericals:   T
 Basis set:  TDDFT                   
 Basis size:  1246
 Attributes:
 Sphericals:   T

 PROGRAM * CCSD (Closed-shell coupled cluster)     Authors: C. Hampel, H.-J. Werner, 1991, M. Deegan, P.J. Knowles, 1992


 Convergence thresholds:  THRVAR = 1.00D-08  THRDEN = 1.00D-10

 CCSD(T)     terms to be evaluated (factor= 1.000)


 Number of core orbitals:           1 (   1 )
 Number of closed-shell orbitals:   4 (   4 )
 Number of external orbitals:     729 ( 729 )

 Molecular orbitals read from record     2102.2  Type=RHF/CANONICAL (state 1.1)

 Number of N-1 electron functions:               4
 Number of N-2 electron functions:              10
 Number of singly external CSFs:              2916
 Number of doubly external CSFs:           4252986
 Total number of CSFs:                     4255903

 Length of J-op  integral file:               0.00 MB
 Length of K-op  integral file:              37.04 MB
 Length of 3-ext integral record:             0.00 MB

 For full I/O caching in triples, increase memory by 535.09 Mwords to 2535.14 Mwords.

 Integral transformation finished. Total CPU:1414.64 sec, npass=  1  Memory used:1010.01 MW

 Reference energy:                    -40.21666672

 MP2 singlet pair energy:              -0.15787496
 MP2 triplet pair energy:              -0.05682261
 MP2 correlation energy:               -0.21469757
 MP2 total energy:                    -40.43136429

 SCS-MP2 correlation energy:           -0.22480624   (PS=  1.200000  PT=  0.333333)
 SCS-MP2 total energy:                -40.44147296

 ITER.      SQ.NORM     CORR.ENERGY   TOTAL ENERGY   ENERGY CHANGE        DEN1      VAR(S)    VAR(P)  DIIS     TIME  TIME/IT
   1      1.07073153    -0.22924120   -40.44590791    -0.01454363    -0.00881171  0.58D-03  0.96D-03  1  1  1801.70   397.54
   2      1.07565334    -0.23033592   -40.44700264    -0.00109473    -0.00537199  0.15D-04  0.11D-03  2  2  2189.66   399.80
   3      1.07738984    -0.23037643   -40.44704315    -0.00004051    -0.00128236  0.20D-05  0.63D-05  3  3  2577.91   400.65
   4      1.07778019    -0.23037816   -40.44704488    -0.00000173    -0.00020098  0.14D-06  0.35D-06  4  4  2964.93   400.75
   5      1.07783455    -0.23038192   -40.44704864    -0.00000376    -0.00001096  0.13D-07  0.24D-07  5  5  3352.80   400.95
   6      1.07784468    -0.23038060   -40.44704732     0.00000132    -0.00000414  0.77D-09  0.17D-08  6  6  3740.00   401.00
   7      1.07784599    -0.23038023   -40.44704695     0.00000037    -0.00000073  0.52D-10  0.13D-09  6  1  4127.72   401.15
   8      1.07784591    -0.23038029   -40.44704701    -0.00000006     0.00000024  0.54D-11  0.77D-11  6  3  4516.17   401.21
   9      1.07784605    -0.23038027   -40.44704699     0.00000002    -0.00000009  0.38D-12  0.54D-12  6  2  4903.81   401.31
  10      1.07784605    -0.23038027   -40.44704699     0.00000000     0.00000001  0.52D-13  0.59D-13  6  4  5291.32   401.33
  11      1.07784605    -0.23038027   -40.44704699     0.00000000    -0.00000000  0.53D-14  0.63D-14  6  5  5674.83   400.93
  12      1.07784605    -0.23038027   -40.44704699     0.00000000     0.00000000  0.14D-15  0.64D-15  6  6  6040.44   399.04
  13      1.07784605    -0.23038027   -40.44704699    -0.00000000     0.00000000  0.11D-16  0.70D-16  6  1  6404.86   397.34
  14      1.07784605    -0.23038027   -40.44704699    -0.00000000     0.00000000  0.28D-17  0.15D-16  6  3  6771.38   396.06

 Norm of t1 vector:      0.03185950      S-energy:     0.00000000      T1 diagnostic:  0.00796487
                                                                       D1 diagnostic:  0.01279367

 Total CPU time for triples:   3559.20 sec


 RESULTS
 =======

  Reference energy                    -40.216666718389
  CCSD singlet pair energy             -0.175398407053
  CCSD triplet pair energy             -0.054981860645
  CCSD correlation energy              -0.230380267694

  Triples (T) contribution             -0.007018576982
  Total correlation energy             -0.237398844676

  CCSD total energy                   -40.447046986082
  CCSD[T] energy                      -40.454289400825
  CCSD-T energy                       -40.453998608746
 !CCSD(T) total energy                -40.454065563065

 Timing summary (sec):

 STEP                 CPU(USER)    SYS     CPU(TOT)    WALL
 Transformation       1416.71     53.17   1469.88   1473.69
 CCSD iterations      5355.04    183.70   5538.74   5545.72
 Triples              3559.20     96.19   3655.39   3659.04

 Program statistics:

 Available memory in ccsd:              1999999916
 Min. memory needed in ccsd:              19268142
 Max. memory used in ccsd:                22427508
 Max. memory used in cckext:              14646566 (14 integral passes)



 **********************************************************************************************************************************
 DATASETS  * FILE   NREC   LENGTH (MB)   RECORD NAMES
              1      19     6330.40       500      610      700      900      950      970     1000      129      960     1100   
                                          VAR    BASINP    GEOM    SYMINP    ZMAT    AOBASIS   BASIS     P2S    ABASIS      S 
                                         1400     1410     1200     1210     1080     1600     1650     1700     1380   
                                           T        V       H0       H01     AOSYM     SMH    MOLCAS    OPER     JKOP   

              2       7       62.47       700     1000      520     2100      200     2101     2102   
                                         GEOM     BASIS   MCVARS     RHF    OPTIONS    RHF      RHF  

 PROGRAMS   *        TOTAL   CCSD(T)    HF-SCF       INT   CCSD(T)    HF-SCF       INT   CCSD(T)    HF-SCF       INT
 CPU TIMES  *     77723.02  10331.19   2351.07      0.90  11229.17   2409.71      0.91  46434.63   2972.69   1992.51
 REAL TIME  *     81247.52 SEC
 DISK USED  *        14.28 GB (local),      511.60 GB (total)
 SF USED    *        13.87 GB
 GA USED    *         0.00 MB       (max)       0.00 MB       (current)
 **********************************************************************************************************************************
 Molecular orbitals read from record     2102.2  Type=RHF/CANONICAL (state 1.1)
 Occupation numbers read from record     2102.2  Type=RHF/RHF (state 1.1)
 Orbital energies read from record       2102.2  Type=RHF/CANONICAL (state 1.1)
 Redundancy group numbers read from rec  2102.2  Type=RHF/RHF (state 1.1)

 CCSD(T)/aug-cc-pV5Z energy=    -40.454065563065

         CCSD(T)          HF-SCF         CCSD(T)          HF-SCF         CCSD(T)          HF-SCF
    -40.45406556    -40.21666672    -76.36943410    -76.06500705   -116.82405488   -116.28166001
 **********************************************************************************************************************************
 Molpro calculation terminated
