
 Primary working directories    : /scratch/klimes/415921/molpro.Pfle9tgX4w
 Secondary working directories  : /scratch/klimes/415921/molpro.Pfle9tgX4w
 Wavefunction directory         : /scratch/klimes/415921/
 Main file repository           : /scratch/klimes/415921/molpro.Pfle9tgX4w/

 id        : karlovklimes

 Nodes                      nprocs
 nc-05.cc.karlov.mff.cuni.cz    4

 Using customized tuning parameters: mindgm=1; mindgv=20; mindgc=4; mindgr=1; noblas=0; minvec=7
 default implementation of scratch files=sf  


 Variables initialized (930), CPU time= 0.01 sec
                                                                                 !gdirect
 memory,2000,m
 gthresh,orbital=1d-10,energy=1d-10,grid=1d-8
 
 symmetry,nosym
 angstrom
 geometry={
 O15        -6.012300000000     -1.326900000000      0.948000000000
 H29        -5.145500000000     -1.802000000000      0.952300000000
 H30        -6.682100000000     -2.019400000000      0.881700000000
 C1        -3.277200000000      1.482500000000      1.271900000000
 H41        -2.464000000000      0.899600000000      1.651000000000
 H42        -3.160800000000      2.501000000000      1.578500000000
 H43        -4.201800000000      1.099200000000      1.650100000000
 H44        -3.268500000000      1.421000000000      0.203700000000
 }
 
 nkerna=1
 nkernb=1
 
 gf=0
 sing=1
 thrdum=1d-4
 gridthr=1d-8
 
 basis={
 set,orbital
 default,av5z
 set,jkfit
 default,av5z/jkfit
 set,mp2fit
 default,av5z/mp2fit
 set,ri
 default,av5z/optri
 set,tddft
 default,av5z/mp2fit
 }
 
 proc set_monomer1
 dummy,4,5,6,7,8
 endproc
 
 proc set_monomer2
 dummy,1,2,3
 endproc
 
                                                                                 !1234 energy
 {hf,accu=1.d-16}
 ccsd(t)
 
 set_monomer1
 {hf,accu=1.d-16}
 ccsd(t)
 
 set_monomer2
 {hf,accu=1.d-16}
 ccsd(t)
 
 Commands  initialized (760), CPU time= 0.02 sec, 617 directives.
 Default parameters read. Elapsed time= 0.19 sec

 Checking input...
 Passed
1


                                         ***  PROGRAM SYSTEM MOLPRO  ***
                                       Copyright, TTI GmbH Stuttgart, 2015
                                    Version 2019.1 linked Jan 14 2019 13:09:19


 **********************************************************************************************************************************
 LABEL *                                                                                 
  64 bit mpp version                                                                     DATE: 16-Mar-20          TIME: 11:01:57  
 **********************************************************************************************************************************

 SHA1:             d688ac825633d238f2093ded1675ba87ccd55965
 **********************************************************************************************************************************

 THRESHOLDS:

 ZERO    =  1.00D-12  ONEINT  =  1.00D-12  TWOINT  =  1.00D-11  PREFAC  =  1.00D-14  XXXXXX  =  1.00D-09  EORDER  =  1.00D-04
 ENERGY  =  1.00D-10  ETEST   =  0.00D+00  EDENS   =  0.00D+00  THRDEDEF=  1.00D-06  GRADIENT=  1.00D-02  STEP    =  1.00D-03
 ORBITAL =  1.00D-10  CIVEC   =  1.00D-05  COEFF   =  1.00D-04  PRINTCI =  5.00D-02  PUNCHCI =  9.90D+01  OPTGRAD =  3.00D-04
 OPTENERG=  1.00D-06  OPTSTEP =  3.00D-04  THRGRAD =  1.00D-10  COMPRESS=  1.00D-11  VARMIN  =  1.00D-07  VARMAX  =  1.00D-03
 THRDOUB =  0.00D+00  THRDIV  =  1.00D-05  THRRED  =  1.00D-07  THRPSP  =  1.00D+00  THRDC   =  1.00D-10  THRCS   =  1.00D-10
 THRNRM  =  1.00D-08  THREQ   =  0.00D+00  THRDE   =  1.00D+00  THRREF  =  1.00D-05  SPARFAC =  1.00D+00  THRDLP  =  1.00D-07
 THRDIA  =  1.00D-10  THRDLS  =  1.00D-07  THRGPS  =  0.00D+00  THRKEX  =  0.00D+00  THRDIS  =  2.00D-01  THRVAR  =  1.00D-10
 THRLOC  =  1.00D-06  THRGAP  =  1.00D-06  THRLOCT = -1.00D+00  THRGAPT = -1.00D+00  THRORB  =  1.00D-06  THRMLTP =  0.00D+00
 THRCPQCI=  1.00D-10  KEXTA   =  0.00D+00  THRCOARS=  0.00D+00  SYMTOL  =  1.00D-06  GRADTOL =  1.00D-06  THROVL  =  1.00D-08
 THRORTH =  1.00D-08  GRID    =  1.00D-08  GRIDMAX =  1.00D-03  DTMAX   =  0.00D+00  THROCCDE=  1.00D-01  THROCCDE=  1.00D-01
 THRPRINT=  2.50D-01


 Variable memory set to 2000000000 words,  buffer space 

 ZSYMEL=NOSYM
 ZUNIT=ANG


Geometry recognized as XYZ

 SETTING NKERNA         =         1.00000000                                  
 SETTING NKERNB         =         1.00000000                                  
 SETTING GF             =     0.00000000D+00                                  
 SETTING SING           =         1.00000000                                  
 SETTING THRDUM         =     1.00000000D-04                                  
 SETTING GRIDTHR        =     1.00000000D-08                                  
 SETTING BASIS          =    AV5Z


 Recomputing integrals since basis changed


 Using spherical harmonics

 Library entry O      S aug-cc-pV5Z          selected for orbital group  1
 Library entry O      P aug-cc-pV5Z          selected for orbital group  1
 Library entry O      D aug-cc-pV5Z          selected for orbital group  1
 Library entry O      F aug-cc-pV5Z          selected for orbital group  1
 Library entry O      G aug-cc-pV5Z          selected for orbital group  1
 Library entry O      H aug-cc-pV5Z          selected for orbital group  1
 Library entry H      S aug-cc-pV5Z          selected for orbital group  2
 Library entry H      P aug-cc-pV5Z          selected for orbital group  2
 Library entry H      D aug-cc-pV5Z          selected for orbital group  2
 Library entry H      F aug-cc-pV5Z          selected for orbital group  2
 Library entry H      G aug-cc-pV5Z          selected for orbital group  2
 Library entry C      S aug-cc-pV5Z          selected for orbital group  3
 Library entry C      P aug-cc-pV5Z          selected for orbital group  3
 Library entry C      D aug-cc-pV5Z          selected for orbital group  3
 Library entry C      F aug-cc-pV5Z          selected for orbital group  3
 Library entry C      G aug-cc-pV5Z          selected for orbital group  3
 Library entry C      H aug-cc-pV5Z          selected for orbital group  3


 PROGRAM * SEWARD (Integral evaluation for generally contracted gaussian basis sets)     Author: Roland Lindh, 1990

 Geometry written to block  1 of record 700


 Point group  C1  



 ATOMIC COORDINATES

 NR  ATOM    CHARGE       X              Y              Z

   1  O15     8.00  -11.361600379   -2.507477595    1.791460366
   2  H29     1.00   -9.723585774   -3.405286476    1.799586188
   3  H30     1.00  -12.627338937   -3.816112936    1.666171524
   4  C1      6.00   -6.193010455    2.801518980    2.403542658
   5  H41     1.00   -4.656285171    1.699997622    3.119937832
   6  H42     1.00   -5.973046335    4.726205038    2.982932688
   7  H43     1.00   -7.940251230    2.077186956    3.118237078
   8  H44     1.00   -6.176569838    2.685300823    0.384937212

 Bond lengths in Bohr (Angstrom)

 1-2  1.867945037  1-3  1.824915847  4-5  2.021904040  4-6  2.022002335  4-7  2.021953343
     ( 0.988473945)     ( 0.965703878)     ( 1.069945541)     ( 1.069997556)     ( 1.069971630)

 4-8  2.022015060
     ( 1.070004290)

 Bond angles

  2-1-3  105.29843553   5-4-6  109.53398059   5-4-7  109.65604535   5-4-8  108.43490854

  6-4-7  109.49436728   6-4-8  109.86987750   7-4-8  109.83468330

 NUCLEAR CHARGE:                   20
 NUMBER OF PRIMITIVE AOS:        1046
 NUMBER OF SYMMETRY AOS:          786
 NUMBER OF CONTRACTIONS:          734   (  734A   )
 NUMBER OF CORE ORBITALS:           2   (    2A   )
 NUMBER OF VALENCE ORBITALS:       14   (   14A   )


 NUCLEAR REPULSION ENERGY   35.93228190


 Basis set:  JKFIT                   
 Basis size:  1104
 Attributes:
 Sphericals:   T
 Basis set:  MP2FIT                  
 Basis size:  1246
 Attributes:
 Sphericals:   T
 Basis set:  RI                      
 Basis size:   730
 Attributes:
 Sphericals:   T
 Basis set:  TDDFT                   
 Basis size:  1246
 Attributes:
 Sphericals:   T

 **********************************************************************************************************************************


 Eigenvalues of metric

         1 0.189E-05 0.234E-05 0.355E-05 0.405E-05 0.546E-05 0.712E-05 0.819E-05 0.920E-05


 Contracted 2-electron integrals neglected if value below      1.0D-14
 AO integral compression algorithm  1   Integral accuracy      1.0D-14

     141972.210 MB (compressed) written to integral file ( 45.0%)

     Node minimum: 32712.950 MB, node maximum: 38345.638 MB


 NUMBER OF SORTED TWO-ELECTRON INTEGRALS: 9095363064.     BUFFER LENGTH:  32768
 NUMBER OF SEGMENTS: 190  SEGMENT LENGTH:   47999780      RECORD LENGTH: 131072

 Memory used in sort:      48.16 MW

 SORT1 READ 39468581049. AND WROTE  6544238144. INTEGRALS IN  74989 RECORDS. CPU TIME:   909.65 SEC, REAL TIME:  1030.12 SEC
 SORT2 READ 26177472962. AND WROTE 36381317385. INTEGRALS IN 520960 RECORDS. CPU TIME:    96.68 SEC, REAL TIME:   727.30 SEC

 Node minimum:  9095228192.  Node maximum:  9095430501. integrals

 OPERATOR DM      FOR CENTER  0  COORDINATES:    0.000000    0.000000    0.000000


 **********************************************************************************************************************************
 DATASETS  * FILE   NREC   LENGTH (MB)   RECORD NAMES
              1      18       49.80       500      610      700      900      950      970     1000      129      960     1100   
                                          VAR    BASINP    GEOM    SYMINP    ZMAT    AOBASIS   BASIS     P2S    ABASIS      S 
                                         1400     1410     1200     1210     1080     1600     1650     1700   
                                           T        V       H0       H01     AOSYM     SMH    MOLCAS    OPER   

 PROGRAMS   *        TOTAL       INT
 CPU TIMES  *      2003.69   2003.47
 REAL TIME  *      2815.85 SEC
 DISK USED  *        50.44 MB (local),      455.94 GB (total)
 GA USED    *         0.00 MB       (max)       0.00 MB       (current)
 **********************************************************************************************************************************


 PROGRAM * RHF-SCF (CLOSED SHELL)       Authors: W. Meyer, H.-J. Werner


 NUMBER OF ELECTRONS:      10+   10-    SPACE SYMMETRY=1    SPIN SYMMETRY: Singlet 
 CONVERGENCE THRESHOLDS:    1.00E-08 (Density)    1.00E-11 (Energy)
 MAX. NUMBER OF ITERATIONS:       60
 INTERPOLATION TYPE:            DIIS
 INTERPOLATION STEPS:              2 (START)      1 (STEP)
 LEVEL SHIFTS:                  0.00 (CLOSED)  0.00 (OPEN) 



 Orbital guess generated from atomic densities. Full valence occupancy:   16

 Molecular orbital dump at record        2100.2

 Initial occupancy:  10

 ITERATION    DDIFF          GRAD             ENERGY        2-EL.EN.            DIPOLE MOMENTS         DIIS   ORB.
    1      0.000D+00      0.000D+00      -116.22340287    157.620236    0.19988   -1.13497   -0.06153    0    start
    2      0.000D+00      0.291D-02      -116.26739577    152.578667    0.05560   -0.66688   -0.03875    1    diag
    3      0.162D-02      0.171D-02      -116.28098302    154.661613    0.08894   -0.78691   -0.04388    2    diag
    4      0.555D-03      0.253D-03      -116.28163725    154.548180    0.08585   -0.77625   -0.04301    3    diag
    5      0.123D-03      0.742D-04      -116.28170576    154.543223    0.08466   -0.77586   -0.04287    4    diag
    6      0.510D-04      0.180D-04      -116.28170961    154.548757    0.08426   -0.77505   -0.04277    5    diag
    7      0.187D-04      0.363D-05      -116.28170984    154.547113    0.08421   -0.77503   -0.04275    6    diag
    8      0.566D-05      0.917D-06      -116.28170986    154.547282    0.08417   -0.77496   -0.04274    7    diag
    9      0.133D-05      0.218D-06      -116.28170986    154.547256    0.08416   -0.77494   -0.04274    8    diag
   10      0.281D-06      0.261D-07      -116.28170986    154.547256    0.08416   -0.77494   -0.04274    9    orth
   11      0.616D-07      0.588D-08      -116.28170986    154.547258    0.08416   -0.77494   -0.04274    9    diag
   12      0.559D-08      0.150D-08      -116.28170986    154.547258    0.08416   -0.77494   -0.04274    0    orth

 Final occupancy:  10

 !RHF STATE  1.1 Energy              -116.281709857709
 Nuclear energy                        35.93228190
 One-electron energy                 -229.48762053
 Two-electron energy                   77.27362878
 Virial quotient                       -1.00062648
 !RHF STATE  1.1 Dipole moment          0.08415951    -0.77493691    -0.04273753
 Dipole moment /Debye                   0.21389813    -1.96956416    -0.10862085

 Orbital energies:

         1.1          2.1          3.1          4.1          5.1          6.1          7.1          8.1          9.1         10.1
    -20.567580   -11.188709    -1.342805    -0.943650    -0.709181    -0.580793    -0.545171    -0.541731    -0.541273    -0.509289

        11.1         12.1
      0.020339     0.031501


 HOMO     10.1    -0.509289 =     -13.8585eV
 LUMO     11.1     0.020339 =       0.5534eV
 LUMO-HOMO         0.529628 =      14.4119eV


 **********************************************************************************************************************************
 DATASETS  * FILE   NREC   LENGTH (MB)   RECORD NAMES
              1      18       49.80       500      610      700      900      950      970     1000      129      960     1100   
                                          VAR    BASINP    GEOM    SYMINP    ZMAT    AOBASIS   BASIS     P2S    ABASIS      S 
                                         1400     1410     1200     1210     1080     1600     1650     1700   
                                           T        V       H0       H01     AOSYM     SMH    MOLCAS    OPER   

              2       4       13.79       700     1000      520     2100   
                                         GEOM     BASIS   MCVARS     RHF  

 PROGRAMS   *        TOTAL    HF-SCF       INT
 CPU TIMES  *      4954.04   2950.34   2003.47
 REAL TIME  *      5996.15 SEC
 DISK USED  *       102.61 MB (local),      456.15 GB (total)
 SF USED    *         2.16 MB
 GA USED    *         0.00 MB       (max)       0.00 MB       (current)
 **********************************************************************************************************************************

 Basis set:  JKFIT                   
 Basis size:  1104
 Attributes:
 Sphericals:   T
 Basis set:  MP2FIT                  
 Basis size:  1246
 Attributes:
 Sphericals:   T
 Basis set:  RI                      
 Basis size:   730
 Attributes:
 Sphericals:   T
 Basis set:  TDDFT                   
 Basis size:  1246
 Attributes:
 Sphericals:   T

 PROGRAM * CCSD (Closed-shell coupled cluster)     Authors: C. Hampel, H.-J. Werner, 1991, M. Deegan, P.J. Knowles, 1992


 Convergence thresholds:  THRVAR = 1.00D-08  THRDEN = 1.00D-10

 CCSD(T)     terms to be evaluated (factor= 1.000)


 Number of core orbitals:           2 (   2 )
 Number of closed-shell orbitals:   8 (   8 )
 Number of external orbitals:     724 ( 724 )

 Molecular orbitals read from record     2100.2  Type=RHF/CANONICAL (state 1.1)

 Number of N-1 electron functions:               8
 Number of N-2 electron functions:              36
 Number of singly external CSFs:              5792
 Number of doubly external CSFs:          16776528
 Total number of CSFs:                    16782321

 Length of J-op  integral file:               0.00 MB
 Length of K-op  integral file:              37.04 MB
 Length of 3-ext integral record:             0.00 MB

 For full I/O caching in triples, increase memory by 2034.74 Mwords to 4034.79 Mwords.

 Integral transformation finished. Total CPU:2748.02 sec, npass=  1  Memory used:1826.26 MW

 Reference energy:                   -116.28170986

 MP2 singlet pair energy:              -0.35014024
 MP2 triplet pair energy:              -0.15952330
 MP2 correlation energy:               -0.50966354
 MP2 total energy:                   -116.79137339

 SCS-MP2 correlation energy:           -0.51942723   (PS=  1.200000  PT=  0.333333)
 SCS-MP2 total energy:               -116.80113708

 ITER.      SQ.NORM     CORR.ENERGY   TOTAL ENERGY   ENERGY CHANGE        DEN1      VAR(S)    VAR(P)  DIIS     TIME  TIME/IT
   1      1.13500262    -0.52406010  -116.80576995    -0.01439656    -0.00273550  0.14D-02  0.20D-02  1  1  3866.77  1134.42
   2      1.14334053    -0.52538631  -116.80709617    -0.00132622    -0.01019756  0.31D-04  0.25D-03  2  2  4990.08  1140.15
   3      1.14664173    -0.52551283  -116.80722268    -0.00012651    -0.00239901  0.11D-04  0.13D-04  3  3  6114.98  1141.39
   4      1.14754208    -0.52551011  -116.80721997     0.00000271    -0.00045595  0.64D-06  0.12D-05  4  4  7240.43  1142.17
   5      1.14770498    -0.52551192  -116.80722178    -0.00000181    -0.00004429  0.20D-06  0.89D-07  5  5  8365.10  1142.54
   6      1.14775148    -0.52550902  -116.80721888     0.00000290    -0.00001000  0.20D-07  0.72D-08  6  6  9489.96  1142.89
   7      1.14776118    -0.52550781  -116.80721767     0.00000121    -0.00000185  0.19D-08  0.89D-09  6  2 10615.72  1143.22
   8      1.14776341    -0.52550765  -116.80721750     0.00000017    -0.00000007  0.30D-09  0.93D-10  6  1 11741.62  1143.45
   9      1.14776428    -0.52550759  -116.80721745     0.00000005    -0.00000004  0.21D-10  0.13D-10  6  3 12865.52  1143.43
  10      1.14776439    -0.52550760  -116.80721745    -0.00000001     0.00000010  0.22D-11  0.16D-11  6  4 13990.32  1143.47
  11      1.14776436    -0.52550760  -116.80721746    -0.00000001     0.00000006  0.34D-12  0.22D-12  6  5 15114.90  1143.50
  12      1.14776433    -0.52550760  -116.80721746    -0.00000000     0.00000002  0.73D-13  0.28D-13  6  6 16242.26  1143.75
  13      1.14776432    -0.52550760  -116.80721746    -0.00000000     0.00000001  0.22D-13  0.73D-14  6  5 17368.38  1143.92
  14      1.14776431    -0.52550761  -116.80721746    -0.00000000     0.00000000  0.24D-14  0.74D-15  6  2 18493.65  1143.98
  15      1.14776431    -0.52550761  -116.80721746    -0.00000000     0.00000000  0.28D-15  0.13D-15  6  3 19617.51  1143.93
  16      1.14776431    -0.52550761  -116.80721746    -0.00000000    -0.00000000  0.56D-16  0.18D-16  6  1 20741.97  1143.93
  17      1.14776431    -0.52550761  -116.80721746    -0.00000000    -0.00000000  0.22D-16  0.69D-17  6  4 21866.90  1143.93

 Norm of t1 vector:      0.04951006      S-energy:    -0.00000000      T1 diagnostic:  0.00875223
                                                                       D1 diagnostic:  0.01956277

   CPU time for triples:   3361.74 sec for i =  1 -  3 /  8 (~   6.2 % done)
   CPU time for triples:   3363.60 sec for i =  4 -  5 /  8 (~  26.8 % done)
   CPU time for triples:   3363.41 sec for i =  6 -  6 /  8 (~  44.6 % done)
   CPU time for triples:   6744.89 sec for i =  7 -  7 /  8 (~  68.8 % done)
   CPU time for triples:   6744.41 sec for i =  8 -  8 /  8 (  100.0 % done)

 Total CPU time for triples:  23604.87 sec


 RESULTS
 =======

  Reference energy                   -116.281709857718
  CCSD singlet pair energy             -0.379657273421
  CCSD triplet pair energy             -0.145850331981
  CCSD correlation energy              -0.525507605646

  Triples (T) contribution             -0.016972308147
  Total correlation energy             -0.542479913793

  CCSD total energy                  -116.807217463364
  CCSD[T] energy                     -116.824727641725
  CCSD-T energy                      -116.823976885826
 !CCSD(T) total energy               -116.824189771510

 Timing summary (sec):

 STEP                 CPU(USER)    SYS     CPU(TOT)    WALL
 Transformation       2754.08     97.43   2851.51   2867.51
 CCSD iterations     19113.25    305.95  19419.20  19447.76
 Triples             23604.87    582.49  24187.36  24210.49

 Program statistics:

 Available memory in ccsd:              1999999734
 Min. memory needed in ccsd:              48755833
 Max. memory used in ccsd:                63342105
 Max. memory used in cckext:              42809278 (17 integral passes)



 **********************************************************************************************************************************
 DATASETS  * FILE   NREC   LENGTH (MB)   RECORD NAMES
              1      19    12452.38       500      610      700      900      950      970     1000      129      960     1100   
                                          VAR    BASINP    GEOM    SYMINP    ZMAT    AOBASIS   BASIS     P2S    ABASIS      S 
                                         1400     1410     1200     1210     1080     1600     1650     1700     1380   
                                           T        V       H0       H01     AOSYM     SMH    MOLCAS    OPER     JKOP   

              2       4       13.79       700     1000      520     2100   
                                         GEOM     BASIS   MCVARS     RHF  

 PROGRAMS   *        TOTAL   CCSD(T)    HF-SCF       INT
 CPU TIMES  *     50426.51  45472.48   2950.34   2003.47
 REAL TIME  *     52524.21 SEC
 DISK USED  *        14.28 GB (local),      507.42 GB (total)
 SF USED    *        13.87 GB
 GA USED    *         0.00 MB       (max)       0.00 MB       (current)
 **********************************************************************************************************************************

 Running procedure: SET_MONOMER1

 Dummy atoms: C1  H41  H42  H43  H44


 Recomputing one-electron integrals since nuclear charges changed


 PROGRAM * SEWARD (Integral evaluation for generally contracted gaussian basis sets)     Author: Roland Lindh, 1990

 Geometry written to block  1 of record 700


 Point group  C1  



 ATOMIC COORDINATES

 NR  ATOM    CHARGE       X              Y              Z

   1  O15     8.00  -11.361600379   -2.507477595    1.791460366
   2  H29     1.00   -9.723585774   -3.405286476    1.799586188
   3  H30     1.00  -12.627338937   -3.816112936    1.666171524
   4  C1      0.00   -6.193010455    2.801518980    2.403542658
   5  H41     0.00   -4.656285171    1.699997622    3.119937832
   6  H42     0.00   -5.973046335    4.726205038    2.982932688
   7  H43     0.00   -7.940251230    2.077186956    3.118237078
   8  H44     0.00   -6.176569838    2.685300823    0.384937212

 Bond lengths in Bohr (Angstrom)

 1-2  1.867945037  1-3  1.824915847  4-5  2.021904040  4-6  2.022002335  4-7  2.021953343
     ( 0.988473945)     ( 0.965703878)     ( 1.069945541)     ( 1.069997556)     ( 1.069971630)

 4-8  2.022015060
     ( 1.070004290)

 Bond angles

  2-1-3  105.29843553   5-4-6  109.53398059   5-4-7  109.65604535   5-4-8  108.43490854

  6-4-7  109.49436728   6-4-8  109.86987750   7-4-8  109.83468330

 NUCLEAR CHARGE:                   10
 NUMBER OF PRIMITIVE AOS:        1046
 NUMBER OF SYMMETRY AOS:          786
 NUMBER OF CONTRACTIONS:          734   (  734A   )
 NUMBER OF CORE ORBITALS:           1   (    1A   )
 NUMBER OF VALENCE ORBITALS:        6   (    6A   )

 MOLECULE CHANGED: INITIALIZING OCCUPATION AND DUMP RECORDS


 NUCLEAR REPULSION ENERGY    9.00717880

 Basis set:  JKFIT                   
 Basis size:  1104
 Attributes:
 Sphericals:   T
 Basis set:  MP2FIT                  
 Basis size:  1246
 Attributes:
 Sphericals:   T
 Basis set:  RI                      
 Basis size:   730
 Attributes:
 Sphericals:   T
 Basis set:  TDDFT                   
 Basis size:  1246
 Attributes:
 Sphericals:   T

 Eigenvalues of metric

         1 0.189E-05 0.234E-05 0.355E-05 0.405E-05 0.546E-05 0.712E-05 0.819E-05 0.920E-05


 Contracted 2-electron integrals neglected if value below      1.0D-14

 OPERATOR DM      FOR CENTER  0  COORDINATES:    0.000000    0.000000    0.000000


 **********************************************************************************************************************************
 DATASETS  * FILE   NREC   LENGTH (MB)   RECORD NAMES
              1      18       49.80       500      610      700      900      950      970     1000      129      960     1100   
                                          VAR    BASINP    GEOM    SYMINP    ZMAT    AOBASIS   BASIS     P2S    ABASIS      S 
                                         1400     1410     1200     1210     1080     1600     1650     1700   
                                           T        V       H0       H01     AOSYM     SMH    MOLCAS    OPER   

              2       5       24.61       700     1000      520     2100      200   
                                         GEOM     BASIS   MCVARS     RHF    OPTIONS    

 PROGRAMS   *        TOTAL       INT   CCSD(T)    HF-SCF       INT
 CPU TIMES  *     50427.41      0.90  45472.48   2950.34   2003.47
 REAL TIME  *     52527.17 SEC
 DISK USED  *        14.28 GB (local),      507.45 GB (total)
 SF USED    *        13.87 GB
 GA USED    *         0.00 MB       (max)       0.00 MB       (current)
 **********************************************************************************************************************************


 PROGRAM * RHF-SCF (CLOSED SHELL)       Authors: W. Meyer, H.-J. Werner


 NUMBER OF ELECTRONS:       5+    5-    SPACE SYMMETRY=1    SPIN SYMMETRY: Singlet 
 CONVERGENCE THRESHOLDS:    1.00E-08 (Density)    1.00E-11 (Energy)
 MAX. NUMBER OF ITERATIONS:       60
 INTERPOLATION TYPE:            DIIS
 INTERPOLATION STEPS:              2 (START)      1 (STEP)
 LEVEL SHIFTS:                  0.00 (CLOSED)  0.00 (OPEN) 



 Orbital guess generated from atomic densities. Full valence occupancy:    7

 Molecular orbital dump at record        2101.2

 Initial occupancy:   5

 ITERATION    DDIFF          GRAD             ENERGY        2-EL.EN.            DIPOLE MOMENTS         DIIS   ORB.
    1      0.000D+00      0.000D+00       -76.02631466     77.431285    0.19841   -1.13019   -0.05973    0    start
    2      0.000D+00      0.360D-02       -76.05314869     73.773535    0.10825   -0.65773   -0.03504    1    diag
    3      0.130D-02      0.229D-02       -76.06473262     75.397855    0.12928   -0.77583   -0.04127    2    diag
    4      0.494D-03      0.215D-03       -76.06492770     75.306390    0.12709   -0.77129   -0.04108    3    diag
    5      0.636D-04      0.602D-04       -76.06494875     75.320916    0.12622   -0.76963   -0.04101    4    diag
    6      0.208D-04      0.120D-04       -76.06495013     75.319843    0.12596   -0.76925   -0.04100    5    diag
    7      0.557D-05      0.246D-05       -76.06495021     75.319987    0.12589   -0.76913   -0.04100    6    diag
    8      0.150D-05      0.468D-06       -76.06495021     75.319975    0.12587   -0.76909   -0.04099    7    diag
    9      0.281D-06      0.639D-07       -76.06495021     75.319966    0.12587   -0.76909   -0.04099    8    diag
   10      0.430D-07      0.144D-07       -76.06495021     75.319969    0.12587   -0.76909   -0.04099    9    orth
   11      0.111D-07      0.296D-08       -76.06495021     75.319969    0.12587   -0.76909   -0.04099    9    diag
   12      0.189D-08      0.575D-09       -76.06495021     75.319969    0.12587   -0.76909   -0.04099    0    orth

 Final occupancy:   5

 !RHF STATE  1.1 Energy               -76.064950207257
 Nuclear energy                         9.00717880
 One-electron energy                 -122.73211327
 Two-electron energy                   37.65998426
 Virial quotient                       -1.00186963
 !RHF STATE  1.1 Dipole moment          0.12587066    -0.76908601    -0.04099330
 Dipole moment /Debye                   0.31991035    -1.95469363    -0.10418774

 Orbital energies:

         1.1          2.1          3.1          4.1          5.1          6.1          7.1
    -20.567064    -1.342185    -0.708528    -0.579603    -0.508693     0.018033     0.029031


 HOMO      5.1    -0.508693 =     -13.8422eV
 LUMO      6.1     0.018033 =       0.4907eV
 LUMO-HOMO         0.526726 =      14.3329eV


 **********************************************************************************************************************************
 DATASETS  * FILE   NREC   LENGTH (MB)   RECORD NAMES
              1      18       49.80       500      610      700      900      950      970     1000      129      960     1100   
                                          VAR    BASINP    GEOM    SYMINP    ZMAT    AOBASIS   BASIS     P2S    ABASIS      S 
                                         1400     1410     1200     1210     1080     1600     1650     1700   
                                           T        V       H0       H01     AOSYM     SMH    MOLCAS    OPER   

              2       6       38.39       700     1000      520     2100      200     2101   
                                         GEOM     BASIS   MCVARS     RHF    OPTIONS    RHF  

 PROGRAMS   *        TOTAL    HF-SCF       INT   CCSD(T)    HF-SCF       INT
 CPU TIMES  *     52788.91   2361.50      0.90  45472.48   2950.34   2003.47
 REAL TIME  *     55052.65 SEC
 DISK USED  *        14.28 GB (local),      507.45 GB (total)
 SF USED    *        13.87 GB
 GA USED    *         0.00 MB       (max)       0.00 MB       (current)
 **********************************************************************************************************************************

 Basis set:  JKFIT                   
 Basis size:  1104
 Attributes:
 Sphericals:   T
 Basis set:  MP2FIT                  
 Basis size:  1246
 Attributes:
 Sphericals:   T
 Basis set:  RI                      
 Basis size:   730
 Attributes:
 Sphericals:   T
 Basis set:  TDDFT                   
 Basis size:  1246
 Attributes:
 Sphericals:   T

 PROGRAM * CCSD (Closed-shell coupled cluster)     Authors: C. Hampel, H.-J. Werner, 1991, M. Deegan, P.J. Knowles, 1992


 Convergence thresholds:  THRVAR = 1.00D-08  THRDEN = 1.00D-10

 CCSD(T)     terms to be evaluated (factor= 1.000)


 Number of core orbitals:           1 (   1 )
 Number of closed-shell orbitals:   4 (   4 )
 Number of external orbitals:     729 ( 729 )

 Molecular orbitals read from record     2101.2  Type=RHF/CANONICAL (state 1.1)

 Number of N-1 electron functions:               4
 Number of N-2 electron functions:              10
 Number of singly external CSFs:              2916
 Number of doubly external CSFs:           4252986
 Total number of CSFs:                     4255903

 Length of J-op  integral file:               0.00 MB
 Length of K-op  integral file:              37.04 MB
 Length of 3-ext integral record:             0.00 MB

 For full I/O caching in triples, increase memory by 535.09 Mwords to 2535.14 Mwords.

 Integral transformation finished. Total CPU:1702.30 sec, npass=  1  Memory used:1010.01 MW

 Reference energy:                    -76.06495021

 MP2 singlet pair energy:              -0.19212675
 MP2 triplet pair energy:              -0.10224081
 MP2 correlation energy:               -0.29436756
 MP2 total energy:                    -76.35931777

 SCS-MP2 correlation energy:           -0.29416861   (PS=  1.200000  PT=  0.333333)
 SCS-MP2 total energy:                -76.35911881

 ITER.      SQ.NORM     CORR.ENERGY   TOTAL ENERGY   ENERGY CHANGE        DEN1      VAR(S)    VAR(P)  DIIS     TIME  TIME/IT
   1      1.06407612    -0.29427652   -76.35922673     0.00009104     0.00602105  0.81D-03  0.10D-02  1  1  2074.38   380.76
   2      1.06764077    -0.29451808   -76.35946829    -0.00024156    -0.00494696  0.16D-04  0.12D-03  2  2  2452.81   386.41
   3      1.06906753    -0.29459722   -76.35954743    -0.00007914    -0.00102324  0.80D-05  0.67D-05  3  3  2831.49   388.19
   4      1.06954885    -0.29459543   -76.35954564     0.00000179    -0.00023424  0.51D-06  0.73D-06  4  4  3219.92   391.59
   5      1.06965256    -0.29459377   -76.35954398     0.00000166    -0.00003132  0.16D-06  0.50D-07  5  5  3608.23   393.63
   6      1.06968811    -0.29459117   -76.35954138     0.00000260    -0.00000777  0.16D-07  0.40D-08  6  6  3993.87   394.73
   7      1.06969562    -0.29459067   -76.35954088     0.00000050    -0.00000067  0.12D-08  0.58D-09  6  1  4381.01   395.67
   8      1.06969713    -0.29459060   -76.35954080     0.00000007     0.00000009  0.17D-09  0.66D-10  6  2  4769.19   396.38
   9      1.06969776    -0.29459055   -76.35954076     0.00000005    -0.00000000  0.11D-10  0.67D-11  6  3  5157.23   396.88
  10      1.06969784    -0.29459055   -76.35954075     0.00000000     0.00000005  0.16D-11  0.75D-12  6  4  5545.91   397.41
  11      1.06969783    -0.29459055   -76.35954076    -0.00000000     0.00000002  0.34D-12  0.12D-12  6  5  5933.98   397.80
  12      1.06969782    -0.29459055   -76.35954076    -0.00000000     0.00000001  0.69D-13  0.18D-13  6  6  6321.72   398.13
  13      1.06969782    -0.29459055   -76.35954076    -0.00000000     0.00000000  0.10D-13  0.31D-14  6  1  6709.51   398.41
  14      1.06969781    -0.29459055   -76.35954076    -0.00000000     0.00000000  0.12D-14  0.61D-15  6  2  7097.08   398.60
  15      1.06969781    -0.29459055   -76.35954076    -0.00000000     0.00000000  0.13D-15  0.84D-16  6  3  7485.05   398.81
  16      1.06969781    -0.29459055   -76.35954076    -0.00000000     0.00000000  0.18D-16  0.12D-16  6  4  7873.59   399.00

 Norm of t1 vector:      0.03753121      S-energy:    -0.00000000      T1 diagnostic:  0.00938280
                                                                       D1 diagnostic:  0.01938226


 Total CPU time for triples:   3473.67 sec


 RESULTS
 =======

  Reference energy                    -76.064950207257
  CCSD singlet pair energy             -0.204192431125
  CCSD triplet pair energy             -0.090398119215
  CCSD correlation energy              -0.294590550377

  Triples (T) contribution             -0.009856130374
  Total correlation energy             -0.304446680751

  CCSD total energy                   -76.359540757634
  CCSD[T] energy                      -76.369709008104
  CCSD-T energy                       -76.369252270662
 !CCSD(T) total energy                -76.369396888008

 Timing summary (sec):

 STEP                 CPU(USER)    SYS     CPU(TOT)    WALL
 Transformation       1704.19     56.84   1761.03   1764.28
 CCSD iterations      6169.77    203.94   6373.71   6385.01
 Triples              3473.67     86.50   3560.17   3563.62

 Program statistics:

 Available memory in ccsd:              1999999921
 Min. memory needed in ccsd:              19268142
 Max. memory used in ccsd:                22427508
 Max. memory used in cckext:              14646566 (16 integral passes)



 **********************************************************************************************************************************
 DATASETS  * FILE   NREC   LENGTH (MB)   RECORD NAMES
              1      19     6330.40       500      610      700      900      950      970     1000      129      960     1100   
                                          VAR    BASINP    GEOM    SYMINP    ZMAT    AOBASIS   BASIS     P2S    ABASIS      S 
                                         1400     1410     1200     1210     1080     1600     1650     1700     1380   
                                           T        V       H0       H01     AOSYM     SMH    MOLCAS    OPER     JKOP   

              2       6       38.39       700     1000      520     2100      200     2101   
                                         GEOM     BASIS   MCVARS     RHF    OPTIONS    RHF  

 PROGRAMS   *        TOTAL   CCSD(T)    HF-SCF       INT   CCSD(T)    HF-SCF       INT
 CPU TIMES  *     64136.82  11347.90   2361.50      0.90  45472.48   2950.34   2003.47
 REAL TIME  *     66766.75 SEC
 DISK USED  *        14.28 GB (local),      507.45 GB (total)
 SF USED    *        13.87 GB
 GA USED    *         0.00 MB       (max)       0.00 MB       (current)
 **********************************************************************************************************************************

 Running procedure: SET_MONOMER2

 Dummy atoms: O15  H29  H30


 Recomputing one-electron integrals since nuclear charges changed


 PROGRAM * SEWARD (Integral evaluation for generally contracted gaussian basis sets)     Author: Roland Lindh, 1990

 Geometry written to block  1 of record 700


 Point group  C1  



 ATOMIC COORDINATES

 NR  ATOM    CHARGE       X              Y              Z

   1  O15     0.00  -11.361600379   -2.507477595    1.791460366
   2  H29     0.00   -9.723585774   -3.405286476    1.799586188
   3  H30     0.00  -12.627338937   -3.816112936    1.666171524
   4  C1      6.00   -6.193010455    2.801518980    2.403542658
   5  H41     1.00   -4.656285171    1.699997622    3.119937832
   6  H42     1.00   -5.973046335    4.726205038    2.982932688
   7  H43     1.00   -7.940251230    2.077186956    3.118237078
   8  H44     1.00   -6.176569838    2.685300823    0.384937212

 Bond lengths in Bohr (Angstrom)

 1-2  1.867945037  1-3  1.824915847  4-5  2.021904040  4-6  2.022002335  4-7  2.021953343
     ( 0.988473945)     ( 0.965703878)     ( 1.069945541)     ( 1.069997556)     ( 1.069971630)

 4-8  2.022015060
     ( 1.070004290)

 Bond angles

  2-1-3  105.29843553   5-4-6  109.53398059   5-4-7  109.65604535   5-4-8  108.43490854

  6-4-7  109.49436728   6-4-8  109.86987750   7-4-8  109.83468330

 NUCLEAR CHARGE:                   10
 NUMBER OF PRIMITIVE AOS:        1046
 NUMBER OF SYMMETRY AOS:          786
 NUMBER OF CONTRACTIONS:          734   (  734A   )
 NUMBER OF CORE ORBITALS:           1   (    1A   )
 NUMBER OF VALENCE ORBITALS:        8   (    8A   )

 MOLECULE CHANGED: INITIALIZING OCCUPATION AND DUMP RECORDS


 NUCLEAR REPULSION ENERGY   13.68681606

 Basis set:  JKFIT                   
 Basis size:  1104
 Attributes:
 Sphericals:   T
 Basis set:  MP2FIT                  
 Basis size:  1246
 Attributes:
 Sphericals:   T
 Basis set:  RI                      
 Basis size:   730
 Attributes:
 Sphericals:   T
 Basis set:  TDDFT                   
 Basis size:  1246
 Attributes:
 Sphericals:   T

 Eigenvalues of metric

         1 0.189E-05 0.234E-05 0.355E-05 0.405E-05 0.546E-05 0.712E-05 0.819E-05 0.920E-05


 Contracted 2-electron integrals neglected if value below      1.0D-14

 OPERATOR DM      FOR CENTER  0  COORDINATES:    0.000000    0.000000    0.000000


 **********************************************************************************************************************************
 DATASETS  * FILE   NREC   LENGTH (MB)   RECORD NAMES
              1      18       49.80       500      610      700      900      950      970     1000      129      960     1100   
                                          VAR    BASINP    GEOM    SYMINP    ZMAT    AOBASIS   BASIS     P2S    ABASIS      S 
                                         1400     1410     1200     1210     1080     1600     1650     1700   
                                           T        V       H0       H01     AOSYM     SMH    MOLCAS    OPER   

              2       6       38.39       700     1000      520     2100      200     2101   
                                         GEOM     BASIS   MCVARS     RHF    OPTIONS    RHF  

 PROGRAMS   *        TOTAL       INT   CCSD(T)    HF-SCF       INT   CCSD(T)    HF-SCF       INT
 CPU TIMES  *     64137.71      0.88  11347.90   2361.50      0.90  45472.48   2950.34   2003.47
 REAL TIME  *     66768.79 SEC
 DISK USED  *        14.28 GB (local),      507.45 GB (total)
 SF USED    *        13.87 GB
 GA USED    *         0.00 MB       (max)       0.00 MB       (current)
 **********************************************************************************************************************************


 PROGRAM * RHF-SCF (CLOSED SHELL)       Authors: W. Meyer, H.-J. Werner


 NUMBER OF ELECTRONS:       5+    5-    SPACE SYMMETRY=1    SPIN SYMMETRY: Singlet 
 CONVERGENCE THRESHOLDS:    1.00E-08 (Density)    1.00E-11 (Energy)
 MAX. NUMBER OF ITERATIONS:       60
 INTERPOLATION TYPE:            DIIS
 INTERPOLATION STEPS:              2 (START)      1 (STEP)
 LEVEL SHIFTS:                  0.00 (CLOSED)  0.00 (OPEN) 



 Orbital guess generated from atomic densities. Full valence occupancy:    9

 Molecular orbital dump at record        2102.2

 Initial occupancy:   5

 ITERATION    DDIFF          GRAD             ENERGY        2-EL.EN.            DIPOLE MOMENTS         DIIS   ORB.
    1      0.000D+00      0.000D+00       -40.19676522     53.509902    0.00411   -0.00276   -0.00131    0    start
    2      0.000D+00      0.198D-02       -40.21405741     52.218477    0.00129   -0.00087   -0.00039    1    diag
    3      0.946D-03      0.769D-03       -40.21634084     52.673984    0.00182   -0.00123   -0.00056    2    diag
    4      0.259D-03      0.192D-03       -40.21666117     52.619247    0.00162   -0.00110   -0.00049    3    diag
    5      0.997D-04      0.248D-04       -40.21666665     52.621405    0.00159   -0.00108   -0.00048    4    diag
    6      0.339D-04      0.204D-05       -40.21666669     52.621533    0.00159   -0.00108   -0.00048    5    diag
    7      0.603D-05      0.166D-06       -40.21666669     52.621495    0.00159   -0.00108   -0.00048    6    diag
    8      0.360D-06      0.136D-07       -40.21666669     52.621496    0.00159   -0.00108   -0.00048    7    diag
    9      0.547D-07      0.167D-08       -40.21666669     52.621496    0.00159   -0.00108   -0.00048    8    diag
   10      0.104D-07      0.465D-09       -40.21666669     52.621496    0.00159   -0.00108   -0.00048    9    orth
   11      0.111D-08      0.667D-10       -40.21666669     52.621496    0.00159   -0.00108   -0.00048    0    orth

 Final occupancy:   5

 !RHF STATE  1.1 Energy               -40.216666692287
 Nuclear energy                        13.68681606
 One-electron energy                  -80.21423069
 Two-electron energy                   26.31074794
 Virial quotient                       -0.99832814
 !RHF STATE  1.1 Dipole moment          0.00158973    -0.00107985    -0.00047790
 Dipole moment /Debye                   0.00404042    -0.00274452    -0.00121463

 Orbital energies:

         1.1          2.1          3.1          4.1          5.1          6.1          7.1
    -11.196017    -0.950605    -0.551931    -0.549996    -0.547818     0.020586     0.031599


 HOMO      5.1    -0.547818 =     -14.9069eV
 LUMO      6.1     0.020586 =       0.5602eV
 LUMO-HOMO         0.568404 =      15.4671eV


 **********************************************************************************************************************************
 DATASETS  * FILE   NREC   LENGTH (MB)   RECORD NAMES
              1      18       49.80       500      610      700      900      950      970     1000      129      960     1100   
                                          VAR    BASINP    GEOM    SYMINP    ZMAT    AOBASIS   BASIS     P2S    ABASIS      S 
                                         1400     1410     1200     1210     1080     1600     1650     1700   
                                           T        V       H0       H01     AOSYM     SMH    MOLCAS    OPER   

              2       7       62.47       700     1000      520     2100      200     2101     2102   
                                         GEOM     BASIS   MCVARS     RHF    OPTIONS    RHF      RHF  

 PROGRAMS   *        TOTAL    HF-SCF       INT   CCSD(T)    HF-SCF       INT   CCSD(T)    HF-SCF       INT
 CPU TIMES  *     66276.53   2138.81      0.88  11347.90   2361.50      0.90  45472.48   2950.34   2003.47
 REAL TIME  *     69054.40 SEC
 DISK USED  *        14.28 GB (local),      507.45 GB (total)
 SF USED    *        13.87 GB
 GA USED    *         0.00 MB       (max)       0.00 MB       (current)
 **********************************************************************************************************************************

 Basis set:  JKFIT                   
 Basis size:  1104
 Attributes:
 Sphericals:   T
 Basis set:  MP2FIT                  
 Basis size:  1246
 Attributes:
 Sphericals:   T
 Basis set:  RI                      
 Basis size:   730
 Attributes:
 Sphericals:   T
 Basis set:  TDDFT                   
 Basis size:  1246
 Attributes:
 Sphericals:   T

 PROGRAM * CCSD (Closed-shell coupled cluster)     Authors: C. Hampel, H.-J. Werner, 1991, M. Deegan, P.J. Knowles, 1992


 Convergence thresholds:  THRVAR = 1.00D-08  THRDEN = 1.00D-10

 CCSD(T)     terms to be evaluated (factor= 1.000)


 Number of core orbitals:           1 (   1 )
 Number of closed-shell orbitals:   4 (   4 )
 Number of external orbitals:     729 ( 729 )

 Molecular orbitals read from record     2102.2  Type=RHF/CANONICAL (state 1.1)

 Number of N-1 electron functions:               4
 Number of N-2 electron functions:              10
 Number of singly external CSFs:              2916
 Number of doubly external CSFs:           4252986
 Total number of CSFs:                     4255903

 Length of J-op  integral file:               0.00 MB
 Length of K-op  integral file:              37.04 MB
 Length of 3-ext integral record:             0.00 MB

 For full I/O caching in triples, increase memory by 535.09 Mwords to 2535.14 Mwords.

 Integral transformation finished. Total CPU:1665.98 sec, npass=  1  Memory used:1010.01 MW

 Reference energy:                    -40.21666669

 MP2 singlet pair energy:              -0.15787649
 MP2 triplet pair energy:              -0.05682276
 MP2 correlation energy:               -0.21469925
 MP2 total energy:                    -40.43136594

 SCS-MP2 correlation energy:           -0.22480817   (PS=  1.200000  PT=  0.333333)
 SCS-MP2 total energy:                -40.44147487

 ITER.      SQ.NORM     CORR.ENERGY   TOTAL ENERGY   ENERGY CHANGE        DEN1      VAR(S)    VAR(P)  DIIS     TIME  TIME/IT
   1      1.07073138    -0.22924216   -40.44590885    -0.01454291    -0.00881088  0.58D-03  0.96D-03  1  1  2040.11   383.80
   2      1.07565313    -0.23033688   -40.44700358    -0.00109472    -0.00537198  0.15D-04  0.11D-03  2  2  2416.67   386.02
   3      1.07738971    -0.23037739   -40.44704408    -0.00004051    -0.00128246  0.20D-05  0.63D-05  3  3  2791.97   386.57
   4      1.07778008    -0.23037912   -40.44704581    -0.00000173    -0.00020099  0.14D-06  0.35D-06  4  4  3177.68   389.68
   5      1.07783445    -0.23038288   -40.44704957    -0.00000376    -0.00001096  0.13D-07  0.24D-07  5  5  3565.04   391.83
   6      1.07784458    -0.23038157   -40.44704826     0.00000132    -0.00000414  0.78D-09  0.17D-08  6  6  3951.28   393.17
   7      1.07784589    -0.23038119   -40.44704788     0.00000037    -0.00000073  0.52D-10  0.13D-09  6  1  4339.02   394.31
   8      1.07784582    -0.23038125   -40.44704794    -0.00000006     0.00000024  0.55D-11  0.78D-11  6  3  4726.25   395.06
   9      1.07784595    -0.23038123   -40.44704792     0.00000002    -0.00000009  0.38D-12  0.55D-12  6  2  5113.17   395.64
  10      1.07784595    -0.23038123   -40.44704792     0.00000000     0.00000001  0.53D-13  0.59D-13  6  4  5499.81   396.16
  11      1.07784596    -0.23038123   -40.44704792     0.00000000    -0.00000000  0.53D-14  0.63D-14  6  5  5886.87   396.55
  12      1.07784596    -0.23038123   -40.44704792     0.00000000     0.00000000  0.14D-15  0.64D-15  6  6  6273.98   396.84
  13      1.07784595    -0.23038123   -40.44704792    -0.00000000     0.00000000  0.13D-16  0.73D-16  6  1  6661.34   397.13
  14      1.07784595    -0.23038123   -40.44704792    -0.00000000     0.00000000  0.27D-17  0.15D-16  6  3  7048.39   397.37

 Norm of t1 vector:      0.03185967      S-energy:     0.00000000      T1 diagnostic:  0.00796492
                                                                       D1 diagnostic:  0.01279363

 Total CPU time for triples:   3472.50 sec


 RESULTS
 =======

  Reference energy                    -40.216666692288
  CCSD singlet pair energy             -0.175399239362
  CCSD triplet pair energy             -0.054981987193
  CCSD correlation energy              -0.230381226551

  Triples (T) contribution             -0.007018652031
  Total correlation energy             -0.237399878582

  CCSD total energy                   -40.447047918839
  CCSD[T] energy                      -40.454290409978
  CCSD-T energy                       -40.453999616542
 !CCSD(T) total energy                -40.454066570870

 Timing summary (sec):

 STEP                 CPU(USER)    SYS     CPU(TOT)    WALL
 Transformation       1668.26     58.01   1726.27   1730.58
 CCSD iterations      5380.52    176.74   5557.26   5564.31
 Triples              3472.50     84.09   3556.59   3560.14

 Program statistics:

 Available memory in ccsd:              1999999916
 Min. memory needed in ccsd:              19268142
 Max. memory used in ccsd:                22427508
 Max. memory used in cckext:              14646566 (14 integral passes)



 **********************************************************************************************************************************
 DATASETS  * FILE   NREC   LENGTH (MB)   RECORD NAMES
              1      19     6330.40       500      610      700      900      950      970     1000      129      960     1100   
                                          VAR    BASINP    GEOM    SYMINP    ZMAT    AOBASIS   BASIS     P2S    ABASIS      S 
                                         1400     1410     1200     1210     1080     1600     1650     1700     1380   
                                           T        V       H0       H01     AOSYM     SMH    MOLCAS    OPER     JKOP   

              2       7       62.47       700     1000      520     2100      200     2101     2102   
                                         GEOM     BASIS   MCVARS     RHF    OPTIONS    RHF      RHF  

 PROGRAMS   *        TOTAL   CCSD(T)    HF-SCF       INT   CCSD(T)    HF-SCF       INT   CCSD(T)    HF-SCF       INT
 CPU TIMES  *     76798.11  10521.58   2138.81      0.88  11347.90   2361.50      0.90  45472.48   2950.34   2003.47
 REAL TIME  *     79910.55 SEC
 DISK USED  *        14.28 GB (local),      507.45 GB (total)
 SF USED    *        13.87 GB
 GA USED    *         0.00 MB       (max)       0.00 MB       (current)
 **********************************************************************************************************************************
 Molecular orbitals read from record     2102.2  Type=RHF/CANONICAL (state 1.1)
 Occupation numbers read from record     2102.2  Type=RHF/RHF (state 1.1)
 Orbital energies read from record       2102.2  Type=RHF/CANONICAL (state 1.1)
 Redundancy group numbers read from rec  2102.2  Type=RHF/RHF (state 1.1)

 CCSD(T)/aug-cc-pV5Z energy=    -40.454066570870

         CCSD(T)          HF-SCF         CCSD(T)          HF-SCF         CCSD(T)          HF-SCF
    -40.45406657    -40.21666669    -76.36939689    -76.06495021   -116.82418977   -116.28170986
 **********************************************************************************************************************************
 Molpro calculation terminated
