
 Primary working directories    : /scratch/klimes/387204/molpro.RPu6XEoyVu
 Secondary working directories  : /scratch/klimes/387204/molpro.RPu6XEoyVu
 Wavefunction directory         : /scratch/klimes/387204/
 Main file repository           : /scratch/klimes/387204/molpro.RPu6XEoyVu/

 id        : karlovklimes

 Nodes                      nprocs
 nc-20.cc.karlov.mff.cuni.cz    4

 Using customized tuning parameters: mindgm=1; mindgv=20; mindgc=4; mindgr=1; noblas=0; minvec=7
 default implementation of scratch files=sf  


 Variables initialized (930), CPU time= 0.01 sec
                                                                                 !gdirect
 memory,2000,m
 gthresh,orbital=1d-10,energy=1d-10,grid=1d-8
 
 symmetry,nosym
 angstrom
 geometry={
 O16        -6.031300000000      0.567500000000     -1.162700000000
 H31        -6.239000000000      1.445500000000     -0.783400000000
 H32        -6.065700000000     -0.057500000000     -0.412200000000
 C1        -3.277200000000      1.482500000000      1.271900000000
 H41        -2.464000000000      0.899600000000      1.651000000000
 H42        -3.160800000000      2.501000000000      1.578500000000
 H43        -4.201800000000      1.099200000000      1.650100000000
 H44        -3.268500000000      1.421000000000      0.203700000000
 }
 
 nkerna=1
 nkernb=1
 
 gf=0
 sing=1
 thrdum=1d-4
 gridthr=1d-8
 
 basis={
 set,orbital
 default,av5z
 set,jkfit
 default,av5z/jkfit
 set,mp2fit
 default,av5z/mp2fit
 set,ri
 default,av5z/optri
 set,tddft
 default,av5z/mp2fit
 }
 
 proc set_monomer1
 dummy,4,5,6,7,8
 endproc
 
 proc set_monomer2
 dummy,1,2,3
 endproc
 
                                                                                 !1234 energy
 {hf,accu=1.d-16}
 ccsd(t)
 
 set_monomer1
 {hf,accu=1.d-16}
 ccsd(t)
 
 set_monomer2
 {hf,accu=1.d-16}
 ccsd(t)
 
 Commands  initialized (760), CPU time= 0.01 sec, 617 directives.
 Default parameters read. Elapsed time= 0.23 sec

 Checking input...
 Passed
1


                                         ***  PROGRAM SYSTEM MOLPRO  ***
                                       Copyright, TTI GmbH Stuttgart, 2015
                                    Version 2019.1 linked Jan 14 2019 13:09:19


 **********************************************************************************************************************************
 LABEL *                                                                                 
  64 bit mpp version                                                                     DATE: 12-Mar-20          TIME: 20:51:04  
 **********************************************************************************************************************************

 SHA1:             d688ac825633d238f2093ded1675ba87ccd55965
 **********************************************************************************************************************************

 THRESHOLDS:

 ZERO    =  1.00D-12  ONEINT  =  1.00D-12  TWOINT  =  1.00D-11  PREFAC  =  1.00D-14  XXXXXX  =  1.00D-09  EORDER  =  1.00D-04
 ENERGY  =  1.00D-10  ETEST   =  0.00D+00  EDENS   =  0.00D+00  THRDEDEF=  1.00D-06  GRADIENT=  1.00D-02  STEP    =  1.00D-03
 ORBITAL =  1.00D-10  CIVEC   =  1.00D-05  COEFF   =  1.00D-04  PRINTCI =  5.00D-02  PUNCHCI =  9.90D+01  OPTGRAD =  3.00D-04
 OPTENERG=  1.00D-06  OPTSTEP =  3.00D-04  THRGRAD =  1.00D-10  COMPRESS=  1.00D-11  VARMIN  =  1.00D-07  VARMAX  =  1.00D-03
 THRDOUB =  0.00D+00  THRDIV  =  1.00D-05  THRRED  =  1.00D-07  THRPSP  =  1.00D+00  THRDC   =  1.00D-10  THRCS   =  1.00D-10
 THRNRM  =  1.00D-08  THREQ   =  0.00D+00  THRDE   =  1.00D+00  THRREF  =  1.00D-05  SPARFAC =  1.00D+00  THRDLP  =  1.00D-07
 THRDIA  =  1.00D-10  THRDLS  =  1.00D-07  THRGPS  =  0.00D+00  THRKEX  =  0.00D+00  THRDIS  =  2.00D-01  THRVAR  =  1.00D-10
 THRLOC  =  1.00D-06  THRGAP  =  1.00D-06  THRLOCT = -1.00D+00  THRGAPT = -1.00D+00  THRORB  =  1.00D-06  THRMLTP =  0.00D+00
 THRCPQCI=  1.00D-10  KEXTA   =  0.00D+00  THRCOARS=  0.00D+00  SYMTOL  =  1.00D-06  GRADTOL =  1.00D-06  THROVL  =  1.00D-08
 THRORTH =  1.00D-08  GRID    =  1.00D-08  GRIDMAX =  1.00D-03  DTMAX   =  0.00D+00  THROCCDE=  1.00D-01  THROCCDE=  1.00D-01
 THRPRINT=  2.50D-01


 Variable memory set to 2000000000 words,  buffer space 

 ZSYMEL=NOSYM
 ZUNIT=ANG


Geometry recognized as XYZ

 SETTING NKERNA         =         1.00000000                                  
 SETTING NKERNB         =         1.00000000                                  
 SETTING GF             =     0.00000000D+00                                  
 SETTING SING           =         1.00000000                                  
 SETTING THRDUM         =     1.00000000D-04                                  
 SETTING GRIDTHR        =     1.00000000D-08                                  
 SETTING BASIS          =    AV5Z


 Recomputing integrals since basis changed


 Using spherical harmonics

 Library entry O      S aug-cc-pV5Z          selected for orbital group  1
 Library entry O      P aug-cc-pV5Z          selected for orbital group  1
 Library entry O      D aug-cc-pV5Z          selected for orbital group  1
 Library entry O      F aug-cc-pV5Z          selected for orbital group  1
 Library entry O      G aug-cc-pV5Z          selected for orbital group  1
 Library entry O      H aug-cc-pV5Z          selected for orbital group  1
 Library entry H      S aug-cc-pV5Z          selected for orbital group  2
 Library entry H      P aug-cc-pV5Z          selected for orbital group  2
 Library entry H      D aug-cc-pV5Z          selected for orbital group  2
 Library entry H      F aug-cc-pV5Z          selected for orbital group  2
 Library entry H      G aug-cc-pV5Z          selected for orbital group  2
 Library entry C      S aug-cc-pV5Z          selected for orbital group  3
 Library entry C      P aug-cc-pV5Z          selected for orbital group  3
 Library entry C      D aug-cc-pV5Z          selected for orbital group  3
 Library entry C      F aug-cc-pV5Z          selected for orbital group  3
 Library entry C      G aug-cc-pV5Z          selected for orbital group  3
 Library entry C      H aug-cc-pV5Z          selected for orbital group  3


 PROGRAM * SEWARD (Integral evaluation for generally contracted gaussian basis sets)     Author: Roland Lindh, 1990

 Geometry written to block  1 of record 700


 Point group  C1  



 ATOMIC COORDINATES

 NR  ATOM    CHARGE       X              Y              Z

   1  O16     8.00  -11.397505175    1.072419576   -2.197184565
   2  H31     1.00  -11.790001291    2.731599113   -1.480411446
   3  H32     1.00  -11.462511754   -0.108659252   -0.778945109
   4  C1      6.00   -6.193010455    2.801518980    2.403542658
   5  H41     1.00   -4.656285171    1.699997622    3.119937832
   6  H42     1.00   -5.973046335    4.726205038    2.982932688
   7  H43     1.00   -7.940251230    2.077186956    3.118237078
   8  H44     1.00   -6.176569838    2.685300823    0.384937212

 Bond lengths in Bohr (Angstrom)

 1-2  1.849511731  1-3  1.846774542  4-5  2.021904040  4-6  2.022002335  4-7  2.021953343
     ( 0.978719459)     ( 0.977271001)     ( 1.069945541)     ( 1.069997556)     ( 1.069971630)

 4-8  2.022015060
     ( 1.070004290)

 Bond angles

  2-1-3  105.58293551   5-4-6  109.53398059   5-4-7  109.65604535   5-4-8  108.43490854

  6-4-7  109.49436728   6-4-8  109.86987750   7-4-8  109.83468330

 NUCLEAR CHARGE:                   20
 NUMBER OF PRIMITIVE AOS:        1046
 NUMBER OF SYMMETRY AOS:          786
 NUMBER OF CONTRACTIONS:          734   (  734A   )
 NUMBER OF CORE ORBITALS:           2   (    2A   )
 NUMBER OF VALENCE ORBITALS:       14   (   14A   )


 NUCLEAR REPULSION ENERGY   36.77810311


 Basis set:  JKFIT                   
 Basis size:  1104
 Attributes:
 Sphericals:   T
 Basis set:  MP2FIT                  
 Basis size:  1246
 Attributes:
 Sphericals:   T
 Basis set:  RI                      
 Basis size:   730
 Attributes:
 Sphericals:   T
 Basis set:  TDDFT                   
 Basis size:  1246
 Attributes:
 Sphericals:   T

 **********************************************************************************************************************************


 Eigenvalues of metric

         1 0.192E-05 0.328E-05 0.333E-05 0.411E-05 0.483E-05 0.711E-05 0.755E-05 0.961E-05


 Contracted 2-electron integrals neglected if value below      1.0D-14
 AO integral compression algorithm  1   Integral accuracy      1.0D-14

     158630.937 MB (compressed) written to integral file ( 50.2%)

     Node minimum: 38727.057 MB, node maximum: 41036.808 MB


 NUMBER OF SORTED TWO-ELECTRON INTEGRALS: 9095363064.     BUFFER LENGTH:  32768
 NUMBER OF SEGMENTS: 190  SEGMENT LENGTH:   47999780      RECORD LENGTH: 131072

 Memory used in sort:      48.16 MW

 SORT1 READ 39471948705. AND WROTE  7175465806. INTEGRALS IN  82220 RECORDS. CPU TIME:  1348.10 SEC, REAL TIME:  1655.95 SEC
 SORT2 READ 28705210051. AND WROTE 36381317385. INTEGRALS IN 626172 RECORDS. CPU TIME:    87.94 SEC, REAL TIME:  2009.13 SEC

 Node minimum:  9095228192.  Node maximum:  9095430501. integrals

 OPERATOR DM      FOR CENTER  0  COORDINATES:    0.000000    0.000000    0.000000


 **********************************************************************************************************************************
 DATASETS  * FILE   NREC   LENGTH (MB)   RECORD NAMES
              1      18       49.80       500      610      700      900      950      970     1000      129      960     1100   
                                          VAR    BASINP    GEOM    SYMINP    ZMAT    AOBASIS   BASIS     P2S    ABASIS      S 
                                         1400     1410     1200     1210     1080     1600     1650     1700   
                                           T        V       H0       H01     AOSYM     SMH    MOLCAS    OPER   

 PROGRAMS   *        TOTAL       INT
 CPU TIMES  *      2455.33   2455.13
 REAL TIME  *      4757.14 SEC
 DISK USED  *        50.44 MB (local),      502.94 GB (total)
 GA USED    *         0.00 MB       (max)       0.00 MB       (current)
 **********************************************************************************************************************************


 PROGRAM * RHF-SCF (CLOSED SHELL)       Authors: W. Meyer, H.-J. Werner


 NUMBER OF ELECTRONS:      10+   10-    SPACE SYMMETRY=1    SPIN SYMMETRY: Singlet 
 CONVERGENCE THRESHOLDS:    1.00E-08 (Density)    1.00E-11 (Energy)
 MAX. NUMBER OF ITERATIONS:       60
 INTERPOLATION TYPE:            DIIS
 INTERPOLATION STEPS:              2 (START)      1 (STEP)
 LEVEL SHIFTS:                  0.00 (CLOSED)  0.00 (OPEN) 



 Orbital guess generated from atomic densities. Full valence occupancy:   16

 Molecular orbital dump at record        2100.2

 Initial occupancy:  10

 ITERATION    DDIFF          GRAD             ENERGY        2-EL.EN.            DIPOLE MOMENTS         DIIS   ORB.
    1      0.000D+00      0.000D+00      -116.22314766    158.994455   -0.23079    0.24266    1.09218    0    start
    2      0.000D+00      0.291D-02      -116.26715696    154.162711   -0.09575    0.14256    0.61092    1    diag
    3      0.162D-02      0.170D-02      -116.28065331    156.183485   -0.13174    0.16796    0.73106    2    diag
    4      0.553D-03      0.254D-03      -116.28131340    156.071556   -0.13048    0.16536    0.71976    3    diag
    5      0.125D-03      0.744D-04      -116.28138255    156.066062   -0.13001    0.16533    0.71908    4    diag
    6      0.523D-04      0.181D-04      -116.28138644    156.071745   -0.12972    0.16513    0.71823    5    diag
    7      0.188D-04      0.366D-05      -116.28138667    156.070017   -0.12971    0.16513    0.71823    6    diag
    8      0.560D-05      0.928D-06      -116.28138669    156.070196   -0.12968    0.16512    0.71817    7    diag
    9      0.127D-05      0.218D-06      -116.28138669    156.070170   -0.12968    0.16511    0.71815    8    diag
   10      0.300D-06      0.262D-07      -116.28138669    156.070172   -0.12967    0.16511    0.71815    9    orth
   11      0.608D-07      0.619D-08      -116.28138669    156.070173   -0.12967    0.16511    0.71815    9    diag
   12      0.488D-08      0.164D-08      -116.28138669    156.070173   -0.12967    0.16511    0.71815    0    orth

 Final occupancy:  10

 !RHF STATE  1.1 Energy              -116.281386693782
 Nuclear energy                        36.77810311
 One-electron energy                 -231.09457625
 Two-electron energy                   78.03508645
 Virial quotient                       -1.00064403
 !RHF STATE  1.1 Dipole moment         -0.12967460     0.16511023     0.71814925
 Dipole moment /Debye                  -0.32957837     0.41964087     1.82523376

 Orbital energies:

         1.1          2.1          3.1          4.1          5.1          6.1          7.1          8.1          9.1         10.1
    -20.566075   -11.198792    -1.340688    -0.953715    -0.707770    -0.578745    -0.555055    -0.553782    -0.550607    -0.506973

        11.1         12.1
      0.019796     0.031911


 HOMO     10.1    -0.506973 =     -13.7954eV
 LUMO     11.1     0.019796 =       0.5387eV
 LUMO-HOMO         0.526769 =      14.3341eV


 **********************************************************************************************************************************
 DATASETS  * FILE   NREC   LENGTH (MB)   RECORD NAMES
              1      18       49.80       500      610      700      900      950      970     1000      129      960     1100   
                                          VAR    BASINP    GEOM    SYMINP    ZMAT    AOBASIS   BASIS     P2S    ABASIS      S 
                                         1400     1410     1200     1210     1080     1600     1650     1700   
                                           T        V       H0       H01     AOSYM     SMH    MOLCAS    OPER   

              2       4       13.79       700     1000      520     2100   
                                         GEOM     BASIS   MCVARS     RHF  

 PROGRAMS   *        TOTAL    HF-SCF       INT
 CPU TIMES  *      4374.24   1918.91   2455.13
 REAL TIME  *      7295.58 SEC
 DISK USED  *       102.61 MB (local),      503.15 GB (total)
 SF USED    *         2.16 MB
 GA USED    *         0.00 MB       (max)       0.00 MB       (current)
 **********************************************************************************************************************************

 Basis set:  JKFIT                   
 Basis size:  1104
 Attributes:
 Sphericals:   T
 Basis set:  MP2FIT                  
 Basis size:  1246
 Attributes:
 Sphericals:   T
 Basis set:  RI                      
 Basis size:   730
 Attributes:
 Sphericals:   T
 Basis set:  TDDFT                   
 Basis size:  1246
 Attributes:
 Sphericals:   T

 PROGRAM * CCSD (Closed-shell coupled cluster)     Authors: C. Hampel, H.-J. Werner, 1991, M. Deegan, P.J. Knowles, 1992


 Convergence thresholds:  THRVAR = 1.00D-08  THRDEN = 1.00D-10

 CCSD(T)     terms to be evaluated (factor= 1.000)


 Number of core orbitals:           2 (   2 )
 Number of closed-shell orbitals:   8 (   8 )
 Number of external orbitals:     724 ( 724 )

 Molecular orbitals read from record     2100.2  Type=RHF/CANONICAL (state 1.1)

 Number of N-1 electron functions:               8
 Number of N-2 electron functions:              36
 Number of singly external CSFs:              5792
 Number of doubly external CSFs:          16776528
 Total number of CSFs:                    16782321

 Length of J-op  integral file:               0.00 MB
 Length of K-op  integral file:              37.04 MB
 Length of 3-ext integral record:             0.00 MB

 For full I/O caching in triples, increase memory by 2034.74 Mwords to 4034.79 Mwords.

 Integral transformation finished. Total CPU:2619.27 sec, npass=  1  Memory used:1826.26 MW

 Reference energy:                   -116.28138669

 MP2 singlet pair energy:              -0.35023746
 MP2 triplet pair energy:              -0.15967860
 MP2 correlation energy:               -0.50991606
 MP2 total energy:                   -116.79130276

 SCS-MP2 correlation energy:           -0.51964053   (PS=  1.200000  PT=  0.333333)
 SCS-MP2 total energy:               -116.80102722

 ITER.      SQ.NORM     CORR.ENERGY   TOTAL ENERGY   ENERGY CHANGE        DEN1      VAR(S)    VAR(P)  DIIS     TIME  TIME/IT
   1      1.13512912    -0.52433844  -116.80572513    -0.01442237    -0.00274337  0.14D-02  0.20D-02  1  1  3781.98  1182.21
   2      1.14351305    -0.52567259  -116.80705928    -0.00133415    -0.01023598  0.31D-04  0.25D-03  2  2  4946.40  1190.51
   3      1.14681383    -0.52579824  -116.80718494    -0.00012565    -0.00237983  0.11D-04  0.13D-04  3  3  6110.22  1193.15
   4      1.14771997    -0.52579462  -116.80718131     0.00000362    -0.00045941  0.64D-06  0.13D-05  4  4  7273.83  1194.27
   5      1.14788560    -0.52579643  -116.80718312    -0.00000181    -0.00004468  0.20D-06  0.91D-07  5  5  8438.13  1195.06
   6      1.14793321    -0.52579348  -116.80718017     0.00000295    -0.00001040  0.21D-07  0.77D-08  6  6  9602.30  1195.62
   7      1.14794360    -0.52579222  -116.80717892     0.00000126    -0.00000220  0.21D-08  0.10D-08  6  2 10766.50  1196.03
   8      1.14794602    -0.52579201  -116.80717870     0.00000021    -0.00000022  0.37D-09  0.12D-09  6  1 11931.98  1196.48
   9      1.14794695    -0.52579196  -116.80717865     0.00000005    -0.00000001  0.33D-10  0.16D-10  6  3 13098.27  1196.87
  10      1.14794709    -0.52579196  -116.80717865    -0.00000000     0.00000009  0.35D-11  0.23D-11  6  4 14262.48  1197.00
  11      1.14794706    -0.52579197  -116.80717866    -0.00000001     0.00000007  0.59D-12  0.30D-12  6  5 15427.06  1197.20
  12      1.14794704    -0.52579197  -116.80717866    -0.00000000     0.00000002  0.10D-12  0.39D-13  6  6 16590.33  1197.20
  13      1.14794702    -0.52579197  -116.80717866    -0.00000000     0.00000001  0.19D-13  0.58D-14  6  2 17754.61  1197.35
  14      1.14794702    -0.52579197  -116.80717866    -0.00000000     0.00000000  0.30D-14  0.12D-14  6  1 18918.08  1197.37
  15      1.14794702    -0.52579197  -116.80717866    -0.00000000    -0.00000000  0.37D-15  0.20D-15  6  3 20082.72  1197.46
  16      1.14794702    -0.52579197  -116.80717866    -0.00000000    -0.00000000  0.67D-16  0.31D-16  6  4 21246.16  1197.51
  17      1.14794702    -0.52579197  -116.80717866     0.00000000    -0.00000000  0.18D-16  0.72D-17  6  5 22410.14  1197.54

 Norm of t1 vector:      0.04988852      S-energy:    -0.00000000      T1 diagnostic:  0.00881913
                                                                       D1 diagnostic:  0.01991976

   CPU time for triples:   3423.68 sec for i =  1 -  3 /  8 (~   6.2 % done)
   CPU time for triples:   3443.40 sec for i =  4 -  5 /  8 (~  26.8 % done)
   CPU time for triples:   5152.20 sec for i =  6 -  6 /  8 (~  44.6 % done)
   CPU time for triples:   5159.84 sec for i =  7 -  7 /  8 (~  68.8 % done)
   CPU time for triples:   6744.81 sec for i =  8 -  8 /  8 (  100.0 % done)

 Total CPU time for triples:  23940.93 sec


 RESULTS
 =======

  Reference energy                   -116.281386693777
  CCSD singlet pair energy             -0.379756677157
  CCSD triplet pair energy             -0.146035291661
  CCSD correlation energy              -0.525791969113

  Triples (T) contribution             -0.017032420553
  Total correlation energy             -0.542824389666

  CCSD total energy                  -116.807178662890
  CCSD[T] energy                     -116.824751984561
  CCSD-T energy                      -116.823996303302
 !CCSD(T) total energy               -116.824211083443

 Timing summary (sec):

 STEP                 CPU(USER)    SYS     CPU(TOT)    WALL
 Transformation       2625.04     91.98   2717.02   2739.42
 CCSD iterations     19785.50    383.89  20169.39  20359.21
 Triples             23940.93    418.31  24359.24  24402.54

 Program statistics:

 Available memory in ccsd:              1999999734
 Min. memory needed in ccsd:              48755833
 Max. memory used in ccsd:                63342105
 Max. memory used in cckext:              42809278 (17 integral passes)



 **********************************************************************************************************************************
 DATASETS  * FILE   NREC   LENGTH (MB)   RECORD NAMES
              1      19    12452.38       500      610      700      900      950      970     1000      129      960     1100   
                                          VAR    BASINP    GEOM    SYMINP    ZMAT    AOBASIS   BASIS     P2S    ABASIS      S 
                                         1400     1410     1200     1210     1080     1600     1650     1700     1380   
                                           T        V       H0       H01     AOSYM     SMH    MOLCAS    OPER     JKOP   

              2       4       13.79       700     1000      520     2100   
                                         GEOM     BASIS   MCVARS     RHF  

 PROGRAMS   *        TOTAL   CCSD(T)    HF-SCF       INT
 CPU TIMES  *     50725.94  46351.70   1918.91   2455.13
 REAL TIME  *     54797.90 SEC
 DISK USED  *        14.28 GB (local),      554.42 GB (total)
 SF USED    *        13.87 GB
 GA USED    *         0.00 MB       (max)       0.00 MB       (current)
 **********************************************************************************************************************************

 Running procedure: SET_MONOMER1

 Dummy atoms: C1  H41  H42  H43  H44


 Recomputing one-electron integrals since nuclear charges changed


 PROGRAM * SEWARD (Integral evaluation for generally contracted gaussian basis sets)     Author: Roland Lindh, 1990

 Geometry written to block  1 of record 700


 Point group  C1  



 ATOMIC COORDINATES

 NR  ATOM    CHARGE       X              Y              Z

   1  O16     8.00  -11.397505175    1.072419576   -2.197184565
   2  H31     1.00  -11.790001291    2.731599113   -1.480411446
   3  H32     1.00  -11.462511754   -0.108659252   -0.778945109
   4  C1      0.00   -6.193010455    2.801518980    2.403542658
   5  H41     0.00   -4.656285171    1.699997622    3.119937832
   6  H42     0.00   -5.973046335    4.726205038    2.982932688
   7  H43     0.00   -7.940251230    2.077186956    3.118237078
   8  H44     0.00   -6.176569838    2.685300823    0.384937212

 Bond lengths in Bohr (Angstrom)

 1-2  1.849511731  1-3  1.846774542  4-5  2.021904040  4-6  2.022002335  4-7  2.021953343
     ( 0.978719459)     ( 0.977271001)     ( 1.069945541)     ( 1.069997556)     ( 1.069971630)

 4-8  2.022015060
     ( 1.070004290)

 Bond angles

  2-1-3  105.58293551   5-4-6  109.53398059   5-4-7  109.65604535   5-4-8  108.43490854

  6-4-7  109.49436728   6-4-8  109.86987750   7-4-8  109.83468330

 NUCLEAR CHARGE:                   10
 NUMBER OF PRIMITIVE AOS:        1046
 NUMBER OF SYMMETRY AOS:          786
 NUMBER OF CONTRACTIONS:          734   (  734A   )
 NUMBER OF CORE ORBITALS:           1   (    1A   )
 NUMBER OF VALENCE ORBITALS:        6   (    6A   )

 MOLECULE CHANGED: INITIALIZING OCCUPATION AND DUMP RECORDS


 NUCLEAR REPULSION ENERGY    8.99703174

 Basis set:  JKFIT                   
 Basis size:  1104
 Attributes:
 Sphericals:   T
 Basis set:  MP2FIT                  
 Basis size:  1246
 Attributes:
 Sphericals:   T
 Basis set:  RI                      
 Basis size:   730
 Attributes:
 Sphericals:   T
 Basis set:  TDDFT                   
 Basis size:  1246
 Attributes:
 Sphericals:   T

 Eigenvalues of metric

         1 0.192E-05 0.328E-05 0.333E-05 0.411E-05 0.483E-05 0.711E-05 0.755E-05 0.961E-05


 Contracted 2-electron integrals neglected if value below      1.0D-14

 OPERATOR DM      FOR CENTER  0  COORDINATES:    0.000000    0.000000    0.000000


 **********************************************************************************************************************************
 DATASETS  * FILE   NREC   LENGTH (MB)   RECORD NAMES
              1      18       49.80       500      610      700      900      950      970     1000      129      960     1100   
                                          VAR    BASINP    GEOM    SYMINP    ZMAT    AOBASIS   BASIS     P2S    ABASIS      S 
                                         1400     1410     1200     1210     1080     1600     1650     1700   
                                           T        V       H0       H01     AOSYM     SMH    MOLCAS    OPER   

              2       5       24.61       700     1000      520     2100      200   
                                         GEOM     BASIS   MCVARS     RHF    OPTIONS    

 PROGRAMS   *        TOTAL       INT   CCSD(T)    HF-SCF       INT
 CPU TIMES  *     50726.91      0.96  46351.70   1918.91   2455.13
 REAL TIME  *     54800.76 SEC
 DISK USED  *        14.28 GB (local),      554.46 GB (total)
 SF USED    *        13.87 GB
 GA USED    *         0.00 MB       (max)       0.00 MB       (current)
 **********************************************************************************************************************************


 PROGRAM * RHF-SCF (CLOSED SHELL)       Authors: W. Meyer, H.-J. Werner


 NUMBER OF ELECTRONS:       5+    5-    SPACE SYMMETRY=1    SPIN SYMMETRY: Singlet 
 CONVERGENCE THRESHOLDS:    1.00E-08 (Density)    1.00E-11 (Energy)
 MAX. NUMBER OF ITERATIONS:       60
 INTERPOLATION TYPE:            DIIS
 INTERPOLATION STEPS:              2 (START)      1 (STEP)
 LEVEL SHIFTS:                  0.00 (CLOSED)  0.00 (OPEN) 



 Orbital guess generated from atomic densities. Full valence occupancy:    7

 Molecular orbital dump at record        2101.2

 Initial occupancy:   5

 ITERATION    DDIFF          GRAD             ENERGY        2-EL.EN.            DIPOLE MOMENTS         DIIS   ORB.
    1      0.000D+00      0.000D+00       -76.02645562     77.417456   -0.23473    0.24571    1.09504    0    start
    2      0.000D+00      0.360D-02       -76.05323694     73.759137   -0.13633    0.14233    0.63636    1    diag
    3      0.130D-02      0.229D-02       -76.06481950     75.384132   -0.16085    0.16801    0.75074    2    diag
    4      0.494D-03      0.215D-03       -76.06501432     75.292598   -0.15985    0.16689    0.74613    3    diag
    5      0.632D-04      0.601D-04       -76.06503529     75.307096   -0.15948    0.16647    0.74443    4    diag
    6      0.204D-04      0.120D-04       -76.06503666     75.306024   -0.15939    0.16637    0.74404    5    diag
    7      0.536D-05      0.245D-05       -76.06503673     75.306169   -0.15936    0.16634    0.74392    6    diag
    8      0.146D-05      0.468D-06       -76.06503674     75.306158   -0.15936    0.16633    0.74388    7    diag
    9      0.286D-06      0.640D-07       -76.06503674     75.306148   -0.15935    0.16633    0.74387    8    diag
   10      0.360D-07      0.142D-07       -76.06503674     75.306151   -0.15935    0.16633    0.74387    9    orth
   11      0.876D-08      0.242D-08       -76.06503674     75.306151   -0.15935    0.16633    0.74387    0    orth

 Final occupancy:   5

 !RHF STATE  1.1 Energy               -76.065036736276
 Nuclear energy                         8.99703174
 One-electron energy                 -122.71514375
 Two-electron energy                   37.65307528
 Virial quotient                       -1.00193216
 !RHF STATE  1.1 Dipole moment         -0.15935482     0.16633095     0.74387016
 Dipole moment /Debye                  -0.40501301     0.42274342     1.89060551

 Orbital energies:

         1.1          2.1          3.1          4.1          5.1          6.1          7.1
    -20.567112    -1.341423    -0.708515    -0.578924    -0.508523     0.015032     0.030598


 HOMO      5.1    -0.508523 =     -13.8376eV
 LUMO      6.1     0.015032 =       0.4090eV
 LUMO-HOMO         0.523555 =      14.2467eV


 **********************************************************************************************************************************
 DATASETS  * FILE   NREC   LENGTH (MB)   RECORD NAMES
              1      18       49.80       500      610      700      900      950      970     1000      129      960     1100   
                                          VAR    BASINP    GEOM    SYMINP    ZMAT    AOBASIS   BASIS     P2S    ABASIS      S 
                                         1400     1410     1200     1210     1080     1600     1650     1700   
                                           T        V       H0       H01     AOSYM     SMH    MOLCAS    OPER   

              2       6       38.39       700     1000      520     2100      200     2101   
                                         GEOM     BASIS   MCVARS     RHF    OPTIONS    RHF  

 PROGRAMS   *        TOTAL    HF-SCF       INT   CCSD(T)    HF-SCF       INT
 CPU TIMES  *     52666.81   1939.90      0.96  46351.70   1918.91   2455.13
 REAL TIME  *     57059.03 SEC
 DISK USED  *        14.28 GB (local),      554.46 GB (total)
 SF USED    *        13.87 GB
 GA USED    *         0.00 MB       (max)       0.00 MB       (current)
 **********************************************************************************************************************************

 Basis set:  JKFIT                   
 Basis size:  1104
 Attributes:
 Sphericals:   T
 Basis set:  MP2FIT                  
 Basis size:  1246
 Attributes:
 Sphericals:   T
 Basis set:  RI                      
 Basis size:   730
 Attributes:
 Sphericals:   T
 Basis set:  TDDFT                   
 Basis size:  1246
 Attributes:
 Sphericals:   T

 PROGRAM * CCSD (Closed-shell coupled cluster)     Authors: C. Hampel, H.-J. Werner, 1991, M. Deegan, P.J. Knowles, 1992


 Convergence thresholds:  THRVAR = 1.00D-08  THRDEN = 1.00D-10

 CCSD(T)     terms to be evaluated (factor= 1.000)


 Number of core orbitals:           1 (   1 )
 Number of closed-shell orbitals:   4 (   4 )
 Number of external orbitals:     729 ( 729 )

 Molecular orbitals read from record     2101.2  Type=RHF/CANONICAL (state 1.1)

 Number of N-1 electron functions:               4
 Number of N-2 electron functions:              10
 Number of singly external CSFs:              2916
 Number of doubly external CSFs:           4252986
 Total number of CSFs:                     4255903

 Length of J-op  integral file:               0.00 MB
 Length of K-op  integral file:              37.04 MB
 Length of 3-ext integral record:             0.00 MB

 For full I/O caching in triples, increase memory by 535.09 Mwords to 2535.14 Mwords.

 Integral transformation finished. Total CPU:1390.18 sec, npass=  1  Memory used:1010.01 MW

 Reference energy:                    -76.06503674

 MP2 singlet pair energy:              -0.19216759
 MP2 triplet pair energy:              -0.10226016
 MP2 correlation energy:               -0.29442775
 MP2 total energy:                    -76.35946448

 SCS-MP2 correlation energy:           -0.29422965   (PS=  1.200000  PT=  0.333333)
 SCS-MP2 total energy:                -76.35926639

 ITER.      SQ.NORM     CORR.ENERGY   TOTAL ENERGY   ENERGY CHANGE        DEN1      VAR(S)    VAR(P)  DIIS     TIME  TIME/IT
   1      1.06412043    -0.29432398   -76.35936072     0.00010377     0.00604210  0.81D-03  0.10D-02  1  1  1778.66   399.40
   2      1.06769096    -0.29456539   -76.35960213    -0.00024142    -0.00495269  0.16D-04  0.12D-03  2  2  2168.89   401.71
   3      1.06912027    -0.29464484   -76.35968158    -0.00007945    -0.00102478  0.80D-05  0.68D-05  3  3  2559.01   402.49
   4      1.06960133    -0.29464307   -76.35967980     0.00000178    -0.00023434  0.52D-06  0.76D-06  4  4  2948.96   402.98
   5      1.06970676    -0.29464137   -76.35967811     0.00000169    -0.00003223  0.17D-06  0.53D-07  5  5  3338.79   403.17
   6      1.06974240    -0.29463884   -76.35967557     0.00000254    -0.00000774  0.18D-07  0.46D-08  6  6  3729.41   403.37
   7      1.06975031    -0.29463830   -76.35967504     0.00000054    -0.00000073  0.16D-08  0.81D-09  6  1  4119.19   403.46
   8      1.06975217    -0.29463818   -76.35967492     0.00000012    -0.00000010  0.25D-09  0.96D-10  6  2  4509.49   403.56
   9      1.06975286    -0.29463814   -76.35967488     0.00000004     0.00000007  0.20D-10  0.91D-11  6  3  4899.15   403.62
  10      1.06975300    -0.29463813   -76.35967487     0.00000001     0.00000003  0.22D-11  0.13D-11  6  4  5289.56   403.72
  11      1.06975300    -0.29463813   -76.35967487    -0.00000000     0.00000002  0.49D-12  0.16D-12  6  5  5678.73   403.72
  12      1.06975300    -0.29463813   -76.35967487    -0.00000000     0.00000001  0.85D-13  0.26D-13  6  6  6068.96   403.76
  13      1.06975299    -0.29463813   -76.35967487    -0.00000000     0.00000000  0.15D-13  0.49D-14  6  1  6458.63   403.80
  14      1.06975299    -0.29463813   -76.35967487    -0.00000000     0.00000000  0.18D-14  0.76D-15  6  2  6847.99   403.80
  15      1.06975299    -0.29463813   -76.35967487    -0.00000000     0.00000000  0.21D-15  0.13D-15  6  3  7238.04   403.82
  16      1.06975299    -0.29463813   -76.35967487    -0.00000000    -0.00000000  0.47D-16  0.19D-16  6  4  7629.40   403.90

 Norm of t1 vector:      0.03756245      S-energy:    -0.00000000      T1 diagnostic:  0.00939061
                                                                       D1 diagnostic:  0.01940012


 Total CPU time for triples:   3472.64 sec


 RESULTS
 =======

  Reference energy                    -76.065036736278
  CCSD singlet pair energy             -0.204236263791
  CCSD triplet pair energy             -0.090401870040
  CCSD correlation energy              -0.294638134480

  Triples (T) contribution             -0.009864419922
  Total correlation energy             -0.304502554402

  CCSD total energy                   -76.359674870758
  CCSD[T] energy                      -76.369851895599
  CCSD-T energy                       -76.369394465303
 !CCSD(T) total energy                -76.369539290680

 Timing summary (sec):

 STEP                 CPU(USER)    SYS     CPU(TOT)    WALL
 Transformation       1392.02     37.52   1429.54   1432.17
 CCSD iterations      6237.76    217.97   6455.73   6463.34
 Triples              3472.64     37.66   3510.30   3514.10

 Program statistics:

 Available memory in ccsd:              1999999921
 Min. memory needed in ccsd:              19268142
 Max. memory used in ccsd:                22427508
 Max. memory used in cckext:              14646566 (16 integral passes)



 **********************************************************************************************************************************
 DATASETS  * FILE   NREC   LENGTH (MB)   RECORD NAMES
              1      19     6330.40       500      610      700      900      950      970     1000      129      960     1100   
                                          VAR    BASINP    GEOM    SYMINP    ZMAT    AOBASIS   BASIS     P2S    ABASIS      S 
                                         1400     1410     1200     1210     1080     1600     1650     1700     1380   
                                           T        V       H0       H01     AOSYM     SMH    MOLCAS    OPER     JKOP   

              2       6       38.39       700     1000      520     2100      200     2101   
                                         GEOM     BASIS   MCVARS     RHF    OPTIONS    RHF  

 PROGRAMS   *        TOTAL   CCSD(T)    HF-SCF       INT   CCSD(T)    HF-SCF       INT
 CPU TIMES  *     63769.50  11102.67   1939.90      0.96  46351.70   1918.91   2455.13
 REAL TIME  *     68470.29 SEC
 DISK USED  *        14.28 GB (local),      554.46 GB (total)
 SF USED    *        13.87 GB
 GA USED    *         0.00 MB       (max)       0.00 MB       (current)
 **********************************************************************************************************************************

 Running procedure: SET_MONOMER2

 Dummy atoms: O16  H31  H32


 Recomputing one-electron integrals since nuclear charges changed


 PROGRAM * SEWARD (Integral evaluation for generally contracted gaussian basis sets)     Author: Roland Lindh, 1990

 Geometry written to block  1 of record 700


 Point group  C1  



 ATOMIC COORDINATES

 NR  ATOM    CHARGE       X              Y              Z

   1  O16     0.00  -11.397505175    1.072419576   -2.197184565
   2  H31     0.00  -11.790001291    2.731599113   -1.480411446
   3  H32     0.00  -11.462511754   -0.108659252   -0.778945109
   4  C1      6.00   -6.193010455    2.801518980    2.403542658
   5  H41     1.00   -4.656285171    1.699997622    3.119937832
   6  H42     1.00   -5.973046335    4.726205038    2.982932688
   7  H43     1.00   -7.940251230    2.077186956    3.118237078
   8  H44     1.00   -6.176569838    2.685300823    0.384937212

 Bond lengths in Bohr (Angstrom)

 1-2  1.849511731  1-3  1.846774542  4-5  2.021904040  4-6  2.022002335  4-7  2.021953343
     ( 0.978719459)     ( 0.977271001)     ( 1.069945541)     ( 1.069997556)     ( 1.069971630)

 4-8  2.022015060
     ( 1.070004290)

 Bond angles

  2-1-3  105.58293551   5-4-6  109.53398059   5-4-7  109.65604535   5-4-8  108.43490854

  6-4-7  109.49436728   6-4-8  109.86987750   7-4-8  109.83468330

 NUCLEAR CHARGE:                   10
 NUMBER OF PRIMITIVE AOS:        1046
 NUMBER OF SYMMETRY AOS:          786
 NUMBER OF CONTRACTIONS:          734   (  734A   )
 NUMBER OF CORE ORBITALS:           1   (    1A   )
 NUMBER OF VALENCE ORBITALS:        8   (    8A   )

 MOLECULE CHANGED: INITIALIZING OCCUPATION AND DUMP RECORDS


 NUCLEAR REPULSION ENERGY   13.68681606

 Basis set:  JKFIT                   
 Basis size:  1104
 Attributes:
 Sphericals:   T
 Basis set:  MP2FIT                  
 Basis size:  1246
 Attributes:
 Sphericals:   T
 Basis set:  RI                      
 Basis size:   730
 Attributes:
 Sphericals:   T
 Basis set:  TDDFT                   
 Basis size:  1246
 Attributes:
 Sphericals:   T

 Eigenvalues of metric

         1 0.192E-05 0.328E-05 0.333E-05 0.411E-05 0.483E-05 0.711E-05 0.755E-05 0.961E-05


 Contracted 2-electron integrals neglected if value below      1.0D-14

 OPERATOR DM      FOR CENTER  0  COORDINATES:    0.000000    0.000000    0.000000


 **********************************************************************************************************************************
 DATASETS  * FILE   NREC   LENGTH (MB)   RECORD NAMES
              1      18       49.80       500      610      700      900      950      970     1000      129      960     1100   
                                          VAR    BASINP    GEOM    SYMINP    ZMAT    AOBASIS   BASIS     P2S    ABASIS      S 
                                         1400     1410     1200     1210     1080     1600     1650     1700   
                                           T        V       H0       H01     AOSYM     SMH    MOLCAS    OPER   

              2       6       38.39       700     1000      520     2100      200     2101   
                                         GEOM     BASIS   MCVARS     RHF    OPTIONS    RHF  

 PROGRAMS   *        TOTAL       INT   CCSD(T)    HF-SCF       INT   CCSD(T)    HF-SCF       INT
 CPU TIMES  *     63770.42      0.92  11102.67   1939.90      0.96  46351.70   1918.91   2455.13
 REAL TIME  *     68472.77 SEC
 DISK USED  *        14.28 GB (local),      554.46 GB (total)
 SF USED    *        13.87 GB
 GA USED    *         0.00 MB       (max)       0.00 MB       (current)
 **********************************************************************************************************************************


 PROGRAM * RHF-SCF (CLOSED SHELL)       Authors: W. Meyer, H.-J. Werner


 NUMBER OF ELECTRONS:       5+    5-    SPACE SYMMETRY=1    SPIN SYMMETRY: Singlet 
 CONVERGENCE THRESHOLDS:    1.00E-08 (Density)    1.00E-11 (Energy)
 MAX. NUMBER OF ITERATIONS:       60
 INTERPOLATION TYPE:            DIIS
 INTERPOLATION STEPS:              2 (START)      1 (STEP)
 LEVEL SHIFTS:                  0.00 (CLOSED)  0.00 (OPEN) 



 Orbital guess generated from atomic densities. Full valence occupancy:    9

 Molecular orbital dump at record        2102.2

 Initial occupancy:   5

 ITERATION    DDIFF          GRAD             ENERGY        2-EL.EN.            DIPOLE MOMENTS         DIIS   ORB.
    1      0.000D+00      0.000D+00       -40.19676539     53.509904    0.00411   -0.00276   -0.00131    0    start
    2      0.000D+00      0.198D-02       -40.21405760     52.218480    0.00129   -0.00087   -0.00038    1    diag
    3      0.950D-03      0.769D-03       -40.21634103     52.673987    0.00182   -0.00123   -0.00055    2    diag
    4      0.259D-03      0.192D-03       -40.21666136     52.619250    0.00162   -0.00110   -0.00049    3    diag
    5      0.100D-03      0.248D-04       -40.21666684     52.621408    0.00159   -0.00108   -0.00048    4    diag
    6      0.349D-04      0.204D-05       -40.21666688     52.621536    0.00159   -0.00108   -0.00048    5    diag
    7      0.608D-05      0.166D-06       -40.21666688     52.621498    0.00159   -0.00108   -0.00048    6    diag
    8      0.352D-06      0.136D-07       -40.21666688     52.621499    0.00159   -0.00108   -0.00048    7    diag
    9      0.575D-07      0.167D-08       -40.21666688     52.621499    0.00159   -0.00108   -0.00048    8    diag
   10      0.108D-07      0.465D-09       -40.21666688     52.621499    0.00159   -0.00108   -0.00048    9    orth
   11      0.114D-08      0.667D-10       -40.21666688     52.621499    0.00159   -0.00108   -0.00048    0    orth

 Final occupancy:   5

 !RHF STATE  1.1 Energy               -40.216666881966
 Nuclear energy                        13.68681606
 One-electron energy                  -80.21423222
 Two-electron energy                   26.31074928
 Virial quotient                       -0.99832814
 !RHF STATE  1.1 Dipole moment          0.00158784    -0.00107821    -0.00047518
 Dipole moment /Debye                   0.00403562    -0.00274036    -0.00120772

 Orbital energies:

         1.1          2.1          3.1          4.1          5.1          6.1          7.1
    -11.196017    -0.950605    -0.551931    -0.549996    -0.547818     0.021751     0.033394


 HOMO      5.1    -0.547818 =     -14.9069eV
 LUMO      6.1     0.021751 =       0.5919eV
 LUMO-HOMO         0.569569 =      15.4988eV


 **********************************************************************************************************************************
 DATASETS  * FILE   NREC   LENGTH (MB)   RECORD NAMES
              1      18       49.80       500      610      700      900      950      970     1000      129      960     1100   
                                          VAR    BASINP    GEOM    SYMINP    ZMAT    AOBASIS   BASIS     P2S    ABASIS      S 
                                         1400     1410     1200     1210     1080     1600     1650     1700   
                                           T        V       H0       H01     AOSYM     SMH    MOLCAS    OPER   

              2       7       62.47       700     1000      520     2100      200     2101     2102   
                                         GEOM     BASIS   MCVARS     RHF    OPTIONS    RHF      RHF  

 PROGRAMS   *        TOTAL    HF-SCF       INT   CCSD(T)    HF-SCF       INT   CCSD(T)    HF-SCF       INT
 CPU TIMES  *     65742.05   1971.63      0.92  11102.67   1939.90      0.96  46351.70   1918.91   2455.13
 REAL TIME  *     70701.10 SEC
 DISK USED  *        14.28 GB (local),      554.46 GB (total)
 SF USED    *        13.87 GB
 GA USED    *         0.00 MB       (max)       0.00 MB       (current)
 **********************************************************************************************************************************

 Basis set:  JKFIT                   
 Basis size:  1104
 Attributes:
 Sphericals:   T
 Basis set:  MP2FIT                  
 Basis size:  1246
 Attributes:
 Sphericals:   T
 Basis set:  RI                      
 Basis size:   730
 Attributes:
 Sphericals:   T
 Basis set:  TDDFT                   
 Basis size:  1246
 Attributes:
 Sphericals:   T

 PROGRAM * CCSD (Closed-shell coupled cluster)     Authors: C. Hampel, H.-J. Werner, 1991, M. Deegan, P.J. Knowles, 1992


 Convergence thresholds:  THRVAR = 1.00D-08  THRDEN = 1.00D-10

 CCSD(T)     terms to be evaluated (factor= 1.000)


 Number of core orbitals:           1 (   1 )
 Number of closed-shell orbitals:   4 (   4 )
 Number of external orbitals:     729 ( 729 )

 Molecular orbitals read from record     2102.2  Type=RHF/CANONICAL (state 1.1)

 Number of N-1 electron functions:               4
 Number of N-2 electron functions:              10
 Number of singly external CSFs:              2916
 Number of doubly external CSFs:           4252986
 Total number of CSFs:                     4255903

 Length of J-op  integral file:               0.00 MB
 Length of K-op  integral file:              37.04 MB
 Length of 3-ext integral record:             0.00 MB

 For full I/O caching in triples, increase memory by 535.09 Mwords to 2535.14 Mwords.

 Integral transformation finished. Total CPU:1379.52 sec, npass=  1  Memory used:1010.01 MW

 Reference energy:                    -40.21666688

 MP2 singlet pair energy:              -0.15787800
 MP2 triplet pair energy:              -0.05682289
 MP2 correlation energy:               -0.21470089
 MP2 total energy:                    -40.43136777

 SCS-MP2 correlation energy:           -0.22481006   (PS=  1.200000  PT=  0.333333)
 SCS-MP2 total energy:                -40.44147694

 ITER.      SQ.NORM     CORR.ENERGY   TOTAL ENERGY   ENERGY CHANGE        DEN1      VAR(S)    VAR(P)  DIIS     TIME  TIME/IT
   1      1.07073116    -0.22924296   -40.44590984    -0.01454207    -0.00880988  0.58D-03  0.96D-03  1  1  1744.91   405.69
   2      1.07565293    -0.23033769   -40.44700457    -0.00109473    -0.00537201  0.15D-04  0.11D-03  2  2  2110.08   408.74
   3      1.07738957    -0.23037819   -40.44704507    -0.00004050    -0.00128255  0.20D-05  0.63D-05  3  3  2475.40   410.13
   4      1.07777995    -0.23037992   -40.44704680    -0.00000173    -0.00020100  0.14D-06  0.36D-06  4  4  2840.66   410.66
   5      1.07783434    -0.23038367   -40.44705056    -0.00000376    -0.00001098  0.13D-07  0.24D-07  5  5  3206.54   411.01
   6      1.07784447    -0.23038237   -40.44704925     0.00000131    -0.00000412  0.79D-09  0.17D-08  6  6  3572.60   411.29
   7      1.07784581    -0.23038199   -40.44704887     0.00000038    -0.00000075  0.53D-10  0.13D-09  6  1  3938.87   411.38
   8      1.07784573    -0.23038204   -40.44704892    -0.00000005     0.00000024  0.57D-11  0.83D-11  6  3  4304.44   411.47
   9      1.07784587    -0.23038202   -40.44704890     0.00000002    -0.00000009  0.41D-12  0.59D-12  6  2  4670.49   411.55
  10      1.07784587    -0.23038202   -40.44704890     0.00000000     0.00000001  0.56D-13  0.63D-13  6  4  5035.60   411.54
  11      1.07784587    -0.23038202   -40.44704890     0.00000000     0.00000000  0.56D-14  0.64D-14  6  5  5400.92   411.64
  12      1.07784587    -0.23038202   -40.44704890     0.00000000     0.00000000  0.16D-15  0.65D-15  6  6  5766.38   411.73
  13      1.07784587    -0.23038202   -40.44704890    -0.00000000     0.00000000  0.13D-16  0.71D-16  6  1  6131.81   411.81
  14      1.07784587    -0.23038202   -40.44704890    -0.00000000     0.00000000  0.30D-17  0.15D-16  6  3  6496.62   411.81

 Norm of t1 vector:      0.03185997      S-energy:     0.00000000      T1 diagnostic:  0.00796499
                                                                       D1 diagnostic:  0.01279384

 Total CPU time for triples:   3473.17 sec


 RESULTS
 =======

  Reference energy                    -40.216666881966
  CCSD singlet pair energy             -0.175399931799
  CCSD triplet pair energy             -0.054982089169
  CCSD correlation energy              -0.230382020967

  Triples (T) contribution             -0.007018741740
  Total correlation energy             -0.237400762706

  CCSD total energy                   -40.447048902933
  CCSD[T] energy                      -40.454291481594
  CCSD-T energy                       -40.454000689072
 !CCSD(T) total energy                -40.454067644672

 Timing summary (sec):

 STEP                 CPU(USER)    SYS     CPU(TOT)    WALL
 Transformation       1381.42     48.14   1429.56   1458.26
 CCSD iterations      5115.58    294.12   5409.70   5766.24
 Triples              3473.17     39.19   3512.36   3527.55

 Program statistics:

 Available memory in ccsd:              1999999916
 Min. memory needed in ccsd:              19268142
 Max. memory used in ccsd:                22427508
 Max. memory used in cckext:              14646566 (14 integral passes)



 **********************************************************************************************************************************
 DATASETS  * FILE   NREC   LENGTH (MB)   RECORD NAMES
              1      19     6330.40       500      610      700      900      950      970     1000      129      960     1100   
                                          VAR    BASINP    GEOM    SYMINP    ZMAT    AOBASIS   BASIS     P2S    ABASIS      S 
                                         1400     1410     1200     1210     1080     1600     1650     1700     1380   
                                           T        V       H0       H01     AOSYM     SMH    MOLCAS    OPER     JKOP   

              2       7       62.47       700     1000      520     2100      200     2101     2102   
                                         GEOM     BASIS   MCVARS     RHF    OPTIONS    RHF      RHF  

 PROGRAMS   *        TOTAL   CCSD(T)    HF-SCF       INT   CCSD(T)    HF-SCF       INT   CCSD(T)    HF-SCF       INT
 CPU TIMES  *     75712.48   9970.43   1971.63      0.92  11102.67   1939.90      0.96  46351.70   1918.91   2455.13
 REAL TIME  *     81454.31 SEC
 DISK USED  *        14.28 GB (local),      554.46 GB (total)
 SF USED    *        13.87 GB
 GA USED    *         0.00 MB       (max)       0.00 MB       (current)
 **********************************************************************************************************************************
 Molecular orbitals read from record     2102.2  Type=RHF/CANONICAL (state 1.1)
 Occupation numbers read from record     2102.2  Type=RHF/RHF (state 1.1)
 Orbital energies read from record       2102.2  Type=RHF/CANONICAL (state 1.1)
 Redundancy group numbers read from rec  2102.2  Type=RHF/RHF (state 1.1)

 CCSD(T)/aug-cc-pV5Z energy=    -40.454067644672

         CCSD(T)          HF-SCF         CCSD(T)          HF-SCF         CCSD(T)          HF-SCF
    -40.45406764    -40.21666688    -76.36953929    -76.06503674   -116.82421108   -116.28138669
 **********************************************************************************************************************************
 Molpro calculation terminated
