
 Primary working directories    : /scratch/klimes/387205/molpro.n7uMjI9wyn
 Secondary working directories  : /scratch/klimes/387205/molpro.n7uMjI9wyn
 Wavefunction directory         : /scratch/klimes/387205/
 Main file repository           : /scratch/klimes/387205/molpro.n7uMjI9wyn/

 id        : karlovklimes

 Nodes                      nprocs
 nc-02.cc.karlov.mff.cuni.cz    4

 Using customized tuning parameters: mindgm=1; mindgv=20; mindgc=4; mindgr=1; noblas=0; minvec=7
 default implementation of scratch files=sf  


 Variables initialized (930), CPU time= 0.01 sec
                                                                                 !gdirect
 memory,2000,m
 gthresh,orbital=1d-10,energy=1d-10,grid=1d-8
 
 symmetry,nosym
 angstrom
 geometry={
 O17        -4.414800000000      4.436400000000      3.575800000000
 H33        -3.889000000000      4.780900000000      2.793400000000
 H34        -4.626600000000      5.219700000000      4.099200000000
 C1        -3.277200000000      1.482500000000      1.271900000000
 H41        -2.464000000000      0.899600000000      1.651000000000
 H42        -3.160800000000      2.501000000000      1.578500000000
 H43        -4.201800000000      1.099200000000      1.650100000000
 H44        -3.268500000000      1.421000000000      0.203700000000
 }
 
 nkerna=1
 nkernb=1
 
 gf=0
 sing=1
 thrdum=1d-4
 gridthr=1d-8
 
 basis={
 set,orbital
 default,av5z
 set,jkfit
 default,av5z/jkfit
 set,mp2fit
 default,av5z/mp2fit
 set,ri
 default,av5z/optri
 set,tddft
 default,av5z/mp2fit
 }
 
 proc set_monomer1
 dummy,4,5,6,7,8
 endproc
 
 proc set_monomer2
 dummy,1,2,3
 endproc
 
                                                                                 !1234 energy
 {hf,accu=1.d-16}
 ccsd(t)
 
 set_monomer1
 {hf,accu=1.d-16}
 ccsd(t)
 
 set_monomer2
 {hf,accu=1.d-16}
 ccsd(t)
 
 Commands  initialized (760), CPU time= 0.01 sec, 617 directives.
 Default parameters read. Elapsed time= 0.20 sec

 Checking input...
 Passed
1


                                         ***  PROGRAM SYSTEM MOLPRO  ***
                                       Copyright, TTI GmbH Stuttgart, 2015
                                    Version 2019.1 linked Jan 14 2019 13:09:19


 **********************************************************************************************************************************
 LABEL *                                                                                 
  64 bit mpp version                                                                     DATE: 12-Mar-20          TIME: 20:51:04  
 **********************************************************************************************************************************

 SHA1:             d688ac825633d238f2093ded1675ba87ccd55965
 **********************************************************************************************************************************

 THRESHOLDS:

 ZERO    =  1.00D-12  ONEINT  =  1.00D-12  TWOINT  =  1.00D-11  PREFAC  =  1.00D-14  XXXXXX  =  1.00D-09  EORDER  =  1.00D-04
 ENERGY  =  1.00D-10  ETEST   =  0.00D+00  EDENS   =  0.00D+00  THRDEDEF=  1.00D-06  GRADIENT=  1.00D-02  STEP    =  1.00D-03
 ORBITAL =  1.00D-10  CIVEC   =  1.00D-05  COEFF   =  1.00D-04  PRINTCI =  5.00D-02  PUNCHCI =  9.90D+01  OPTGRAD =  3.00D-04
 OPTENERG=  1.00D-06  OPTSTEP =  3.00D-04  THRGRAD =  1.00D-10  COMPRESS=  1.00D-11  VARMIN  =  1.00D-07  VARMAX  =  1.00D-03
 THRDOUB =  0.00D+00  THRDIV  =  1.00D-05  THRRED  =  1.00D-07  THRPSP  =  1.00D+00  THRDC   =  1.00D-10  THRCS   =  1.00D-10
 THRNRM  =  1.00D-08  THREQ   =  0.00D+00  THRDE   =  1.00D+00  THRREF  =  1.00D-05  SPARFAC =  1.00D+00  THRDLP  =  1.00D-07
 THRDIA  =  1.00D-10  THRDLS  =  1.00D-07  THRGPS  =  0.00D+00  THRKEX  =  0.00D+00  THRDIS  =  2.00D-01  THRVAR  =  1.00D-10
 THRLOC  =  1.00D-06  THRGAP  =  1.00D-06  THRLOCT = -1.00D+00  THRGAPT = -1.00D+00  THRORB  =  1.00D-06  THRMLTP =  0.00D+00
 THRCPQCI=  1.00D-10  KEXTA   =  0.00D+00  THRCOARS=  0.00D+00  SYMTOL  =  1.00D-06  GRADTOL =  1.00D-06  THROVL  =  1.00D-08
 THRORTH =  1.00D-08  GRID    =  1.00D-08  GRIDMAX =  1.00D-03  DTMAX   =  0.00D+00  THROCCDE=  1.00D-01  THROCCDE=  1.00D-01
 THRPRINT=  2.50D-01


 Variable memory set to 2000000000 words,  buffer space 

 ZSYMEL=NOSYM
 ZUNIT=ANG


Geometry recognized as XYZ

 SETTING NKERNA         =         1.00000000                                  
 SETTING NKERNB         =         1.00000000                                  
 SETTING GF             =     0.00000000D+00                                  
 SETTING SING           =         1.00000000                                  
 SETTING THRDUM         =     1.00000000D-04                                  
 SETTING GRIDTHR        =     1.00000000D-08                                  
 SETTING BASIS          =    AV5Z


 Recomputing integrals since basis changed


 Using spherical harmonics

 Library entry O      S aug-cc-pV5Z          selected for orbital group  1
 Library entry O      P aug-cc-pV5Z          selected for orbital group  1
 Library entry O      D aug-cc-pV5Z          selected for orbital group  1
 Library entry O      F aug-cc-pV5Z          selected for orbital group  1
 Library entry O      G aug-cc-pV5Z          selected for orbital group  1
 Library entry O      H aug-cc-pV5Z          selected for orbital group  1
 Library entry H      S aug-cc-pV5Z          selected for orbital group  2
 Library entry H      P aug-cc-pV5Z          selected for orbital group  2
 Library entry H      D aug-cc-pV5Z          selected for orbital group  2
 Library entry H      F aug-cc-pV5Z          selected for orbital group  2
 Library entry H      G aug-cc-pV5Z          selected for orbital group  2
 Library entry C      S aug-cc-pV5Z          selected for orbital group  3
 Library entry C      P aug-cc-pV5Z          selected for orbital group  3
 Library entry C      D aug-cc-pV5Z          selected for orbital group  3
 Library entry C      F aug-cc-pV5Z          selected for orbital group  3
 Library entry C      G aug-cc-pV5Z          selected for orbital group  3
 Library entry C      H aug-cc-pV5Z          selected for orbital group  3


 PROGRAM * SEWARD (Integral evaluation for generally contracted gaussian basis sets)     Author: Roland Lindh, 1990

 Geometry written to block  1 of record 700


 Point group  C1  



 ATOMIC COORDINATES

 NR  ATOM    CHARGE       X              Y              Z

   1  O17     8.00   -8.342762895    8.383580979    6.757282676
   2  H33     1.00   -7.349144898    9.034591629    5.278760956
   3  H34     1.00   -8.743006888    9.863803452    7.746365330
   4  C1      6.00   -6.193010455    2.801518980    2.403542658
   5  H41     1.00   -4.656285171    1.699997622    3.119937832
   6  H42     1.00   -5.973046335    4.726205038    2.982932688
   7  H43     1.00   -7.940251230    2.077186956    3.118237078
   8  H44     1.00   -6.176569838    2.685300823    0.384937212

 Bond lengths in Bohr (Angstrom)

 1-2  1.896606987  1-3  1.824702255  4-5  2.021904040  4-6  2.022002335  4-7  2.021953343
     ( 1.003641196)     ( 0.965590850)     ( 1.069945541)     ( 1.069997556)     ( 1.069971630)

 4-8  2.022015060
     ( 1.070004290)

 Bond angles

  2-1-3  105.01239280   5-4-6  109.53398059   5-4-7  109.65604535   5-4-8  108.43490854

  6-4-7  109.49436728   6-4-8  109.86987750   7-4-8  109.83468330

 NUCLEAR CHARGE:                   20
 NUMBER OF PRIMITIVE AOS:        1046
 NUMBER OF SYMMETRY AOS:          786
 NUMBER OF CONTRACTIONS:          734   (  734A   )
 NUMBER OF CORE ORBITALS:           2   (    2A   )
 NUMBER OF VALENCE ORBITALS:       14   (   14A   )


 NUCLEAR REPULSION ENERGY   35.98231600


 Basis set:  JKFIT                   
 Basis size:  1104
 Attributes:
 Sphericals:   T
 Basis set:  MP2FIT                  
 Basis size:  1246
 Attributes:
 Sphericals:   T
 Basis set:  RI                      
 Basis size:   730
 Attributes:
 Sphericals:   T
 Basis set:  TDDFT                   
 Basis size:  1246
 Attributes:
 Sphericals:   T

 **********************************************************************************************************************************


 Eigenvalues of metric

         1 0.160E-05 0.204E-05 0.336E-05 0.446E-05 0.525E-05 0.642E-05 0.880E-05 0.951E-05


 Contracted 2-electron integrals neglected if value below      1.0D-14
 AO integral compression algorithm  1   Integral accuracy      1.0D-14

     145887.330 MB (compressed) written to integral file ( 46.2%)

     Node minimum: 33314.832 MB, node maximum: 40357.331 MB


 NUMBER OF SORTED TWO-ELECTRON INTEGRALS: 9095363064.     BUFFER LENGTH:  32768
 NUMBER OF SEGMENTS: 190  SEGMENT LENGTH:   47999780      RECORD LENGTH: 131072

 Memory used in sort:      48.16 MW

 SORT1 READ 39469261449. AND WROTE  6629789005. INTEGRALS IN  75970 RECORDS. CPU TIME:   889.25 SEC, REAL TIME:  1078.84 SEC
 SORT2 READ 26521853574. AND WROTE 36381317385. INTEGRALS IN 542424 RECORDS. CPU TIME:   149.97 SEC, REAL TIME:   559.90 SEC

 Node minimum:  9095228192.  Node maximum:  9095430501. integrals

 OPERATOR DM      FOR CENTER  0  COORDINATES:    0.000000    0.000000    0.000000


 **********************************************************************************************************************************
 DATASETS  * FILE   NREC   LENGTH (MB)   RECORD NAMES
              1      18       49.80       500      610      700      900      950      970     1000      129      960     1100   
                                          VAR    BASINP    GEOM    SYMINP    ZMAT    AOBASIS   BASIS     P2S    ABASIS      S 
                                         1400     1410     1200     1210     1080     1600     1650     1700   
                                           T        V       H0       H01     AOSYM     SMH    MOLCAS    OPER   

 PROGRAMS   *        TOTAL       INT
 CPU TIMES  *      2458.68   2458.48
 REAL TIME  *      3134.32 SEC
 DISK USED  *        50.44 MB (local),      464.08 GB (total)
 GA USED    *         0.00 MB       (max)       0.00 MB       (current)
 **********************************************************************************************************************************


 PROGRAM * RHF-SCF (CLOSED SHELL)       Authors: W. Meyer, H.-J. Werner


 NUMBER OF ELECTRONS:      10+   10-    SPACE SYMMETRY=1    SPIN SYMMETRY: Singlet 
 CONVERGENCE THRESHOLDS:    1.00E-08 (Density)    1.00E-11 (Energy)
 MAX. NUMBER OF ITERATIONS:       60
 INTERPOLATION TYPE:            DIIS
 INTERPOLATION STEPS:              2 (START)      1 (STEP)
 LEVEL SHIFTS:                  0.00 (CLOSED)  0.00 (OPEN) 



 Orbital guess generated from atomic densities. Full valence occupancy:   16

 Molecular orbital dump at record        2100.2

 Initial occupancy:  10

 ITERATION    DDIFF          GRAD             ENERGY        2-EL.EN.            DIPOLE MOMENTS         DIIS   ORB.
    1      0.000D+00      0.000D+00      -116.22038205    157.703240    0.31332    1.08537   -0.26164    0    start
    2      0.000D+00      0.292D-02      -116.26486086    152.637675    0.14447    0.62219   -0.09856    1    diag
    3      0.162D-02      0.173D-02      -116.27883771    154.746628    0.18674    0.74098   -0.13927    2    diag
    4      0.559D-03      0.256D-03      -116.27950932    154.633069    0.18319    0.73043   -0.13590    3    diag
    5      0.125D-03      0.757D-04      -116.27958056    154.628747    0.18254    0.73018   -0.13505    4    diag
    6      0.522D-04      0.183D-04      -116.27958454    154.634382    0.18225    0.72943   -0.13473    5    diag
    7      0.189D-04      0.373D-05      -116.27958479    154.632730    0.18224    0.72945   -0.13469    6    diag
    8      0.554D-05      0.967D-06      -116.27958481    154.632916    0.18220    0.72939   -0.13465    7    diag
    9      0.125D-05      0.229D-06      -116.27958481    154.632888    0.18219    0.72937   -0.13464    8    diag
   10      0.309D-06      0.266D-07      -116.27958481    154.632889    0.18219    0.72937   -0.13464    9    orth
   11      0.591D-07      0.612D-08      -116.27958481    154.632890    0.18219    0.72937   -0.13464    9    diag
   12      0.598D-08      0.163D-08      -116.27958481    154.632890    0.18219    0.72937   -0.13464    0    orth

 Final occupancy:  10

 !RHF STATE  1.1 Energy              -116.279584807827
 Nuclear energy                        35.98231600
 One-electron energy                 -229.57834578
 Two-electron energy                   77.31644498
 Virial quotient                       -1.00082412
 !RHF STATE  1.1 Dipole moment          0.18219285     0.72937358    -0.13463516
 Dipole moment /Debye                   0.46305771     1.85376131    -0.34218602

 Orbital energies:

         1.1          2.1          3.1          4.1          5.1          6.1          7.1          8.1          9.1         10.1
    -20.568885   -11.191188    -1.339497    -0.945592    -0.704938    -0.579313    -0.546496    -0.544966    -0.543137    -0.508717

        11.1         12.1
      0.021136     0.030814


 HOMO     10.1    -0.508717 =     -13.8429eV
 LUMO     11.1     0.021136 =       0.5751eV
 LUMO-HOMO         0.529853 =      14.4180eV


 **********************************************************************************************************************************
 DATASETS  * FILE   NREC   LENGTH (MB)   RECORD NAMES
              1      18       49.80       500      610      700      900      950      970     1000      129      960     1100   
                                          VAR    BASINP    GEOM    SYMINP    ZMAT    AOBASIS   BASIS     P2S    ABASIS      S 
                                         1400     1410     1200     1210     1080     1600     1650     1700   
                                           T        V       H0       H01     AOSYM     SMH    MOLCAS    OPER   

              2       4       13.79       700     1000      520     2100   
                                         GEOM     BASIS   MCVARS     RHF  

 PROGRAMS   *        TOTAL    HF-SCF       INT
 CPU TIMES  *      6798.63   4339.94   2458.48
 REAL TIME  *      7850.36 SEC
 DISK USED  *       102.61 MB (local),      464.29 GB (total)
 SF USED    *         2.16 MB
 GA USED    *         0.00 MB       (max)       0.00 MB       (current)
 **********************************************************************************************************************************

 Basis set:  JKFIT                   
 Basis size:  1104
 Attributes:
 Sphericals:   T
 Basis set:  MP2FIT                  
 Basis size:  1246
 Attributes:
 Sphericals:   T
 Basis set:  RI                      
 Basis size:   730
 Attributes:
 Sphericals:   T
 Basis set:  TDDFT                   
 Basis size:  1246
 Attributes:
 Sphericals:   T

 PROGRAM * CCSD (Closed-shell coupled cluster)     Authors: C. Hampel, H.-J. Werner, 1991, M. Deegan, P.J. Knowles, 1992


 Convergence thresholds:  THRVAR = 1.00D-08  THRDEN = 1.00D-10

 CCSD(T)     terms to be evaluated (factor= 1.000)


 Number of core orbitals:           2 (   2 )
 Number of closed-shell orbitals:   8 (   8 )
 Number of external orbitals:     724 ( 724 )

 Molecular orbitals read from record     2100.2  Type=RHF/CANONICAL (state 1.1)

 Number of N-1 electron functions:               8
 Number of N-2 electron functions:              36
 Number of singly external CSFs:              5792
 Number of doubly external CSFs:          16776528
 Total number of CSFs:                    16782321

 Length of J-op  integral file:               0.00 MB
 Length of K-op  integral file:              37.04 MB
 Length of 3-ext integral record:             0.00 MB

 For full I/O caching in triples, increase memory by 2034.74 Mwords to 4034.79 Mwords.

 Integral transformation finished. Total CPU:4216.35 sec, npass=  1  Memory used:1826.26 MW

 Reference energy:                   -116.27958481

 MP2 singlet pair energy:              -0.35059546
 MP2 triplet pair energy:              -0.15973800
 MP2 correlation energy:               -0.51033347
 MP2 total energy:                   -116.78991828

 SCS-MP2 correlation energy:           -0.52010709   (PS=  1.200000  PT=  0.333333)
 SCS-MP2 total energy:               -116.79969190

 ITER.      SQ.NORM     CORR.ENERGY   TOTAL ENERGY   ENERGY CHANGE        DEN1      VAR(S)    VAR(P)  DIIS     TIME  TIME/IT
   1      1.13556795    -0.52465669  -116.80424150    -0.01432323    -0.00254943  0.14D-02  0.20D-02  1  1  5509.20  1336.96
   2      1.14401757    -0.52598773  -116.80557253    -0.00133103    -0.01029724  0.31D-04  0.26D-03  2  2  6805.12  1346.54
   3      1.14736240    -0.52611779  -116.80570260    -0.00013006    -0.00240938  0.11D-04  0.14D-04  3  3  8106.51  1349.99
   4      1.14828374    -0.52611516  -116.80569996     0.00000263    -0.00046540  0.66D-06  0.13D-05  4  4  9408.88  1351.25
   5      1.14845113    -0.52611708  -116.80570188    -0.00000192    -0.00004514  0.21D-06  0.93D-07  5  5 10718.07  1352.47
   6      1.14849946    -0.52611410  -116.80569891     0.00000297    -0.00001047  0.22D-07  0.76D-08  6  6 12022.53  1351.97
   7      1.14851001    -0.52611284  -116.80569765     0.00000126    -0.00000215  0.21D-08  0.96D-09  6  2 13330.98  1352.66
   8      1.14851245    -0.52611266  -116.80569747     0.00000018    -0.00000012  0.33D-09  0.10D-09  6  1 14636.55  1352.59
   9      1.14851338    -0.52611260  -116.80569741     0.00000005    -0.00000004  0.24D-10  0.15D-10  6  3 15941.77  1352.63
  10      1.14851348    -0.52611261  -116.80569742    -0.00000001     0.00000011  0.26D-11  0.17D-11  6  4 17247.27  1353.03
  11      1.14851345    -0.52611262  -116.80569742    -0.00000001     0.00000007  0.41D-12  0.24D-12  6  5 18550.53  1353.32
  12      1.14851342    -0.52611262  -116.80569743    -0.00000000     0.00000002  0.92D-13  0.32D-13  6  6 19853.16  1353.61
  13      1.14851340    -0.52611262  -116.80569743    -0.00000000     0.00000001  0.18D-13  0.48D-14  6  2 21152.75  1353.81
  14      1.14851339    -0.52611262  -116.80569743    -0.00000000     0.00000000  0.27D-14  0.10D-14  6  1 22452.42  1354.17
  15      1.14851339    -0.52611262  -116.80569743    -0.00000000     0.00000000  0.35D-15  0.15D-15  6  3 23749.24  1354.29
  16      1.14851339    -0.52611262  -116.80569743    -0.00000000    -0.00000000  0.65D-16  0.29D-16  6  4 25049.00  1354.40
  17      1.14851339    -0.52611262  -116.80569743    -0.00000000    -0.00000000  0.21D-16  0.87D-17  6  5 26344.72  1354.85

 Norm of t1 vector:      0.04995224      S-energy:    -0.00000000      T1 diagnostic:  0.00883039
                                                                       D1 diagnostic:  0.01993142

   CPU time for triples:   1856.91 sec for i =  1 -  2 /  8 (~   1.8 % done)
   CPU time for triples:   1882.39 sec for i =  3 -  3 /  8 (~   6.2 % done)
   CPU time for triples:   3778.08 sec for i =  4 -  5 /  8 (~  26.8 % done)
   CPU time for triples:   5663.33 sec for i =  6 -  6 /  8 (~  44.6 % done)
   CPU time for triples:   5651.13 sec for i =  7 -  7 /  8 (~  68.8 % done)
   CPU time for triples:   7535.40 sec for i =  8 -  8 /  8 (  100.0 % done)

 Total CPU time for triples:  26431.99 sec


 RESULTS
 =======

  Reference energy                   -116.279584807823
  CCSD singlet pair energy             -0.380213397874
  CCSD triplet pair energy             -0.145899222093
  CCSD correlation energy              -0.526112620260

  Triples (T) contribution             -0.017072783062
  Total correlation energy             -0.543185403322

  CCSD total energy                  -116.805697428083
  CCSD[T] energy                     -116.823315946133
  CCSD-T energy                      -116.822553008683
 !CCSD(T) total energy               -116.822770211144

 Timing summary (sec):

 STEP                 CPU(USER)    SYS     CPU(TOT)    WALL
 Transformation       4223.19    204.43   4427.62   4439.75
 CCSD iterations     22121.97    695.46  22817.43  23034.13
 Triples             26431.99   1090.14  27522.13  27562.27

 Program statistics:

 Available memory in ccsd:              1999999734
 Min. memory needed in ccsd:              48755833
 Max. memory used in ccsd:                63342105
 Max. memory used in cckext:              42809278 (17 integral passes)



 **********************************************************************************************************************************
 DATASETS  * FILE   NREC   LENGTH (MB)   RECORD NAMES
              1      19    12452.38       500      610      700      900      950      970     1000      129      960     1100   
                                          VAR    BASINP    GEOM    SYMINP    ZMAT    AOBASIS   BASIS     P2S    ABASIS      S 
                                         1400     1410     1200     1210     1080     1600     1650     1700     1380   
                                           T        V       H0       H01     AOSYM     SMH    MOLCAS    OPER     JKOP   

              2       4       13.79       700     1000      520     2100   
                                         GEOM     BASIS   MCVARS     RHF  

 PROGRAMS   *        TOTAL   CCSD(T)    HF-SCF       INT
 CPU TIMES  *     59576.06  52777.41   4339.94   2458.48
 REAL TIME  *     62887.40 SEC
 DISK USED  *        14.28 GB (local),      515.56 GB (total)
 SF USED    *        13.87 GB
 GA USED    *         0.00 MB       (max)       0.00 MB       (current)
 **********************************************************************************************************************************

 Running procedure: SET_MONOMER1

 Dummy atoms: C1  H41  H42  H43  H44


 Recomputing one-electron integrals since nuclear charges changed


 PROGRAM * SEWARD (Integral evaluation for generally contracted gaussian basis sets)     Author: Roland Lindh, 1990

 Geometry written to block  1 of record 700


 Point group  C1  



 ATOMIC COORDINATES

 NR  ATOM    CHARGE       X              Y              Z

   1  O17     8.00   -8.342762895    8.383580979    6.757282676
   2  H33     1.00   -7.349144898    9.034591629    5.278760956
   3  H34     1.00   -8.743006888    9.863803452    7.746365330
   4  C1      0.00   -6.193010455    2.801518980    2.403542658
   5  H41     0.00   -4.656285171    1.699997622    3.119937832
   6  H42     0.00   -5.973046335    4.726205038    2.982932688
   7  H43     0.00   -7.940251230    2.077186956    3.118237078
   8  H44     0.00   -6.176569838    2.685300823    0.384937212

 Bond lengths in Bohr (Angstrom)

 1-2  1.896606987  1-3  1.824702255  4-5  2.021904040  4-6  2.022002335  4-7  2.021953343
     ( 1.003641196)     ( 0.965590850)     ( 1.069945541)     ( 1.069997556)     ( 1.069971630)

 4-8  2.022015060
     ( 1.070004290)

 Bond angles

  2-1-3  105.01239280   5-4-6  109.53398059   5-4-7  109.65604535   5-4-8  108.43490854

  6-4-7  109.49436728   6-4-8  109.86987750   7-4-8  109.83468330

 NUCLEAR CHARGE:                   10
 NUMBER OF PRIMITIVE AOS:        1046
 NUMBER OF SYMMETRY AOS:          786
 NUMBER OF CONTRACTIONS:          734   (  734A   )
 NUMBER OF CORE ORBITALS:           1   (    1A   )
 NUMBER OF VALENCE ORBITALS:        6   (    6A   )

 MOLECULE CHANGED: INITIALIZING OCCUPATION AND DUMP RECORDS


 NUCLEAR REPULSION ENERGY    8.94098799

 Basis set:  JKFIT                   
 Basis size:  1104
 Attributes:
 Sphericals:   T
 Basis set:  MP2FIT                  
 Basis size:  1246
 Attributes:
 Sphericals:   T
 Basis set:  RI                      
 Basis size:   730
 Attributes:
 Sphericals:   T
 Basis set:  TDDFT                   
 Basis size:  1246
 Attributes:
 Sphericals:   T

 Eigenvalues of metric

         1 0.160E-05 0.204E-05 0.336E-05 0.446E-05 0.525E-05 0.642E-05 0.880E-05 0.951E-05


 Contracted 2-electron integrals neglected if value below      1.0D-14

 OPERATOR DM      FOR CENTER  0  COORDINATES:    0.000000    0.000000    0.000000


 **********************************************************************************************************************************
 DATASETS  * FILE   NREC   LENGTH (MB)   RECORD NAMES
              1      18       49.80       500      610      700      900      950      970     1000      129      960     1100   
                                          VAR    BASINP    GEOM    SYMINP    ZMAT    AOBASIS   BASIS     P2S    ABASIS      S 
                                         1400     1410     1200     1210     1080     1600     1650     1700   
                                           T        V       H0       H01     AOSYM     SMH    MOLCAS    OPER   

              2       5       24.61       700     1000      520     2100      200   
                                         GEOM     BASIS   MCVARS     RHF    OPTIONS    

 PROGRAMS   *        TOTAL       INT   CCSD(T)    HF-SCF       INT
 CPU TIMES  *     59577.03      0.95  52777.41   4339.94   2458.48
 REAL TIME  *     62890.18 SEC
 DISK USED  *        14.28 GB (local),      515.59 GB (total)
 SF USED    *        13.87 GB
 GA USED    *         0.00 MB       (max)       0.00 MB       (current)
 **********************************************************************************************************************************


 PROGRAM * RHF-SCF (CLOSED SHELL)       Authors: W. Meyer, H.-J. Werner


 NUMBER OF ELECTRONS:       5+    5-    SPACE SYMMETRY=1    SPIN SYMMETRY: Singlet 
 CONVERGENCE THRESHOLDS:    1.00E-08 (Density)    1.00E-11 (Energy)
 MAX. NUMBER OF ITERATIONS:       60
 INTERPOLATION TYPE:            DIIS
 INTERPOLATION STEPS:              2 (START)      1 (STEP)
 LEVEL SHIFTS:                  0.00 (CLOSED)  0.00 (OPEN) 



 Orbital guess generated from atomic densities. Full valence occupancy:    7

 Molecular orbital dump at record        2101.2

 Initial occupancy:   5

 ITERATION    DDIFF          GRAD             ENERGY        2-EL.EN.            DIPOLE MOMENTS         DIIS   ORB.
    1      0.000D+00      0.000D+00       -76.02441612     77.338704    0.31041    1.08950   -0.26178    0    start
    2      0.000D+00      0.361D-02       -76.05130236     73.649707    0.17325    0.63108   -0.14091    1    diag
    3      0.130D-02      0.231D-02       -76.06316603     75.293850    0.20642    0.74659   -0.16910    2    diag
    4      0.496D-03      0.217D-03       -76.06336704     75.201887    0.20390    0.74226   -0.16595    3    diag
    5      0.627D-04      0.618D-04       -76.06338965     75.216771    0.20290    0.74068   -0.16467    4    diag
    6      0.204D-04      0.126D-04       -76.06339119     75.215611    0.20261    0.74032   -0.16429    5    diag
    7      0.541D-05      0.261D-05       -76.06339127     75.215757    0.20253    0.74021   -0.16418    6    diag
    8      0.143D-05      0.483D-06       -76.06339128     75.215744    0.20252    0.74017   -0.16416    7    diag
    9      0.273D-06      0.675D-07       -76.06339128     75.215734    0.20251    0.74017   -0.16416    8    diag
   10      0.376D-07      0.160D-07       -76.06339128     75.215737    0.20251    0.74017   -0.16416    9    orth
   11      0.911D-08      0.380D-08       -76.06339128     75.215737    0.20251    0.74017   -0.16416    0    orth

 Final occupancy:   5

 !RHF STATE  1.1 Energy               -76.063391275331
 Nuclear energy                         8.94098799
 One-electron energy                 -122.61224756
 Two-electron energy                   37.60786830
 Virial quotient                       -1.00218199
 !RHF STATE  1.1 Dipole moment          0.20251471     0.74016667    -0.16415842
 Dipole moment /Debye                   0.51470732     1.88119281    -0.41722175

 Orbital energies:

         1.1          2.1          3.1          4.1          5.1          6.1          7.1
    -20.568415    -1.338922    -0.704074    -0.578625    -0.508219     0.018377     0.028794


 HOMO      5.1    -0.508219 =     -13.8293eV
 LUMO      6.1     0.018377 =       0.5001eV
 LUMO-HOMO         0.526596 =      14.3294eV


 **********************************************************************************************************************************
 DATASETS  * FILE   NREC   LENGTH (MB)   RECORD NAMES
              1      18       49.80       500      610      700      900      950      970     1000      129      960     1100   
                                          VAR    BASINP    GEOM    SYMINP    ZMAT    AOBASIS   BASIS     P2S    ABASIS      S 
                                         1400     1410     1200     1210     1080     1600     1650     1700   
                                           T        V       H0       H01     AOSYM     SMH    MOLCAS    OPER   

              2       6       38.39       700     1000      520     2100      200     2101   
                                         GEOM     BASIS   MCVARS     RHF    OPTIONS    RHF  

 PROGRAMS   *        TOTAL    HF-SCF       INT   CCSD(T)    HF-SCF       INT
 CPU TIMES  *     63462.41   3885.37      0.95  52777.41   4339.94   2458.48
 REAL TIME  *     67258.85 SEC
 DISK USED  *        14.28 GB (local),      515.59 GB (total)
 SF USED    *        13.87 GB
 GA USED    *         0.00 MB       (max)       0.00 MB       (current)
 **********************************************************************************************************************************

 Basis set:  JKFIT                   
 Basis size:  1104
 Attributes:
 Sphericals:   T
 Basis set:  MP2FIT                  
 Basis size:  1246
 Attributes:
 Sphericals:   T
 Basis set:  RI                      
 Basis size:   730
 Attributes:
 Sphericals:   T
 Basis set:  TDDFT                   
 Basis size:  1246
 Attributes:
 Sphericals:   T

 PROGRAM * CCSD (Closed-shell coupled cluster)     Authors: C. Hampel, H.-J. Werner, 1991, M. Deegan, P.J. Knowles, 1992


 Convergence thresholds:  THRVAR = 1.00D-08  THRDEN = 1.00D-10

 CCSD(T)     terms to be evaluated (factor= 1.000)


 Number of core orbitals:           1 (   1 )
 Number of closed-shell orbitals:   4 (   4 )
 Number of external orbitals:     729 ( 729 )

 Molecular orbitals read from record     2101.2  Type=RHF/CANONICAL (state 1.1)

 Number of N-1 electron functions:               4
 Number of N-2 electron functions:              10
 Number of singly external CSFs:              2916
 Number of doubly external CSFs:           4252986
 Total number of CSFs:                     4255903

 Length of J-op  integral file:               0.00 MB
 Length of K-op  integral file:              37.04 MB
 Length of 3-ext integral record:             0.00 MB

 For full I/O caching in triples, increase memory by 535.09 Mwords to 2535.14 Mwords.

 Integral transformation finished. Total CPU:2209.45 sec, npass=  1  Memory used:1010.01 MW

 Reference energy:                    -76.06339128

 MP2 singlet pair energy:              -0.19251684
 MP2 triplet pair energy:              -0.10244487
 MP2 correlation energy:               -0.29496171
 MP2 total energy:                    -76.35835298

 SCS-MP2 correlation energy:           -0.29476368   (PS=  1.200000  PT=  0.333333)
 SCS-MP2 total energy:                -76.35815496

 ITER.      SQ.NORM     CORR.ENERGY   TOTAL ENERGY   ENERGY CHANGE        DEN1      VAR(S)    VAR(P)  DIIS     TIME  TIME/IT
   1      1.06457741    -0.29478853   -76.35817980     0.00017318     0.00620399  0.83D-03  0.11D-02  1  1  2727.68   549.94
   2      1.06822463    -0.29503259   -76.35842386    -0.00024406    -0.00501871  0.16D-04  0.12D-03  2  2  3253.25   554.38
   3      1.06970450    -0.29511638   -76.35850766    -0.00008380    -0.00104996  0.83D-05  0.70D-05  3  3  3780.37   555.39
   4      1.07020601    -0.29511491   -76.35850618     0.00000148    -0.00024227  0.53D-06  0.77D-06  4  4  4307.25   555.75
   5      1.07031429    -0.29511325   -76.35850453     0.00000165    -0.00003266  0.17D-06  0.53D-07  5  5  4834.63   555.87
   6      1.07035131    -0.29511059   -76.35850186     0.00000266    -0.00000811  0.17D-07  0.43D-08  6  6  5362.06   556.12
   7      1.07035912    -0.29511008   -76.35850135     0.00000051    -0.00000069  0.12D-08  0.63D-09  6  1  5888.57   556.29
   8      1.07036071    -0.29511000   -76.35850128     0.00000008     0.00000008  0.19D-09  0.72D-10  6  2  6409.79   557.00
   9      1.07036137    -0.29510995   -76.35850123     0.00000005    -0.00000000  0.12D-10  0.74D-11  6  3  6936.82   557.25
  10      1.07036145    -0.29510995   -76.35850122     0.00000000     0.00000005  0.19D-11  0.84D-12  6  4  7470.23   557.93
  11      1.07036144    -0.29510995   -76.35850122    -0.00000000     0.00000002  0.40D-12  0.14D-12  6  5  8004.75   558.58
  12      1.07036143    -0.29510995   -76.35850123    -0.00000000     0.00000001  0.81D-13  0.21D-13  6  6  8538.78   559.11
  13      1.07036142    -0.29510995   -76.35850123    -0.00000000     0.00000000  0.12D-13  0.37D-14  6  1  9062.06   559.08
  14      1.07036142    -0.29510995   -76.35850123    -0.00000000     0.00000000  0.13D-14  0.72D-15  6  2  9586.04   559.01
  15      1.07036142    -0.29510995   -76.35850123    -0.00000000     0.00000000  0.15D-15  0.97D-16  6  3 10113.70   559.14
  16      1.07036142    -0.29510995   -76.35850123    -0.00000000     0.00000000  0.19D-16  0.14D-16  6  4 10639.84   559.08

 Norm of t1 vector:      0.03808057      S-energy:    -0.00000000      T1 diagnostic:  0.00952014
                                                                       D1 diagnostic:  0.01968942

   CPU time for triples:   1927.77 sec for i =  1 -  3 /  4 (~  43.8 % done)
   CPU time for triples:   1936.01 sec for i =  4 -  4 /  4 (  100.0 % done)

 Total CPU time for triples:   3874.18 sec


 RESULTS
 =======

  Reference energy                    -76.063391275330
  CCSD singlet pair energy             -0.204668982332
  CCSD triplet pair energy             -0.090440968405
  CCSD correlation energy              -0.295109951375

  Triples (T) contribution             -0.009940216267
  Total correlation energy             -0.305050167642

  CCSD total energy                   -76.358501226704
  CCSD[T] energy                      -76.368760612065
  CCSD-T energy                       -76.368293276599
 !CCSD(T) total energy                -76.368441442971

 Timing summary (sec):

 STEP                 CPU(USER)    SYS     CPU(TOT)    WALL
 Transformation       2211.77    112.47   2324.24   2330.42
 CCSD iterations      8428.45    460.78   8889.23   8946.75
 Triples              3874.18    166.26   4040.44   4050.72

 Program statistics:

 Available memory in ccsd:              1999999921
 Min. memory needed in ccsd:              19268142
 Max. memory used in ccsd:                22427508
 Max. memory used in cckext:              14646566 (16 integral passes)



 **********************************************************************************************************************************
 DATASETS  * FILE   NREC   LENGTH (MB)   RECORD NAMES
              1      19     6330.40       500      610      700      900      950      970     1000      129      960     1100   
                                          VAR    BASINP    GEOM    SYMINP    ZMAT    AOBASIS   BASIS     P2S    ABASIS      S 
                                         1400     1410     1200     1210     1080     1600     1650     1700     1380   
                                           T        V       H0       H01     AOSYM     SMH    MOLCAS    OPER     JKOP   

              2       6       38.39       700     1000      520     2100      200     2101   
                                         GEOM     BASIS   MCVARS     RHF    OPTIONS    RHF  

 PROGRAMS   *        TOTAL   CCSD(T)    HF-SCF       INT   CCSD(T)    HF-SCF       INT
 CPU TIMES  *     77977.10  14514.66   3885.37      0.95  52777.41   4339.94   2458.48
 REAL TIME  *     82587.72 SEC
 DISK USED  *        14.28 GB (local),      515.59 GB (total)
 SF USED    *        13.87 GB
 GA USED    *         0.00 MB       (max)       0.00 MB       (current)
 **********************************************************************************************************************************

 Running procedure: SET_MONOMER2

 Dummy atoms: O17  H33  H34


 Recomputing one-electron integrals since nuclear charges changed


 PROGRAM * SEWARD (Integral evaluation for generally contracted gaussian basis sets)     Author: Roland Lindh, 1990

 Geometry written to block  1 of record 700


 Point group  C1  



 ATOMIC COORDINATES

 NR  ATOM    CHARGE       X              Y              Z

   1  O17     0.00   -8.342762895    8.383580979    6.757282676
   2  H33     0.00   -7.349144898    9.034591629    5.278760956
   3  H34     0.00   -8.743006888    9.863803452    7.746365330
   4  C1      6.00   -6.193010455    2.801518980    2.403542658
   5  H41     1.00   -4.656285171    1.699997622    3.119937832
   6  H42     1.00   -5.973046335    4.726205038    2.982932688
   7  H43     1.00   -7.940251230    2.077186956    3.118237078
   8  H44     1.00   -6.176569838    2.685300823    0.384937212

 Bond lengths in Bohr (Angstrom)

 1-2  1.896606987  1-3  1.824702255  4-5  2.021904040  4-6  2.022002335  4-7  2.021953343
     ( 1.003641196)     ( 0.965590850)     ( 1.069945541)     ( 1.069997556)     ( 1.069971630)

 4-8  2.022015060
     ( 1.070004290)

 Bond angles

  2-1-3  105.01239280   5-4-6  109.53398059   5-4-7  109.65604535   5-4-8  108.43490854

  6-4-7  109.49436728   6-4-8  109.86987750   7-4-8  109.83468330

 NUCLEAR CHARGE:                   10
 NUMBER OF PRIMITIVE AOS:        1046
 NUMBER OF SYMMETRY AOS:          786
 NUMBER OF CONTRACTIONS:          734   (  734A   )
 NUMBER OF CORE ORBITALS:           1   (    1A   )
 NUMBER OF VALENCE ORBITALS:        8   (    8A   )

 MOLECULE CHANGED: INITIALIZING OCCUPATION AND DUMP RECORDS


 NUCLEAR REPULSION ENERGY   13.68681606

 Basis set:  JKFIT                   
 Basis size:  1104
 Attributes:
 Sphericals:   T
 Basis set:  MP2FIT                  
 Basis size:  1246
 Attributes:
 Sphericals:   T
 Basis set:  RI                      
 Basis size:   730
 Attributes:
 Sphericals:   T
 Basis set:  TDDFT                   
 Basis size:  1246
 Attributes:
 Sphericals:   T

 Eigenvalues of metric

         1 0.160E-05 0.204E-05 0.336E-05 0.446E-05 0.525E-05 0.642E-05 0.880E-05 0.951E-05


 Contracted 2-electron integrals neglected if value below      1.0D-14

 OPERATOR DM      FOR CENTER  0  COORDINATES:    0.000000    0.000000    0.000000


 **********************************************************************************************************************************
 DATASETS  * FILE   NREC   LENGTH (MB)   RECORD NAMES
              1      18       49.80       500      610      700      900      950      970     1000      129      960     1100   
                                          VAR    BASINP    GEOM    SYMINP    ZMAT    AOBASIS   BASIS     P2S    ABASIS      S 
                                         1400     1410     1200     1210     1080     1600     1650     1700   
                                           T        V       H0       H01     AOSYM     SMH    MOLCAS    OPER   

              2       6       38.39       700     1000      520     2100      200     2101   
                                         GEOM     BASIS   MCVARS     RHF    OPTIONS    RHF  

 PROGRAMS   *        TOTAL       INT   CCSD(T)    HF-SCF       INT   CCSD(T)    HF-SCF       INT
 CPU TIMES  *     77978.06      0.95  14514.66   3885.37      0.95  52777.41   4339.94   2458.48
 REAL TIME  *     82589.90 SEC
 DISK USED  *        14.28 GB (local),      515.59 GB (total)
 SF USED    *        13.87 GB
 GA USED    *         0.00 MB       (max)       0.00 MB       (current)
 **********************************************************************************************************************************


 PROGRAM * RHF-SCF (CLOSED SHELL)       Authors: W. Meyer, H.-J. Werner


 NUMBER OF ELECTRONS:       5+    5-    SPACE SYMMETRY=1    SPIN SYMMETRY: Singlet 
 CONVERGENCE THRESHOLDS:    1.00E-08 (Density)    1.00E-11 (Energy)
 MAX. NUMBER OF ITERATIONS:       60
 INTERPOLATION TYPE:            DIIS
 INTERPOLATION STEPS:              2 (START)      1 (STEP)
 LEVEL SHIFTS:                  0.00 (CLOSED)  0.00 (OPEN) 



 Orbital guess generated from atomic densities. Full valence occupancy:    9

 Molecular orbital dump at record        2102.2

 Initial occupancy:   5

 ITERATION    DDIFF          GRAD             ENERGY        2-EL.EN.            DIPOLE MOMENTS         DIIS   ORB.
    1      0.000D+00      0.000D+00       -40.19676538     53.509905    0.00411   -0.00276   -0.00131    0    start
    2      0.000D+00      0.198D-02       -40.21405759     52.218481    0.00128   -0.00088   -0.00039    1    diag
    3      0.949D-03      0.769D-03       -40.21634101     52.673987    0.00182   -0.00124   -0.00055    2    diag
    4      0.260D-03      0.192D-03       -40.21666134     52.619250    0.00162   -0.00110   -0.00049    3    diag
    5      0.102D-03      0.248D-04       -40.21666682     52.621408    0.00159   -0.00109   -0.00048    4    diag
    6      0.352D-04      0.204D-05       -40.21666687     52.621536    0.00159   -0.00109   -0.00048    5    diag
    7      0.602D-05      0.166D-06       -40.21666687     52.621499    0.00159   -0.00108   -0.00048    6    diag
    8      0.339D-06      0.136D-07       -40.21666687     52.621499    0.00159   -0.00108   -0.00048    7    diag
    9      0.581D-07      0.167D-08       -40.21666687     52.621499    0.00159   -0.00108   -0.00048    8    diag
   10      0.105D-07      0.465D-09       -40.21666687     52.621499    0.00159   -0.00108   -0.00048    9    orth
   11      0.108D-08      0.667D-10       -40.21666687     52.621499    0.00159   -0.00108   -0.00048    0    orth

 Final occupancy:   5

 !RHF STATE  1.1 Energy               -40.216666865531
 Nuclear energy                        13.68681606
 One-electron energy                  -80.21423246
 Two-electron energy                   26.31074954
 Virial quotient                       -0.99832813
 !RHF STATE  1.1 Dipole moment          0.00158674    -0.00108482    -0.00047683
 Dipole moment /Debye                   0.00403282    -0.00275716    -0.00121190

 Orbital energies:

         1.1          2.1          3.1          4.1          5.1          6.1          7.1
    -11.196017    -0.950605    -0.551931    -0.549996    -0.547818     0.020609     0.031167


 HOMO      5.1    -0.547818 =     -14.9069eV
 LUMO      6.1     0.020609 =       0.5608eV
 LUMO-HOMO         0.568427 =      15.4677eV


 **********************************************************************************************************************************
 DATASETS  * FILE   NREC   LENGTH (MB)   RECORD NAMES
              1      18       49.80       500      610      700      900      950      970     1000      129      960     1100   
                                          VAR    BASINP    GEOM    SYMINP    ZMAT    AOBASIS   BASIS     P2S    ABASIS      S 
                                         1400     1410     1200     1210     1080     1600     1650     1700   
                                           T        V       H0       H01     AOSYM     SMH    MOLCAS    OPER   

              2       7       62.47       700     1000      520     2100      200     2101     2102   
                                         GEOM     BASIS   MCVARS     RHF    OPTIONS    RHF      RHF  

 PROGRAMS   *        TOTAL    HF-SCF       INT   CCSD(T)    HF-SCF       INT   CCSD(T)    HF-SCF       INT
 CPU TIMES  *     81920.28   3942.23      0.95  14514.66   3885.37      0.95  52777.41   4339.94   2458.48
 REAL TIME  *     86941.10 SEC
 DISK USED  *        14.28 GB (local),      515.59 GB (total)
 SF USED    *        13.87 GB
 GA USED    *         0.00 MB       (max)       0.00 MB       (current)
 **********************************************************************************************************************************

 Basis set:  JKFIT                   
 Basis size:  1104
 Attributes:
 Sphericals:   T
 Basis set:  MP2FIT                  
 Basis size:  1246
 Attributes:
 Sphericals:   T
 Basis set:  RI                      
 Basis size:   730
 Attributes:
 Sphericals:   T
 Basis set:  TDDFT                   
 Basis size:  1246
 Attributes:
 Sphericals:   T

 PROGRAM * CCSD (Closed-shell coupled cluster)     Authors: C. Hampel, H.-J. Werner, 1991, M. Deegan, P.J. Knowles, 1992


 Convergence thresholds:  THRVAR = 1.00D-08  THRDEN = 1.00D-10

 CCSD(T)     terms to be evaluated (factor= 1.000)


 Number of core orbitals:           1 (   1 )
 Number of closed-shell orbitals:   4 (   4 )
 Number of external orbitals:     729 ( 729 )

 Molecular orbitals read from record     2102.2  Type=RHF/CANONICAL (state 1.1)

 Number of N-1 electron functions:               4
 Number of N-2 electron functions:              10
 Number of singly external CSFs:              2916
 Number of doubly external CSFs:           4252986
 Total number of CSFs:                     4255903

 Length of J-op  integral file:               0.00 MB
 Length of K-op  integral file:              37.04 MB
 Length of 3-ext integral record:             0.00 MB

 For full I/O caching in triples, increase memory by 535.09 Mwords to 2535.14 Mwords.

 Integral transformation finished. Total CPU:2153.29 sec, npass=  1  Memory used:1010.01 MW

 Reference energy:                    -40.21666687

 MP2 singlet pair energy:              -0.15787925
 MP2 triplet pair energy:              -0.05682297
 MP2 correlation energy:               -0.21470222
 MP2 total energy:                    -40.43136909

 SCS-MP2 correlation energy:           -0.22481162   (PS=  1.200000  PT=  0.333333)
 SCS-MP2 total energy:                -40.44147848

 ITER.      SQ.NORM     CORR.ENERGY   TOTAL ENERGY   ENERGY CHANGE        DEN1      VAR(S)    VAR(P)  DIIS     TIME  TIME/IT
   1      1.07073108    -0.22924379   -40.44591065    -0.01454157    -0.00880936  0.58D-03  0.96D-03  1  1  2663.50   550.17
   2      1.07565277    -0.23033852   -40.44700538    -0.00109473    -0.00537198  0.15D-04  0.11D-03  2  2  3173.66   555.97
   3      1.07738947    -0.23037902   -40.44704588    -0.00004050    -0.00128260  0.20D-05  0.63D-05  3  3  3694.04   556.33
   4      1.07777987    -0.23038075   -40.44704761    -0.00000173    -0.00020101  0.14D-06  0.35D-06  4  4  4217.14   564.67
   5      1.07783425    -0.23038451   -40.44705137    -0.00000376    -0.00001098  0.13D-07  0.24D-07  5  5  4736.78   570.56
   6      1.07784438    -0.23038319   -40.44705006     0.00000131    -0.00000413  0.78D-09  0.17D-08  6  6  5258.89   573.81
   7      1.07784571    -0.23038282   -40.44704968     0.00000038    -0.00000074  0.52D-10  0.13D-09  6  1  5786.09   576.10
   8      1.07784563    -0.23038287   -40.44704974    -0.00000006     0.00000024  0.56D-11  0.79D-11  6  3  6315.43   578.13
   9      1.07784577    -0.23038286   -40.44704972     0.00000002    -0.00000009  0.39D-12  0.56D-12  6  2  6822.74   577.60
  10      1.07784577    -0.23038285   -40.44704972     0.00000000     0.00000001  0.54D-13  0.60D-13  6  4  7327.61   577.07
  11      1.07784578    -0.23038285   -40.44704972     0.00000000     0.00000000  0.54D-14  0.63D-14  6  5  7840.26   576.66
  12      1.07784577    -0.23038285   -40.44704972     0.00000000     0.00000000  0.16D-15  0.65D-15  6  6  8352.47   575.68
  13      1.07784577    -0.23038285   -40.44704972    -0.00000000     0.00000000  0.16D-16  0.80D-16  6  1  8874.97   574.30
  14      1.07784577    -0.23038285   -40.44704972    -0.00000000     0.00000000  0.30D-17  0.15D-16  6  3  9401.69   573.52

 Norm of t1 vector:      0.03186008      S-energy:    -0.00000000      T1 diagnostic:  0.00796502
                                                                       D1 diagnostic:  0.01279377

 Total CPU time for triples:   3868.00 sec


 RESULTS
 =======

  Reference energy                    -40.216666865531
  CCSD singlet pair energy             -0.175400695655
  CCSD triplet pair energy             -0.054982157269
  CCSD correlation energy              -0.230382852925

  Triples (T) contribution             -0.007018788725
  Total correlation energy             -0.237401641651

  CCSD total energy                   -40.447049718456
  CCSD[T] energy                      -40.454292345991
  CCSD-T energy                       -40.454001552495
 !CCSD(T) total energy                -40.454068507182

 Timing summary (sec):

 STEP                 CPU(USER)    SYS     CPU(TOT)    WALL
 Transformation       2155.66    112.47   2268.13   2273.20
 CCSD iterations      7246.42    482.86   7729.28   8030.65
 Triples              3868.00    166.80   4034.80   4046.48

 Program statistics:

 Available memory in ccsd:              1999999916
 Min. memory needed in ccsd:              19268142
 Max. memory used in ccsd:                22427508
 Max. memory used in cckext:              14646566 (14 integral passes)



 **********************************************************************************************************************************
 DATASETS  * FILE   NREC   LENGTH (MB)   RECORD NAMES
              1      19     6330.40       500      610      700      900      950      970     1000      129      960     1100   
                                          VAR    BASINP    GEOM    SYMINP    ZMAT    AOBASIS   BASIS     P2S    ABASIS      S 
                                         1400     1410     1200     1210     1080     1600     1650     1700     1380   
                                           T        V       H0       H01     AOSYM     SMH    MOLCAS    OPER     JKOP   

              2       7       62.47       700     1000      520     2100      200     2101     2102   
                                         GEOM     BASIS   MCVARS     RHF    OPTIONS    RHF      RHF  

 PROGRAMS   *        TOTAL   CCSD(T)    HF-SCF       INT   CCSD(T)    HF-SCF       INT   CCSD(T)    HF-SCF       INT
 CPU TIMES  *     95190.68  13270.39   3942.23      0.95  14514.66   3885.37      0.95  52777.41   4339.94   2458.48
 REAL TIME  *    101292.34 SEC
 DISK USED  *        14.28 GB (local),      515.59 GB (total)
 SF USED    *        13.87 GB
 GA USED    *         0.00 MB       (max)       0.00 MB       (current)
 **********************************************************************************************************************************
 Molecular orbitals read from record     2102.2  Type=RHF/CANONICAL (state 1.1)
 Occupation numbers read from record     2102.2  Type=RHF/RHF (state 1.1)
 Orbital energies read from record       2102.2  Type=RHF/CANONICAL (state 1.1)
 Redundancy group numbers read from rec  2102.2  Type=RHF/RHF (state 1.1)

 CCSD(T)/aug-cc-pV5Z energy=    -40.454068507182

         CCSD(T)          HF-SCF         CCSD(T)          HF-SCF         CCSD(T)          HF-SCF
    -40.45406851    -40.21666687    -76.36844144    -76.06339128   -116.82277021   -116.27958481
 **********************************************************************************************************************************
 Molpro calculation terminated
