
 Primary working directories    : /scratch/klimes/415922/molpro.ifZPsCQlXh
 Secondary working directories  : /scratch/klimes/415922/molpro.ifZPsCQlXh
 Wavefunction directory         : /scratch/klimes/415922/
 Main file repository           : /scratch/klimes/415922/molpro.ifZPsCQlXh/

 id        : karlovklimes

 Nodes                      nprocs
 nc-07.cc.karlov.mff.cuni.cz    4

 Using customized tuning parameters: mindgm=1; mindgv=20; mindgc=4; mindgr=1; noblas=0; minvec=7
 default implementation of scratch files=sf  


 Variables initialized (930), CPU time= 0.01 sec
                                                                                 !gdirect
 memory,2000,m
 gthresh,orbital=1d-10,energy=1d-10,grid=1d-8
 
 symmetry,nosym
 angstrom
 geometry={
 O18        -6.356200000000      0.392700000000      3.232000000000
 H35        -6.218200000000     -0.218800000000      2.485700000000
 H36        -5.588500000000      0.246100000000      3.819100000000
 C1        -3.277200000000      1.482500000000      1.271900000000
 H41        -2.464000000000      0.899600000000      1.651000000000
 H42        -3.160800000000      2.501000000000      1.578500000000
 H43        -4.201800000000      1.099200000000      1.650100000000
 H44        -3.268500000000      1.421000000000      0.203700000000
 }
 
 nkerna=1
 nkernb=1
 
 gf=0
 sing=1
 thrdum=1d-4
 gridthr=1d-8
 
 basis={
 set,orbital
 default,av5z
 set,jkfit
 default,av5z/jkfit
 set,mp2fit
 default,av5z/mp2fit
 set,ri
 default,av5z/optri
 set,tddft
 default,av5z/mp2fit
 }
 
 proc set_monomer1
 dummy,4,5,6,7,8
 endproc
 
 proc set_monomer2
 dummy,1,2,3
 endproc
 
                                                                                 !1234 energy
 {hf,accu=1.d-16}
 ccsd(t)
 
 set_monomer1
 {hf,accu=1.d-16}
 ccsd(t)
 
 set_monomer2
 {hf,accu=1.d-16}
 ccsd(t)
 
 Commands  initialized (760), CPU time= 0.02 sec, 617 directives.
 Default parameters read. Elapsed time= 0.17 sec

 Checking input...
 Passed
1


                                         ***  PROGRAM SYSTEM MOLPRO  ***
                                       Copyright, TTI GmbH Stuttgart, 2015
                                    Version 2019.1 linked Jan 14 2019 13:09:19


 **********************************************************************************************************************************
 LABEL *                                                                                 
  64 bit mpp version                                                                     DATE: 16-Mar-20          TIME: 11:02:32  
 **********************************************************************************************************************************

 SHA1:             d688ac825633d238f2093ded1675ba87ccd55965
 **********************************************************************************************************************************

 THRESHOLDS:

 ZERO    =  1.00D-12  ONEINT  =  1.00D-12  TWOINT  =  1.00D-11  PREFAC  =  1.00D-14  XXXXXX  =  1.00D-09  EORDER  =  1.00D-04
 ENERGY  =  1.00D-10  ETEST   =  0.00D+00  EDENS   =  0.00D+00  THRDEDEF=  1.00D-06  GRADIENT=  1.00D-02  STEP    =  1.00D-03
 ORBITAL =  1.00D-10  CIVEC   =  1.00D-05  COEFF   =  1.00D-04  PRINTCI =  5.00D-02  PUNCHCI =  9.90D+01  OPTGRAD =  3.00D-04
 OPTENERG=  1.00D-06  OPTSTEP =  3.00D-04  THRGRAD =  1.00D-10  COMPRESS=  1.00D-11  VARMIN  =  1.00D-07  VARMAX  =  1.00D-03
 THRDOUB =  0.00D+00  THRDIV  =  1.00D-05  THRRED  =  1.00D-07  THRPSP  =  1.00D+00  THRDC   =  1.00D-10  THRCS   =  1.00D-10
 THRNRM  =  1.00D-08  THREQ   =  0.00D+00  THRDE   =  1.00D+00  THRREF  =  1.00D-05  SPARFAC =  1.00D+00  THRDLP  =  1.00D-07
 THRDIA  =  1.00D-10  THRDLS  =  1.00D-07  THRGPS  =  0.00D+00  THRKEX  =  0.00D+00  THRDIS  =  2.00D-01  THRVAR  =  1.00D-10
 THRLOC  =  1.00D-06  THRGAP  =  1.00D-06  THRLOCT = -1.00D+00  THRGAPT = -1.00D+00  THRORB  =  1.00D-06  THRMLTP =  0.00D+00
 THRCPQCI=  1.00D-10  KEXTA   =  0.00D+00  THRCOARS=  0.00D+00  SYMTOL  =  1.00D-06  GRADTOL =  1.00D-06  THROVL  =  1.00D-08
 THRORTH =  1.00D-08  GRID    =  1.00D-08  GRIDMAX =  1.00D-03  DTMAX   =  0.00D+00  THROCCDE=  1.00D-01  THROCCDE=  1.00D-01
 THRPRINT=  2.50D-01


 Variable memory set to 2000000000 words,  buffer space 

 ZSYMEL=NOSYM
 ZUNIT=ANG


Geometry recognized as XYZ

 SETTING NKERNA         =         1.00000000                                  
 SETTING NKERNB         =         1.00000000                                  
 SETTING GF             =     0.00000000D+00                                  
 SETTING SING           =         1.00000000                                  
 SETTING THRDUM         =     1.00000000D-04                                  
 SETTING GRIDTHR        =     1.00000000D-08                                  
 SETTING BASIS          =    AV5Z


 Recomputing integrals since basis changed


 Using spherical harmonics

 Library entry O      S aug-cc-pV5Z          selected for orbital group  1
 Library entry O      P aug-cc-pV5Z          selected for orbital group  1
 Library entry O      D aug-cc-pV5Z          selected for orbital group  1
 Library entry O      F aug-cc-pV5Z          selected for orbital group  1
 Library entry O      G aug-cc-pV5Z          selected for orbital group  1
 Library entry O      H aug-cc-pV5Z          selected for orbital group  1
 Library entry H      S aug-cc-pV5Z          selected for orbital group  2
 Library entry H      P aug-cc-pV5Z          selected for orbital group  2
 Library entry H      D aug-cc-pV5Z          selected for orbital group  2
 Library entry H      F aug-cc-pV5Z          selected for orbital group  2
 Library entry H      G aug-cc-pV5Z          selected for orbital group  2
 Library entry C      S aug-cc-pV5Z          selected for orbital group  3
 Library entry C      P aug-cc-pV5Z          selected for orbital group  3
 Library entry C      D aug-cc-pV5Z          selected for orbital group  3
 Library entry C      F aug-cc-pV5Z          selected for orbital group  3
 Library entry C      G aug-cc-pV5Z          selected for orbital group  3
 Library entry C      H aug-cc-pV5Z          selected for orbital group  3


 PROGRAM * SEWARD (Integral evaluation for generally contracted gaussian basis sets)     Author: Roland Lindh, 1990

 Geometry written to block  1 of record 700


 Point group  C1  



 ATOMIC COORDINATES

 NR  ATOM    CHARGE       X              Y              Z

   1  O18     8.00  -12.011477193    0.742095449    6.107594835
   2  H35     1.00  -11.750694988   -0.413472076    4.697292228
   3  H36     1.00  -10.560734447    0.465061599    7.217053042
   4  C1      6.00   -6.193010455    2.801518980    2.403542658
   5  H41     1.00   -4.656285171    1.699997622    3.119937832
   6  H42     1.00   -5.973046335    4.726205038    2.982932688
   7  H43     1.00   -7.940251230    2.077186956    3.118237078
   8  H44     1.00   -6.176569838    2.685300823    0.384937212

 Bond lengths in Bohr (Angstrom)

 1-2  1.841818967  1-3  1.847241128  4-5  2.021904040  4-6  2.022002335  4-7  2.021953343
     ( 0.974648624)     ( 0.977517908)     ( 1.069945541)     ( 1.069997556)     ( 1.069971630)

 4-8  2.022015060
     ( 1.070004290)

 Bond angles

  2-1-3  104.74973043   5-4-6  109.53398059   5-4-7  109.65604535   5-4-8  108.43490854

  6-4-7  109.49436728   6-4-8  109.86987750   7-4-8  109.83468330

 NUCLEAR CHARGE:                   20
 NUMBER OF PRIMITIVE AOS:        1046
 NUMBER OF SYMMETRY AOS:          786
 NUMBER OF CONTRACTIONS:          734   (  734A   )
 NUMBER OF CORE ORBITALS:           2   (    2A   )
 NUMBER OF VALENCE ORBITALS:       14   (   14A   )


 NUCLEAR REPULSION ENERGY   36.79874832


 Basis set:  JKFIT                   
 Basis size:  1104
 Attributes:
 Sphericals:   T
 Basis set:  MP2FIT                  
 Basis size:  1246
 Attributes:
 Sphericals:   T
 Basis set:  RI                      
 Basis size:   730
 Attributes:
 Sphericals:   T
 Basis set:  TDDFT                   
 Basis size:  1246
 Attributes:
 Sphericals:   T

 **********************************************************************************************************************************


 Eigenvalues of metric

         1 0.990E-06 0.190E-05 0.289E-05 0.378E-05 0.485E-05 0.637E-05 0.795E-05 0.886E-05


 Contracted 2-electron integrals neglected if value below      1.0D-14
 AO integral compression algorithm  1   Integral accuracy      1.0D-14

     159417.369 MB (compressed) written to integral file ( 50.5%)

     Node minimum: 37393.793 MB, node maximum: 46044.545 MB


 NUMBER OF SORTED TWO-ELECTRON INTEGRALS: 9095363064.     BUFFER LENGTH:  32768
 NUMBER OF SEGMENTS: 190  SEGMENT LENGTH:   47999780      RECORD LENGTH: 131072

 Memory used in sort:      48.16 MW

 SORT1 READ 39471948705. AND WROTE  7176121870. INTEGRALS IN  82220 RECORDS. CPU TIME:  1038.47 SEC, REAL TIME:  1185.18 SEC
 SORT2 READ 28717742426. AND WROTE 36381317385. INTEGRALS IN 574744 RECORDS. CPU TIME:   114.26 SEC, REAL TIME:   779.68 SEC

 Node minimum:  9095228192.  Node maximum:  9095430501. integrals

 OPERATOR DM      FOR CENTER  0  COORDINATES:    0.000000    0.000000    0.000000


 **********************************************************************************************************************************
 DATASETS  * FILE   NREC   LENGTH (MB)   RECORD NAMES
              1      18       49.80       500      610      700      900      950      970     1000      129      960     1100   
                                          VAR    BASINP    GEOM    SYMINP    ZMAT    AOBASIS   BASIS     P2S    ABASIS      S 
                                         1400     1410     1200     1210     1080     1600     1650     1700   
                                           T        V       H0       H01     AOSYM     SMH    MOLCAS    OPER   

 PROGRAMS   *        TOTAL       INT
 CPU TIMES  *      2219.90   2219.63
 REAL TIME  *      3119.54 SEC
 DISK USED  *        50.44 MB (local),      503.86 GB (total)
 GA USED    *         0.00 MB       (max)       0.00 MB       (current)
 **********************************************************************************************************************************


 PROGRAM * RHF-SCF (CLOSED SHELL)       Authors: W. Meyer, H.-J. Werner


 NUMBER OF ELECTRONS:      10+   10-    SPACE SYMMETRY=1    SPIN SYMMETRY: Singlet 
 CONVERGENCE THRESHOLDS:    1.00E-08 (Density)    1.00E-11 (Energy)
 MAX. NUMBER OF ITERATIONS:       60
 INTERPOLATION TYPE:            DIIS
 INTERPOLATION STEPS:              2 (START)      1 (STEP)
 LEVEL SHIFTS:                  0.00 (CLOSED)  0.00 (OPEN) 



 Orbital guess generated from atomic densities. Full valence occupancy:   16

 Molecular orbital dump at record        2100.2

 Initial occupancy:  10

 ITERATION    DDIFF          GRAD             ENERGY        2-EL.EN.            DIPOLE MOMENTS         DIIS   ORB.
    1      0.000D+00      0.000D+00      -116.22300923    158.960933    0.87210   -0.73696   -0.14829    0    start
    2      0.000D+00      0.291D-02      -116.26714975    154.183213    0.49261   -0.38994   -0.08910    1    diag
    3      0.162D-02      0.169D-02      -116.28050093    156.190721    0.58768   -0.47977   -0.10356    2    diag
    4      0.554D-03      0.255D-03      -116.28116038    156.076753    0.57838   -0.47391   -0.10191    3    diag
    5      0.130D-03      0.748D-04      -116.28123021    156.072349    0.57805   -0.47326   -0.10224    4    diag
    6      0.533D-04      0.183D-04      -116.28123425    156.077935    0.57753   -0.47265   -0.10235    5    diag
    7      0.186D-04      0.381D-05      -116.28123450    156.076214    0.57759   -0.47263   -0.10242    6    diag
    8      0.520D-05      0.980D-06      -116.28123452    156.076401    0.57757   -0.47257   -0.10245    7    diag
    9      0.116D-05      0.225D-06      -116.28123452    156.076371    0.57756   -0.47255   -0.10245    8    diag
   10      0.309D-06      0.282D-07      -116.28123452    156.076372    0.57756   -0.47254   -0.10245    9    orth
   11      0.546D-07      0.742D-08      -116.28123452    156.076373    0.57756   -0.47254   -0.10245    9    diag
   12      0.642D-08      0.214D-08      -116.28123452    156.076373    0.57756   -0.47254   -0.10245    0    orth

 Final occupancy:  10

 !RHF STATE  1.1 Energy              -116.281234524826
 Nuclear energy                        36.79874832
 One-electron energy                 -231.11816951
 Two-electron energy                   78.03818666
 Virial quotient                       -1.00054159
 !RHF STATE  1.1 Dipole moment          0.57756283    -0.47254262    -0.10245270
 Dipole moment /Debye                   1.46792213    -1.20100488    -0.26039173

 Orbital energies:

         1.1          2.1          3.1          4.1          5.1          6.1          7.1          8.1          9.1         10.1
    -20.567719   -11.197909    -1.344046    -0.953092    -0.708943    -0.582773    -0.555232    -0.552803    -0.550540    -0.507841

        11.1         12.1
      0.019273     0.032445


 HOMO     10.1    -0.507841 =     -13.8191eV
 LUMO     11.1     0.019273 =       0.5244eV
 LUMO-HOMO         0.527114 =      14.3435eV


 **********************************************************************************************************************************
 DATASETS  * FILE   NREC   LENGTH (MB)   RECORD NAMES
              1      18       49.80       500      610      700      900      950      970     1000      129      960     1100   
                                          VAR    BASINP    GEOM    SYMINP    ZMAT    AOBASIS   BASIS     P2S    ABASIS      S 
                                         1400     1410     1200     1210     1080     1600     1650     1700   
                                           T        V       H0       H01     AOSYM     SMH    MOLCAS    OPER   

              2       4       13.79       700     1000      520     2100   
                                         GEOM     BASIS   MCVARS     RHF  

 PROGRAMS   *        TOTAL    HF-SCF       INT
 CPU TIMES  *      5255.50   3035.59   2219.63
 REAL TIME  *      6414.04 SEC
 DISK USED  *       102.61 MB (local),      504.07 GB (total)
 SF USED    *         2.16 MB
 GA USED    *         0.00 MB       (max)       0.00 MB       (current)
 **********************************************************************************************************************************

 Basis set:  JKFIT                   
 Basis size:  1104
 Attributes:
 Sphericals:   T
 Basis set:  MP2FIT                  
 Basis size:  1246
 Attributes:
 Sphericals:   T
 Basis set:  RI                      
 Basis size:   730
 Attributes:
 Sphericals:   T
 Basis set:  TDDFT                   
 Basis size:  1246
 Attributes:
 Sphericals:   T

 PROGRAM * CCSD (Closed-shell coupled cluster)     Authors: C. Hampel, H.-J. Werner, 1991, M. Deegan, P.J. Knowles, 1992


 Convergence thresholds:  THRVAR = 1.00D-08  THRDEN = 1.00D-10

 CCSD(T)     terms to be evaluated (factor= 1.000)


 Number of core orbitals:           2 (   2 )
 Number of closed-shell orbitals:   8 (   8 )
 Number of external orbitals:     724 ( 724 )

 Molecular orbitals read from record     2100.2  Type=RHF/CANONICAL (state 1.1)

 Number of N-1 electron functions:               8
 Number of N-2 electron functions:              36
 Number of singly external CSFs:              5792
 Number of doubly external CSFs:          16776528
 Total number of CSFs:                    16782321

 Length of J-op  integral file:               0.00 MB
 Length of K-op  integral file:              37.04 MB
 Length of 3-ext integral record:             0.00 MB

 For full I/O caching in triples, increase memory by 2034.74 Mwords to 4034.79 Mwords.

 Integral transformation finished. Total CPU:2785.61 sec, npass=  1  Memory used:1826.26 MW

 Reference energy:                   -116.28123452

 MP2 singlet pair energy:              -0.35024953
 MP2 triplet pair energy:              -0.15983695
 MP2 correlation energy:               -0.51008648
 MP2 total energy:                   -116.79132101

 SCS-MP2 correlation energy:           -0.51975354   (PS=  1.200000  PT=  0.333333)
 SCS-MP2 total energy:               -116.80098806

 ITER.      SQ.NORM     CORR.ENERGY   TOTAL ENERGY   ENERGY CHANGE        DEN1      VAR(S)    VAR(P)  DIIS     TIME  TIME/IT
   1      1.13508318    -0.52450147  -116.80573599    -0.01441499    -0.00274605  0.14D-02  0.20D-02  1  1  3944.56  1183.72
   2      1.14346005    -0.52583031  -116.80706484    -0.00132885    -0.01023526  0.31D-04  0.25D-03  2  2  5111.21  1187.94
   3      1.14674292    -0.52595361  -116.80718813    -0.00012330    -0.00236157  0.12D-04  0.13D-04  3  3  6281.40  1190.93
   4      1.14764565    -0.52594912  -116.80718365     0.00000449    -0.00045886  0.65D-06  0.13D-05  4  4  7444.18  1191.52
   5      1.14781337    -0.52595095  -116.80718547    -0.00000183    -0.00004520  0.21D-06  0.92D-07  5  5  8610.14  1192.12
   6      1.14786198    -0.52594797  -116.80718249     0.00000298    -0.00001056  0.22D-07  0.78D-08  6  6  9772.81  1192.42
   7      1.14787280    -0.52594667  -116.80718120     0.00000130    -0.00000233  0.21D-08  0.11D-08  6  2 10938.55  1192.68
   8      1.14787536    -0.52594643  -116.80718096     0.00000024    -0.00000027  0.38D-09  0.12D-09  6  1 12099.97  1193.16
   9      1.14787631    -0.52594638  -116.80718091     0.00000005    -0.00000001  0.32D-10  0.17D-10  6  3 13263.32  1193.48
  10      1.14787646    -0.52594638  -116.80718091     0.00000000     0.00000009  0.34D-11  0.25D-11  6  4 14423.47  1194.09
  11      1.14787642    -0.52594639  -116.80718091    -0.00000001     0.00000007  0.60D-12  0.31D-12  6  5 15585.81  1194.23
  12      1.14787641    -0.52594639  -116.80718091    -0.00000000     0.00000002  0.10D-12  0.38D-13  6  6 16749.55  1194.28
  13      1.14787639    -0.52594639  -116.80718092    -0.00000000     0.00000001  0.20D-13  0.57D-14  6  2 17910.81  1194.42
  14      1.14787639    -0.52594639  -116.80718092    -0.00000000     0.00000000  0.35D-14  0.12D-14  6  1 19071.17  1194.47
  15      1.14787639    -0.52594639  -116.80718092    -0.00000000    -0.00000000  0.69D-15  0.24D-15  6  5 20236.06  1194.57
  16      1.14787639    -0.52594639  -116.80718092    -0.00000000    -0.00000000  0.14D-15  0.45D-16  6  3 21396.50  1194.73

 Norm of t1 vector:      0.05001405      S-energy:    -0.00000000      T1 diagnostic:  0.00884132
                                                                       D1 diagnostic:  0.02029154

   CPU time for triples:   3340.53 sec for i =  1 -  3 /  8 (~   6.2 % done)
   CPU time for triples:   3334.81 sec for i =  4 -  5 /  8 (~  26.8 % done)
   CPU time for triples:   5016.04 sec for i =  6 -  6 /  8 (~  44.6 % done)
   CPU time for triples:   5016.85 sec for i =  7 -  7 /  8 (~  68.8 % done)
   CPU time for triples:   6689.58 sec for i =  8 -  8 /  8 (  100.0 % done)

 Total CPU time for triples:  23438.21 sec


 RESULTS
 =======

  Reference energy                   -116.281234524823
  CCSD singlet pair energy             -0.379704984805
  CCSD triplet pair energy             -0.146241405540
  CCSD correlation energy              -0.525946390715

  Triples (T) contribution             -0.017066710727
  Total correlation energy             -0.543013101443

  CCSD total energy                  -116.807180915538
  CCSD[T] energy                     -116.824788553473
  CCSD-T energy                      -116.824032570633
 !CCSD(T) total energy               -116.824247626265

 Timing summary (sec):

 STEP                 CPU(USER)    SYS     CPU(TOT)    WALL
 Transformation       2791.86     84.73   2876.59   2894.12
 CCSD iterations     18605.06    360.55  18965.61  19116.89
 Triples             23438.21    428.89  23867.10  23891.98

 Program statistics:

 Available memory in ccsd:              1999999734
 Min. memory needed in ccsd:              48755833
 Max. memory used in ccsd:                63342105
 Max. memory used in cckext:              42809278 (16 integral passes)



 **********************************************************************************************************************************
 DATASETS  * FILE   NREC   LENGTH (MB)   RECORD NAMES
              1      19    12452.38       500      610      700      900      950      970     1000      129      960     1100   
                                          VAR    BASINP    GEOM    SYMINP    ZMAT    AOBASIS   BASIS     P2S    ABASIS      S 
                                         1400     1410     1200     1210     1080     1600     1650     1700     1380   
                                           T        V       H0       H01     AOSYM     SMH    MOLCAS    OPER     JKOP   

              2       4       13.79       700     1000      520     2100   
                                         GEOM     BASIS   MCVARS     RHF  

 PROGRAMS   *        TOTAL   CCSD(T)    HF-SCF       INT
 CPU TIMES  *     50090.91  44835.41   3035.59   2219.63
 REAL TIME  *     52319.22 SEC
 DISK USED  *        14.28 GB (local),      555.34 GB (total)
 SF USED    *        13.87 GB
 GA USED    *         0.00 MB       (max)       0.00 MB       (current)
 **********************************************************************************************************************************

 Running procedure: SET_MONOMER1

 Dummy atoms: C1  H41  H42  H43  H44


 Recomputing one-electron integrals since nuclear charges changed


 PROGRAM * SEWARD (Integral evaluation for generally contracted gaussian basis sets)     Author: Roland Lindh, 1990

 Geometry written to block  1 of record 700


 Point group  C1  



 ATOMIC COORDINATES

 NR  ATOM    CHARGE       X              Y              Z

   1  O18     8.00  -12.011477193    0.742095449    6.107594835
   2  H35     1.00  -11.750694988   -0.413472076    4.697292228
   3  H36     1.00  -10.560734447    0.465061599    7.217053042
   4  C1      0.00   -6.193010455    2.801518980    2.403542658
   5  H41     0.00   -4.656285171    1.699997622    3.119937832
   6  H42     0.00   -5.973046335    4.726205038    2.982932688
   7  H43     0.00   -7.940251230    2.077186956    3.118237078
   8  H44     0.00   -6.176569838    2.685300823    0.384937212

 Bond lengths in Bohr (Angstrom)

 1-2  1.841818967  1-3  1.847241128  4-5  2.021904040  4-6  2.022002335  4-7  2.021953343
     ( 0.974648624)     ( 0.977517908)     ( 1.069945541)     ( 1.069997556)     ( 1.069971630)

 4-8  2.022015060
     ( 1.070004290)

 Bond angles

  2-1-3  104.74973043   5-4-6  109.53398059   5-4-7  109.65604535   5-4-8  108.43490854

  6-4-7  109.49436728   6-4-8  109.86987750   7-4-8  109.83468330

 NUCLEAR CHARGE:                   10
 NUMBER OF PRIMITIVE AOS:        1046
 NUMBER OF SYMMETRY AOS:          786
 NUMBER OF CONTRACTIONS:          734   (  734A   )
 NUMBER OF CORE ORBITALS:           1   (    1A   )
 NUMBER OF VALENCE ORBITALS:        6   (    6A   )

 MOLECULE CHANGED: INITIALIZING OCCUPATION AND DUMP RECORDS


 NUCLEAR REPULSION ENERGY    9.01656758

 Basis set:  JKFIT                   
 Basis size:  1104
 Attributes:
 Sphericals:   T
 Basis set:  MP2FIT                  
 Basis size:  1246
 Attributes:
 Sphericals:   T
 Basis set:  RI                      
 Basis size:   730
 Attributes:
 Sphericals:   T
 Basis set:  TDDFT                   
 Basis size:  1246
 Attributes:
 Sphericals:   T

 Eigenvalues of metric

         1 0.990E-06 0.190E-05 0.289E-05 0.378E-05 0.485E-05 0.637E-05 0.795E-05 0.886E-05


 Contracted 2-electron integrals neglected if value below      1.0D-14

 OPERATOR DM      FOR CENTER  0  COORDINATES:    0.000000    0.000000    0.000000


 **********************************************************************************************************************************
 DATASETS  * FILE   NREC   LENGTH (MB)   RECORD NAMES
              1      18       49.80       500      610      700      900      950      970     1000      129      960     1100   
                                          VAR    BASINP    GEOM    SYMINP    ZMAT    AOBASIS   BASIS     P2S    ABASIS      S 
                                         1400     1410     1200     1210     1080     1600     1650     1700   
                                           T        V       H0       H01     AOSYM     SMH    MOLCAS    OPER   

              2       5       24.61       700     1000      520     2100      200   
                                         GEOM     BASIS   MCVARS     RHF    OPTIONS    

 PROGRAMS   *        TOTAL       INT   CCSD(T)    HF-SCF       INT
 CPU TIMES  *     50091.77      0.85  44835.41   3035.59   2219.63
 REAL TIME  *     52322.05 SEC
 DISK USED  *        14.28 GB (local),      555.37 GB (total)
 SF USED    *        13.87 GB
 GA USED    *         0.00 MB       (max)       0.00 MB       (current)
 **********************************************************************************************************************************


 PROGRAM * RHF-SCF (CLOSED SHELL)       Authors: W. Meyer, H.-J. Werner


 NUMBER OF ELECTRONS:       5+    5-    SPACE SYMMETRY=1    SPIN SYMMETRY: Singlet 
 CONVERGENCE THRESHOLDS:    1.00E-08 (Density)    1.00E-11 (Energy)
 MAX. NUMBER OF ITERATIONS:       60
 INTERPOLATION TYPE:            DIIS
 INTERPOLATION STEPS:              2 (START)      1 (STEP)
 LEVEL SHIFTS:                  0.00 (CLOSED)  0.00 (OPEN) 



 Orbital guess generated from atomic densities. Full valence occupancy:    7

 Molecular orbital dump at record        2101.2

 Initial occupancy:   5

 ITERATION    DDIFF          GRAD             ENERGY        2-EL.EN.            DIPOLE MOMENTS         DIIS   ORB.
    1      0.000D+00      0.000D+00       -76.02666982     77.438887    0.87680   -0.73330   -0.15323    0    start
    2      0.000D+00      0.360D-02       -76.05353816     73.787916    0.50894   -0.42623   -0.08979    1    diag
    3      0.131D-02      0.229D-02       -76.06510150     75.409918    0.60079   -0.50302   -0.10581    2    diag
    4      0.494D-03      0.215D-03       -76.06529538     75.318345    0.59710   -0.50004   -0.10532    3    diag
    5      0.621D-04      0.600D-04       -76.06531625     75.332949    0.59576   -0.49896   -0.10516    4    diag
    6      0.193D-04      0.120D-04       -76.06531760     75.331888    0.59545   -0.49872   -0.10513    5    diag
    7      0.510D-05      0.244D-05       -76.06531767     75.332032    0.59536   -0.49865   -0.10511    6    diag
    8      0.148D-05      0.461D-06       -76.06531767     75.332021    0.59533   -0.49862   -0.10511    7    diag
    9      0.271D-06      0.619D-07       -76.06531767     75.332011    0.59532   -0.49862   -0.10511    8    diag
   10      0.352D-07      0.135D-07       -76.06531767     75.332014    0.59532   -0.49862   -0.10511    9    orth
   11      0.979D-08      0.239D-08       -76.06531767     75.332014    0.59532   -0.49862   -0.10511    0    orth

 Final occupancy:   5

 !RHF STATE  1.1 Energy               -76.065317672624
 Nuclear energy                         9.01656758
 One-electron energy                 -122.74789204
 Two-electron energy                   37.66600678
 Virial quotient                       -1.00182432
 !RHF STATE  1.1 Dipole moment          0.59532279    -0.49861902    -0.10510973
 Dipole moment /Debye                   1.51306050    -1.26728012    -0.26714480

 Orbital energies:

         1.1          2.1          3.1          4.1          5.1          6.1          7.1
    -20.567171    -1.342938    -0.708001    -0.580901    -0.508929     0.014723     0.031077


 HOMO      5.1    -0.508929 =     -13.8487eV
 LUMO      6.1     0.014723 =       0.4006eV
 LUMO-HOMO         0.523652 =      14.2493eV


 **********************************************************************************************************************************
 DATASETS  * FILE   NREC   LENGTH (MB)   RECORD NAMES
              1      18       49.80       500      610      700      900      950      970     1000      129      960     1100   
                                          VAR    BASINP    GEOM    SYMINP    ZMAT    AOBASIS   BASIS     P2S    ABASIS      S 
                                         1400     1410     1200     1210     1080     1600     1650     1700   
                                           T        V       H0       H01     AOSYM     SMH    MOLCAS    OPER   

              2       6       38.39       700     1000      520     2100      200     2101   
                                         GEOM     BASIS   MCVARS     RHF    OPTIONS    RHF  

 PROGRAMS   *        TOTAL    HF-SCF       INT   CCSD(T)    HF-SCF       INT
 CPU TIMES  *     52623.18   2531.41      0.85  44835.41   3035.59   2219.63
 REAL TIME  *     55052.76 SEC
 DISK USED  *        14.28 GB (local),      555.37 GB (total)
 SF USED    *        13.87 GB
 GA USED    *         0.00 MB       (max)       0.00 MB       (current)
 **********************************************************************************************************************************

 Basis set:  JKFIT                   
 Basis size:  1104
 Attributes:
 Sphericals:   T
 Basis set:  MP2FIT                  
 Basis size:  1246
 Attributes:
 Sphericals:   T
 Basis set:  RI                      
 Basis size:   730
 Attributes:
 Sphericals:   T
 Basis set:  TDDFT                   
 Basis size:  1246
 Attributes:
 Sphericals:   T

 PROGRAM * CCSD (Closed-shell coupled cluster)     Authors: C. Hampel, H.-J. Werner, 1991, M. Deegan, P.J. Knowles, 1992


 Convergence thresholds:  THRVAR = 1.00D-08  THRDEN = 1.00D-10

 CCSD(T)     terms to be evaluated (factor= 1.000)


 Number of core orbitals:           1 (   1 )
 Number of closed-shell orbitals:   4 (   4 )
 Number of external orbitals:     729 ( 729 )

 Molecular orbitals read from record     2101.2  Type=RHF/CANONICAL (state 1.1)

 Number of N-1 electron functions:               4
 Number of N-2 electron functions:              10
 Number of singly external CSFs:              2916
 Number of doubly external CSFs:           4252986
 Total number of CSFs:                     4255903

 Length of J-op  integral file:               0.00 MB
 Length of K-op  integral file:              37.04 MB
 Length of 3-ext integral record:             0.00 MB

 For full I/O caching in triples, increase memory by 535.09 Mwords to 2535.14 Mwords.

 Integral transformation finished. Total CPU:1606.54 sec, npass=  1  Memory used:1010.01 MW

 Reference energy:                    -76.06531767

 MP2 singlet pair energy:              -0.19211776
 MP2 triplet pair energy:              -0.10223419
 MP2 correlation energy:               -0.29435195
 MP2 total energy:                    -76.35966962

 SCS-MP2 correlation energy:           -0.29415370   (PS=  1.200000  PT=  0.333333)
 SCS-MP2 total energy:                -76.35947137

 ITER.      SQ.NORM     CORR.ENERGY   TOTAL ENERGY   ENERGY CHANGE        DEN1      VAR(S)    VAR(P)  DIIS     TIME  TIME/IT
   1      1.06402246    -0.29425648   -76.35957415     0.00009547     0.00601835  0.81D-03  0.10D-02  1  1  2001.09   406.04
   2      1.06757775    -0.29449655   -76.35981422    -0.00024007    -0.00494104  0.16D-04  0.12D-03  2  2  2402.10   410.92
   3      1.06899692    -0.29457518   -76.35989285    -0.00007863    -0.00101979  0.80D-05  0.67D-05  3  3  2805.83   413.54
   4      1.06947407    -0.29457334   -76.35989101     0.00000184    -0.00023295  0.53D-06  0.76D-06  4  4  3210.49   415.17
   5      1.06957987    -0.29457162   -76.35988929     0.00000172    -0.00003263  0.16D-06  0.53D-07  5  5  3615.34   416.08
   6      1.06961536    -0.29456910   -76.35988677     0.00000252    -0.00000768  0.18D-07  0.45D-08  6  6  4019.53   416.63
   7      1.06962328    -0.29456855   -76.35988623     0.00000054    -0.00000074  0.16D-08  0.78D-09  6  1  4424.82   417.17
   8      1.06962512    -0.29456844   -76.35988611     0.00000011    -0.00000010  0.24D-09  0.92D-10  6  2  4831.35   417.73
   9      1.06962580    -0.29456840   -76.35988607     0.00000004     0.00000007  0.19D-10  0.87D-11  6  3  5236.99   418.04
  10      1.06962593    -0.29456839   -76.35988606     0.00000001     0.00000003  0.20D-11  0.12D-11  6  4  5642.79   418.26
  11      1.06962593    -0.29456839   -76.35988606    -0.00000000     0.00000002  0.43D-12  0.15D-12  6  5  6047.65   418.36
  12      1.06962593    -0.29456839   -76.35988606    -0.00000000     0.00000001  0.75D-13  0.23D-13  6  6  6452.48   418.43
  13      1.06962592    -0.29456839   -76.35988606    -0.00000000     0.00000000  0.14D-13  0.42D-14  6  1  6857.17   418.50
  14      1.06962592    -0.29456839   -76.35988606    -0.00000000     0.00000000  0.17D-14  0.67D-15  6  2  7260.91   418.51
  15      1.06962592    -0.29456839   -76.35988606    -0.00000000     0.00000000  0.20D-15  0.12D-15  6  3  7665.54   418.58
  16      1.06962592    -0.29456839   -76.35988606    -0.00000000    -0.00000000  0.47D-16  0.19D-16  6  4  8070.13   418.63

 Norm of t1 vector:      0.03748072      S-energy:    -0.00000000      T1 diagnostic:  0.00937018
                                                                       D1 diagnostic:  0.01936844


 Total CPU time for triples:   3435.15 sec


 RESULTS
 =======

  Reference energy                    -76.065317672628
  CCSD singlet pair energy             -0.204164204314
  CCSD triplet pair energy             -0.090404186750
  CCSD correlation energy              -0.294568391642

  Triples (T) contribution             -0.009849932768
  Total correlation energy             -0.304418324409

  CCSD total energy                   -76.359886064269
  CCSD[T] energy                      -76.370047499665
  CCSD-T energy                       -76.369591676938
 !CCSD(T) total energy                -76.369735997037

 Timing summary (sec):

 STEP                 CPU(USER)    SYS     CPU(TOT)    WALL
 Transformation       1608.51     52.19   1660.70   1668.42
 CCSD iterations      6461.99    228.41   6690.40   6699.11
 Triples              3435.15     64.58   3499.73   3503.26

 Program statistics:

 Available memory in ccsd:              1999999921
 Min. memory needed in ccsd:              19268142
 Max. memory used in ccsd:                22427508
 Max. memory used in cckext:              14646566 (16 integral passes)



 **********************************************************************************************************************************
 DATASETS  * FILE   NREC   LENGTH (MB)   RECORD NAMES
              1      19     6330.40       500      610      700      900      950      970     1000      129      960     1100   
                                          VAR    BASINP    GEOM    SYMINP    ZMAT    AOBASIS   BASIS     P2S    ABASIS      S 
                                         1400     1410     1200     1210     1080     1600     1650     1700     1380   
                                           T        V       H0       H01     AOSYM     SMH    MOLCAS    OPER     JKOP   

              2       6       38.39       700     1000      520     2100      200     2101   
                                         GEOM     BASIS   MCVARS     RHF    OPTIONS    RHF  

 PROGRAMS   *        TOTAL   CCSD(T)    HF-SCF       INT   CCSD(T)    HF-SCF       INT
 CPU TIMES  *     64129.11  11505.92   2531.41      0.85  44835.41   3035.59   2219.63
 REAL TIME  *     66924.87 SEC
 DISK USED  *        14.28 GB (local),      555.37 GB (total)
 SF USED    *        13.87 GB
 GA USED    *         0.00 MB       (max)       0.00 MB       (current)
 **********************************************************************************************************************************

 Running procedure: SET_MONOMER2

 Dummy atoms: O18  H35  H36


 Recomputing one-electron integrals since nuclear charges changed


 PROGRAM * SEWARD (Integral evaluation for generally contracted gaussian basis sets)     Author: Roland Lindh, 1990

 Geometry written to block  1 of record 700


 Point group  C1  



 ATOMIC COORDINATES

 NR  ATOM    CHARGE       X              Y              Z

   1  O18     0.00  -12.011477193    0.742095449    6.107594835
   2  H35     0.00  -11.750694988   -0.413472076    4.697292228
   3  H36     0.00  -10.560734447    0.465061599    7.217053042
   4  C1      6.00   -6.193010455    2.801518980    2.403542658
   5  H41     1.00   -4.656285171    1.699997622    3.119937832
   6  H42     1.00   -5.973046335    4.726205038    2.982932688
   7  H43     1.00   -7.940251230    2.077186956    3.118237078
   8  H44     1.00   -6.176569838    2.685300823    0.384937212

 Bond lengths in Bohr (Angstrom)

 1-2  1.841818967  1-3  1.847241128  4-5  2.021904040  4-6  2.022002335  4-7  2.021953343
     ( 0.974648624)     ( 0.977517908)     ( 1.069945541)     ( 1.069997556)     ( 1.069971630)

 4-8  2.022015060
     ( 1.070004290)

 Bond angles

  2-1-3  104.74973043   5-4-6  109.53398059   5-4-7  109.65604535   5-4-8  108.43490854

  6-4-7  109.49436728   6-4-8  109.86987750   7-4-8  109.83468330

 NUCLEAR CHARGE:                   10
 NUMBER OF PRIMITIVE AOS:        1046
 NUMBER OF SYMMETRY AOS:          786
 NUMBER OF CONTRACTIONS:          734   (  734A   )
 NUMBER OF CORE ORBITALS:           1   (    1A   )
 NUMBER OF VALENCE ORBITALS:        8   (    8A   )

 MOLECULE CHANGED: INITIALIZING OCCUPATION AND DUMP RECORDS


 NUCLEAR REPULSION ENERGY   13.68681606

 Basis set:  JKFIT                   
 Basis size:  1104
 Attributes:
 Sphericals:   T
 Basis set:  MP2FIT                  
 Basis size:  1246
 Attributes:
 Sphericals:   T
 Basis set:  RI                      
 Basis size:   730
 Attributes:
 Sphericals:   T
 Basis set:  TDDFT                   
 Basis size:  1246
 Attributes:
 Sphericals:   T

 Eigenvalues of metric

         1 0.990E-06 0.190E-05 0.289E-05 0.378E-05 0.485E-05 0.637E-05 0.795E-05 0.886E-05


 Contracted 2-electron integrals neglected if value below      1.0D-14

 OPERATOR DM      FOR CENTER  0  COORDINATES:    0.000000    0.000000    0.000000


 **********************************************************************************************************************************
 DATASETS  * FILE   NREC   LENGTH (MB)   RECORD NAMES
              1      18       49.80       500      610      700      900      950      970     1000      129      960     1100   
                                          VAR    BASINP    GEOM    SYMINP    ZMAT    AOBASIS   BASIS     P2S    ABASIS      S 
                                         1400     1410     1200     1210     1080     1600     1650     1700   
                                           T        V       H0       H01     AOSYM     SMH    MOLCAS    OPER   

              2       6       38.39       700     1000      520     2100      200     2101   
                                         GEOM     BASIS   MCVARS     RHF    OPTIONS    RHF  

 PROGRAMS   *        TOTAL       INT   CCSD(T)    HF-SCF       INT   CCSD(T)    HF-SCF       INT
 CPU TIMES  *     64130.02      0.91  11505.92   2531.41      0.85  44835.41   3035.59   2219.63
 REAL TIME  *     66926.96 SEC
 DISK USED  *        14.28 GB (local),      555.37 GB (total)
 SF USED    *        13.87 GB
 GA USED    *         0.00 MB       (max)       0.00 MB       (current)
 **********************************************************************************************************************************


 PROGRAM * RHF-SCF (CLOSED SHELL)       Authors: W. Meyer, H.-J. Werner


 NUMBER OF ELECTRONS:       5+    5-    SPACE SYMMETRY=1    SPIN SYMMETRY: Singlet 
 CONVERGENCE THRESHOLDS:    1.00E-08 (Density)    1.00E-11 (Energy)
 MAX. NUMBER OF ITERATIONS:       60
 INTERPOLATION TYPE:            DIIS
 INTERPOLATION STEPS:              2 (START)      1 (STEP)
 LEVEL SHIFTS:                  0.00 (CLOSED)  0.00 (OPEN) 



 Orbital guess generated from atomic densities. Full valence occupancy:    9

 Molecular orbital dump at record        2102.2

 Initial occupancy:   5

 ITERATION    DDIFF          GRAD             ENERGY        2-EL.EN.            DIPOLE MOMENTS         DIIS   ORB.
    1      0.000D+00      0.000D+00       -40.19676554     53.509906    0.00411   -0.00276   -0.00131    0    start
    2      0.000D+00      0.198D-02       -40.21405773     52.218483    0.00129   -0.00087   -0.00039    1    diag
    3      0.952D-03      0.769D-03       -40.21634115     52.673989    0.00183   -0.00123   -0.00056    2    diag
    4      0.263D-03      0.192D-03       -40.21666148     52.619252    0.00162   -0.00110   -0.00049    3    diag
    5      0.105D-03      0.248D-04       -40.21666696     52.621410    0.00160   -0.00108   -0.00048    4    diag
    6      0.343D-04      0.204D-05       -40.21666701     52.621538    0.00160   -0.00108   -0.00048    5    diag
    7      0.558D-05      0.166D-06       -40.21666701     52.621500    0.00159   -0.00108   -0.00048    6    diag
    8      0.314D-06      0.136D-07       -40.21666701     52.621501    0.00159   -0.00108   -0.00048    7    diag
    9      0.584D-07      0.167D-08       -40.21666701     52.621501    0.00159   -0.00108   -0.00048    8    diag
   10      0.988D-08      0.465D-09       -40.21666701     52.621501    0.00159   -0.00108   -0.00048    0    orth

 Final occupancy:   5

 !RHF STATE  1.1 Energy               -40.216667005435
 Nuclear energy                        13.68681606
 One-electron energy                  -80.21423338
 Two-electron energy                   26.31075032
 Virial quotient                       -0.99832811
 !RHF STATE  1.1 Dipole moment          0.00159364    -0.00107608    -0.00048015
 Dipole moment /Debye                   0.00405037    -0.00273494    -0.00122034

 Orbital energies:

         1.1          2.1          3.1          4.1          5.1          6.1          7.1
    -11.196017    -0.950605    -0.551931    -0.549996    -0.547817     0.020867     0.034143


 HOMO      5.1    -0.547817 =     -14.9069eV
 LUMO      6.1     0.020867 =       0.5678eV
 LUMO-HOMO         0.568684 =      15.4747eV


 **********************************************************************************************************************************
 DATASETS  * FILE   NREC   LENGTH (MB)   RECORD NAMES
              1      18       49.80       500      610      700      900      950      970     1000      129      960     1100   
                                          VAR    BASINP    GEOM    SYMINP    ZMAT    AOBASIS   BASIS     P2S    ABASIS      S 
                                         1400     1410     1200     1210     1080     1600     1650     1700   
                                           T        V       H0       H01     AOSYM     SMH    MOLCAS    OPER   

              2       7       62.47       700     1000      520     2100      200     2101     2102   
                                         GEOM     BASIS   MCVARS     RHF    OPTIONS    RHF      RHF  

 PROGRAMS   *        TOTAL    HF-SCF       INT   CCSD(T)    HF-SCF       INT   CCSD(T)    HF-SCF       INT
 CPU TIMES  *     66567.99   2437.96      0.91  11505.92   2531.41      0.85  44835.41   3035.59   2219.63
 REAL TIME  *     69545.65 SEC
 DISK USED  *        14.28 GB (local),      555.37 GB (total)
 SF USED    *        13.87 GB
 GA USED    *         0.00 MB       (max)       0.00 MB       (current)
 **********************************************************************************************************************************

 Basis set:  JKFIT                   
 Basis size:  1104
 Attributes:
 Sphericals:   T
 Basis set:  MP2FIT                  
 Basis size:  1246
 Attributes:
 Sphericals:   T
 Basis set:  RI                      
 Basis size:   730
 Attributes:
 Sphericals:   T
 Basis set:  TDDFT                   
 Basis size:  1246
 Attributes:
 Sphericals:   T

 PROGRAM * CCSD (Closed-shell coupled cluster)     Authors: C. Hampel, H.-J. Werner, 1991, M. Deegan, P.J. Knowles, 1992


 Convergence thresholds:  THRVAR = 1.00D-08  THRDEN = 1.00D-10

 CCSD(T)     terms to be evaluated (factor= 1.000)


 Number of core orbitals:           1 (   1 )
 Number of closed-shell orbitals:   4 (   4 )
 Number of external orbitals:     729 ( 729 )

 Molecular orbitals read from record     2102.2  Type=RHF/CANONICAL (state 1.1)

 Number of N-1 electron functions:               4
 Number of N-2 electron functions:              10
 Number of singly external CSFs:              2916
 Number of doubly external CSFs:           4252986
 Total number of CSFs:                     4255903

 Length of J-op  integral file:               0.00 MB
 Length of K-op  integral file:              37.04 MB
 Length of 3-ext integral record:             0.00 MB

 For full I/O caching in triples, increase memory by 535.09 Mwords to 2535.14 Mwords.

 Integral transformation finished. Total CPU:1609.51 sec, npass=  1  Memory used:1010.01 MW

 Reference energy:                    -40.21666701

 MP2 singlet pair energy:              -0.15788342
 MP2 triplet pair energy:              -0.05682331
 MP2 correlation energy:               -0.21470673
 MP2 total energy:                    -40.43137374

 SCS-MP2 correlation energy:           -0.22481683   (PS=  1.200000  PT=  0.333333)
 SCS-MP2 total energy:                -40.44148384

 ITER.      SQ.NORM     CORR.ENERGY   TOTAL ENERGY   ENERGY CHANGE        DEN1      VAR(S)    VAR(P)  DIIS     TIME  TIME/IT
   1      1.07073061    -0.22924633   -40.44591333    -0.01453959    -0.00880707  0.58D-03  0.96D-03  1  1  2002.58   403.67
   2      1.07565213    -0.23034105   -40.44700805    -0.00109472    -0.00537193  0.15D-04  0.11D-03  2  2  2406.46   411.23
   3      1.07738905    -0.23038154   -40.44704855    -0.00004050    -0.00128288  0.20D-05  0.63D-05  3  3  2811.69   413.96
   4      1.07777951    -0.23038327   -40.44705028    -0.00000173    -0.00020106  0.14D-06  0.36D-06  4  4  3215.78   415.18
   5      1.07783393    -0.23038703   -40.44705403    -0.00000376    -0.00001101  0.13D-07  0.24D-07  5  5  3620.09   415.88
   6      1.07784406    -0.23038573   -40.44705273     0.00000130    -0.00000411  0.80D-09  0.18D-08  6  6  4023.56   416.26
   7      1.07784542    -0.23038534   -40.44705235     0.00000038    -0.00000076  0.53D-10  0.13D-09  6  1  4426.31   416.52
   8      1.07784534    -0.23038540   -40.44705240    -0.00000005     0.00000024  0.59D-11  0.86D-11  6  3  4830.41   416.76
   9      1.07784548    -0.23038538   -40.44705238     0.00000002    -0.00000009  0.43D-12  0.62D-12  6  2  5233.51   416.87
  10      1.07784548    -0.23038538   -40.44705238     0.00000000     0.00000001  0.58D-13  0.65D-13  6  4  5636.52   416.97
  11      1.07784549    -0.23038538   -40.44705238     0.00000000     0.00000000  0.58D-14  0.64D-14  6  5  6040.24   417.11
  12      1.07784548    -0.23038538   -40.44705238     0.00000000     0.00000000  0.20D-15  0.69D-15  6  6  6443.44   417.18
  13      1.07784548    -0.23038538   -40.44705238    -0.00000000     0.00000000  0.26D-16  0.95D-16  6  1  6846.61   417.22
  14      1.07784548    -0.23038538   -40.44705238    -0.00000000     0.00000000  0.77D-17  0.24D-16  6  3  7250.12   417.31

 Norm of t1 vector:      0.03186084      S-energy:    -0.00000000      T1 diagnostic:  0.00796521
                                                                       D1 diagnostic:  0.01279410

 Total CPU time for triples:   3434.10 sec


 RESULTS
 =======

  Reference energy                    -40.216667005436
  CCSD singlet pair energy             -0.175402941225
  CCSD triplet pair energy             -0.054982435919
  CCSD correlation energy              -0.230385377174

  Triples (T) contribution             -0.007018995301
  Total correlation energy             -0.237404372476

  CCSD total energy                   -40.447052382610
  CCSD[T] energy                      -40.454295221721
  CCSD-T energy                       -40.454004422627
 !CCSD(T) total energy                -40.454071377912

 Timing summary (sec):

 STEP                 CPU(USER)    SYS     CPU(TOT)    WALL
 Transformation       1611.43     54.02   1665.45   1672.21
 CCSD iterations      5639.07    197.38   5836.45   5843.45
 Triples              3434.10     66.18   3500.28   3503.79

 Program statistics:

 Available memory in ccsd:              1999999916
 Min. memory needed in ccsd:              19268142
 Max. memory used in ccsd:                22427508
 Max. memory used in cckext:              14646566 (14 integral passes)



 **********************************************************************************************************************************
 DATASETS  * FILE   NREC   LENGTH (MB)   RECORD NAMES
              1      19     6330.40       500      610      700      900      950      970     1000      129      960     1100   
                                          VAR    BASINP    GEOM    SYMINP    ZMAT    AOBASIS   BASIS     P2S    ABASIS      S 
                                         1400     1410     1200     1210     1080     1600     1650     1700     1380   
                                           T        V       H0       H01     AOSYM     SMH    MOLCAS    OPER     JKOP   

              2       7       62.47       700     1000      520     2100      200     2101     2102   
                                         GEOM     BASIS   MCVARS     RHF    OPTIONS    RHF      RHF  

 PROGRAMS   *        TOTAL   CCSD(T)    HF-SCF       INT   CCSD(T)    HF-SCF       INT   CCSD(T)    HF-SCF       INT
 CPU TIMES  *     77252.87  10684.87   2437.96      0.91  11505.92   2531.41      0.85  44835.41   3035.59   2219.63
 REAL TIME  *     80566.41 SEC
 DISK USED  *        14.28 GB (local),      555.37 GB (total)
 SF USED    *        13.87 GB
 GA USED    *         0.00 MB       (max)       0.00 MB       (current)
 **********************************************************************************************************************************
 Molecular orbitals read from record     2102.2  Type=RHF/CANONICAL (state 1.1)
 Occupation numbers read from record     2102.2  Type=RHF/RHF (state 1.1)
 Orbital energies read from record       2102.2  Type=RHF/CANONICAL (state 1.1)
 Redundancy group numbers read from rec  2102.2  Type=RHF/RHF (state 1.1)

 CCSD(T)/aug-cc-pV5Z energy=    -40.454071377912

         CCSD(T)          HF-SCF         CCSD(T)          HF-SCF         CCSD(T)          HF-SCF
    -40.45407138    -40.21666701    -76.36973600    -76.06531767   -116.82424763   -116.28123452
 **********************************************************************************************************************************
 Molpro calculation terminated
