
 Primary working directories    : /scratch/klimes/415923/molpro.ckI85yZGtF
 Secondary working directories  : /scratch/klimes/415923/molpro.ckI85yZGtF
 Wavefunction directory         : /scratch/klimes/415923/
 Main file repository           : /scratch/klimes/415923/molpro.ckI85yZGtF/

 id        : karlovklimes

 Nodes                      nprocs
 nc-07.cc.karlov.mff.cuni.cz    4

 Using customized tuning parameters: mindgm=1; mindgv=20; mindgc=4; mindgr=1; noblas=0; minvec=7
 default implementation of scratch files=sf  


 Variables initialized (930), CPU time= 0.01 sec
                                                                                 !gdirect
 memory,2000,m
 gthresh,orbital=1d-10,energy=1d-10,grid=1d-8
 
 symmetry,nosym
 angstrom
 geometry={
 O19        -6.574800000000      3.149500000000     -0.152800000000
 H37        -7.467300000000      3.443900000000     -0.376700000000
 H38        -6.567400000000      3.105000000000      0.858500000000
 C1        -3.277200000000      1.482500000000      1.271900000000
 H41        -2.464000000000      0.899600000000      1.651000000000
 H42        -3.160800000000      2.501000000000      1.578500000000
 H43        -4.201800000000      1.099200000000      1.650100000000
 H44        -3.268500000000      1.421000000000      0.203700000000
 }
 
 nkerna=1
 nkernb=1
 
 gf=0
 sing=1
 thrdum=1d-4
 gridthr=1d-8
 
 basis={
 set,orbital
 default,av5z
 set,jkfit
 default,av5z/jkfit
 set,mp2fit
 default,av5z/mp2fit
 set,ri
 default,av5z/optri
 set,tddft
 default,av5z/mp2fit
 }
 
 proc set_monomer1
 dummy,4,5,6,7,8
 endproc
 
 proc set_monomer2
 dummy,1,2,3
 endproc
 
                                                                                 !1234 energy
 {hf,accu=1.d-16}
 ccsd(t)
 
 set_monomer1
 {hf,accu=1.d-16}
 ccsd(t)
 
 set_monomer2
 {hf,accu=1.d-16}
 ccsd(t)
 
 Commands  initialized (760), CPU time= 0.02 sec, 617 directives.
 Default parameters read. Elapsed time= 0.18 sec

 Checking input...
 Passed
1


                                         ***  PROGRAM SYSTEM MOLPRO  ***
                                       Copyright, TTI GmbH Stuttgart, 2015
                                    Version 2019.1 linked Jan 14 2019 13:09:19


 **********************************************************************************************************************************
 LABEL *                                                                                 
  64 bit mpp version                                                                     DATE: 16-Mar-20          TIME: 11:02:43  
 **********************************************************************************************************************************

 SHA1:             d688ac825633d238f2093ded1675ba87ccd55965
 **********************************************************************************************************************************

 THRESHOLDS:

 ZERO    =  1.00D-12  ONEINT  =  1.00D-12  TWOINT  =  1.00D-11  PREFAC  =  1.00D-14  XXXXXX  =  1.00D-09  EORDER  =  1.00D-04
 ENERGY  =  1.00D-10  ETEST   =  0.00D+00  EDENS   =  0.00D+00  THRDEDEF=  1.00D-06  GRADIENT=  1.00D-02  STEP    =  1.00D-03
 ORBITAL =  1.00D-10  CIVEC   =  1.00D-05  COEFF   =  1.00D-04  PRINTCI =  5.00D-02  PUNCHCI =  9.90D+01  OPTGRAD =  3.00D-04
 OPTENERG=  1.00D-06  OPTSTEP =  3.00D-04  THRGRAD =  1.00D-10  COMPRESS=  1.00D-11  VARMIN  =  1.00D-07  VARMAX  =  1.00D-03
 THRDOUB =  0.00D+00  THRDIV  =  1.00D-05  THRRED  =  1.00D-07  THRPSP  =  1.00D+00  THRDC   =  1.00D-10  THRCS   =  1.00D-10
 THRNRM  =  1.00D-08  THREQ   =  0.00D+00  THRDE   =  1.00D+00  THRREF  =  1.00D-05  SPARFAC =  1.00D+00  THRDLP  =  1.00D-07
 THRDIA  =  1.00D-10  THRDLS  =  1.00D-07  THRGPS  =  0.00D+00  THRKEX  =  0.00D+00  THRDIS  =  2.00D-01  THRVAR  =  1.00D-10
 THRLOC  =  1.00D-06  THRGAP  =  1.00D-06  THRLOCT = -1.00D+00  THRGAPT = -1.00D+00  THRORB  =  1.00D-06  THRMLTP =  0.00D+00
 THRCPQCI=  1.00D-10  KEXTA   =  0.00D+00  THRCOARS=  0.00D+00  SYMTOL  =  1.00D-06  GRADTOL =  1.00D-06  THROVL  =  1.00D-08
 THRORTH =  1.00D-08  GRID    =  1.00D-08  GRIDMAX =  1.00D-03  DTMAX   =  0.00D+00  THROCCDE=  1.00D-01  THROCCDE=  1.00D-01
 THRPRINT=  2.50D-01


 Variable memory set to 2000000000 words,  buffer space 

 ZSYMEL=NOSYM
 ZUNIT=ANG


Geometry recognized as XYZ

 SETTING NKERNA         =         1.00000000                                  
 SETTING NKERNB         =         1.00000000                                  
 SETTING GF             =     0.00000000D+00                                  
 SETTING SING           =         1.00000000                                  
 SETTING THRDUM         =     1.00000000D-04                                  
 SETTING GRIDTHR        =     1.00000000D-08                                  
 SETTING BASIS          =    AV5Z


 Recomputing integrals since basis changed


 Using spherical harmonics

 Library entry O      S aug-cc-pV5Z          selected for orbital group  1
 Library entry O      P aug-cc-pV5Z          selected for orbital group  1
 Library entry O      D aug-cc-pV5Z          selected for orbital group  1
 Library entry O      F aug-cc-pV5Z          selected for orbital group  1
 Library entry O      G aug-cc-pV5Z          selected for orbital group  1
 Library entry O      H aug-cc-pV5Z          selected for orbital group  1
 Library entry H      S aug-cc-pV5Z          selected for orbital group  2
 Library entry H      P aug-cc-pV5Z          selected for orbital group  2
 Library entry H      D aug-cc-pV5Z          selected for orbital group  2
 Library entry H      F aug-cc-pV5Z          selected for orbital group  2
 Library entry H      G aug-cc-pV5Z          selected for orbital group  2
 Library entry C      S aug-cc-pV5Z          selected for orbital group  3
 Library entry C      P aug-cc-pV5Z          selected for orbital group  3
 Library entry C      D aug-cc-pV5Z          selected for orbital group  3
 Library entry C      F aug-cc-pV5Z          selected for orbital group  3
 Library entry C      G aug-cc-pV5Z          selected for orbital group  3
 Library entry C      H aug-cc-pV5Z          selected for orbital group  3


 PROGRAM * SEWARD (Integral evaluation for generally contracted gaussian basis sets)     Author: Roland Lindh, 1990

 Geometry written to block  1 of record 700


 Point group  C1  



 ATOMIC COORDINATES

 NR  ATOM    CHARGE       X              Y              Z

   1  O19     8.00  -12.424571324    5.951692429   -0.288750152
   2  H37     1.00  -14.111151890    6.508027800   -0.711859831
   3  H38     1.00  -12.410587350    5.867599617    1.622329878
   4  C1      6.00   -6.193010455    2.801518980    2.403542658
   5  H41     1.00   -4.656285171    1.699997622    3.119937832
   6  H42     1.00   -5.973046335    4.726205038    2.982932688
   7  H43     1.00   -7.940251230    2.077186956    3.118237078
   8  H44     1.00   -6.176569838    2.685300823    0.384937212

 Bond lengths in Bohr (Angstrom)

 1-2  1.825673808  1-3  1.912980406  4-5  2.021904040  4-6  2.022002335  4-7  2.021953343
     ( 0.966104974)     ( 1.012305636)     ( 1.069945541)     ( 1.069997556)     ( 1.069971630)

 4-8  2.022015060
     ( 1.070004290)

 Bond angles

  2-1-3  104.57658282   5-4-6  109.53398059   5-4-7  109.65604535   5-4-8  108.43490854

  6-4-7  109.49436728   6-4-8  109.86987750   7-4-8  109.83468330

 NUCLEAR CHARGE:                   20
 NUMBER OF PRIMITIVE AOS:        1046
 NUMBER OF SYMMETRY AOS:          786
 NUMBER OF CONTRACTIONS:          734   (  734A   )
 NUMBER OF CORE ORBITALS:           2   (    2A   )
 NUMBER OF VALENCE ORBITALS:       14   (   14A   )


 NUCLEAR REPULSION ENERGY   35.73898765


 Basis set:  JKFIT                   
 Basis size:  1104
 Attributes:
 Sphericals:   T
 Basis set:  MP2FIT                  
 Basis size:  1246
 Attributes:
 Sphericals:   T
 Basis set:  RI                      
 Basis size:   730
 Attributes:
 Sphericals:   T
 Basis set:  TDDFT                   
 Basis size:  1246
 Attributes:
 Sphericals:   T

 **********************************************************************************************************************************


 Eigenvalues of metric

         1 0.143E-05 0.188E-05 0.356E-05 0.514E-05 0.541E-05 0.801E-05 0.824E-05 0.891E-05


 Contracted 2-electron integrals neglected if value below      1.0D-14
 AO integral compression algorithm  1   Integral accuracy      1.0D-14

     142907.539 MB (compressed) written to integral file ( 45.3%)

     Node minimum: 33284.948 MB, node maximum: 39110.574 MB


 NUMBER OF SORTED TWO-ELECTRON INTEGRALS: 9095363064.     BUFFER LENGTH:  32768
 NUMBER OF SEGMENTS: 190  SEGMENT LENGTH:   47999780      RECORD LENGTH: 131072

 Memory used in sort:      48.16 MW

 SORT1 READ 39465217713. AND WROTE  6563375060. INTEGRALS IN  75210 RECORDS. CPU TIME:   926.11 SEC, REAL TIME:  1059.21 SEC
 SORT2 READ 26260648619. AND WROTE 36381317385. INTEGRALS IN 554968 RECORDS. CPU TIME:   101.44 SEC, REAL TIME:   670.48 SEC

 Node minimum:  9095228192.  Node maximum:  9095430501. integrals

 OPERATOR DM      FOR CENTER  0  COORDINATES:    0.000000    0.000000    0.000000


 **********************************************************************************************************************************
 DATASETS  * FILE   NREC   LENGTH (MB)   RECORD NAMES
              1      18       49.80       500      610      700      900      950      970     1000      129      960     1100   
                                          VAR    BASINP    GEOM    SYMINP    ZMAT    AOBASIS   BASIS     P2S    ABASIS      S 
                                         1400     1410     1200     1210     1080     1600     1650     1700   
                                           T        V       H0       H01     AOSYM     SMH    MOLCAS    OPER   

 PROGRAMS   *        TOTAL       INT
 CPU TIMES  *      2026.60   2026.39
 REAL TIME  *      2787.92 SEC
 DISK USED  *        50.44 MB (local),      457.89 GB (total)
 GA USED    *         0.00 MB       (max)       0.00 MB       (current)
 **********************************************************************************************************************************


 PROGRAM * RHF-SCF (CLOSED SHELL)       Authors: W. Meyer, H.-J. Werner


 NUMBER OF ELECTRONS:      10+   10-    SPACE SYMMETRY=1    SPIN SYMMETRY: Singlet 
 CONVERGENCE THRESHOLDS:    1.00E-08 (Density)    1.00E-11 (Energy)
 MAX. NUMBER OF ITERATIONS:       60
 INTERPOLATION TYPE:            DIIS
 INTERPOLATION STEPS:              2 (START)      1 (STEP)
 LEVEL SHIFTS:                  0.00 (CLOSED)  0.00 (OPEN) 



 Orbital guess generated from atomic densities. Full valence occupancy:   16

 Molecular orbital dump at record        2100.2

 Initial occupancy:  10

 ITERATION    DDIFF          GRAD             ENERGY        2-EL.EN.            DIPOLE MOMENTS         DIIS   ORB.
    1      0.000D+00      0.000D+00      -116.21949200    157.260036   -0.84401    0.23580    0.77340    0    start
    2      0.000D+00      0.292D-02      -116.26391606    152.159522   -0.49375    0.14420    0.38795    1    diag
    3      0.162D-02      0.174D-02      -116.27813440    154.284240   -0.58597    0.16781    0.48480    2    diag
    4      0.564D-03      0.257D-03      -116.27880760    154.170687   -0.57891    0.16572    0.47506    3    diag
    5      0.122D-03      0.762D-04      -116.27888014    154.165701   -0.57937    0.16592    0.47366    4    diag
    6      0.494D-04      0.185D-04      -116.27888427    154.171355   -0.57900    0.16584    0.47275    5    diag
    7      0.177D-04      0.387D-05      -116.27888453    154.169620   -0.57908    0.16586    0.47267    6    diag
    8      0.558D-05      0.103D-05      -116.27888456    154.169813   -0.57906    0.16586    0.47258    7    diag
    9      0.139D-05      0.234D-06      -116.27888456    154.169785   -0.57905    0.16586    0.47255    8    diag
   10      0.327D-06      0.268D-07      -116.27888456    154.169786   -0.57905    0.16586    0.47255    9    orth
   11      0.670D-07      0.637D-08      -116.27888456    154.169787   -0.57905    0.16586    0.47255    9    diag
   12      0.529D-08      0.165D-08      -116.27888456    154.169787   -0.57905    0.16586    0.47255    0    orth

 Final occupancy:  10

 !RHF STATE  1.1 Energy              -116.278884557419
 Nuclear energy                        35.73898765
 One-electron energy                 -229.10276585
 Two-electron energy                   77.08489365
 Virial quotient                       -1.00095449
 !RHF STATE  1.1 Dipole moment         -0.57904787     0.16586112     0.47255193
 Dipole moment /Debye                  -1.47169649     0.42154931     1.20102853

 Orbital energies:

         1.1          2.1          3.1          4.1          5.1          6.1          7.1          8.1          9.1         10.1
    -20.568954   -11.191664    -1.336797    -0.946180    -0.700583    -0.578218    -0.547902    -0.545983    -0.542581    -0.507626

        11.1         12.1
      0.020713     0.030060


 HOMO     10.1    -0.507626 =     -13.8132eV
 LUMO     11.1     0.020713 =       0.5636eV
 LUMO-HOMO         0.528338 =      14.3768eV


 **********************************************************************************************************************************
 DATASETS  * FILE   NREC   LENGTH (MB)   RECORD NAMES
              1      18       49.80       500      610      700      900      950      970     1000      129      960     1100   
                                          VAR    BASINP    GEOM    SYMINP    ZMAT    AOBASIS   BASIS     P2S    ABASIS      S 
                                         1400     1410     1200     1210     1080     1600     1650     1700   
                                           T        V       H0       H01     AOSYM     SMH    MOLCAS    OPER   

              2       4       13.79       700     1000      520     2100   
                                         GEOM     BASIS   MCVARS     RHF  

 PROGRAMS   *        TOTAL    HF-SCF       INT
 CPU TIMES  *      4885.84   2859.24   2026.39
 REAL TIME  *      5974.62 SEC
 DISK USED  *       102.61 MB (local),      458.10 GB (total)
 SF USED    *         2.16 MB
 GA USED    *         0.00 MB       (max)       0.00 MB       (current)
 **********************************************************************************************************************************

 Basis set:  JKFIT                   
 Basis size:  1104
 Attributes:
 Sphericals:   T
 Basis set:  MP2FIT                  
 Basis size:  1246
 Attributes:
 Sphericals:   T
 Basis set:  RI                      
 Basis size:   730
 Attributes:
 Sphericals:   T
 Basis set:  TDDFT                   
 Basis size:  1246
 Attributes:
 Sphericals:   T

 PROGRAM * CCSD (Closed-shell coupled cluster)     Authors: C. Hampel, H.-J. Werner, 1991, M. Deegan, P.J. Knowles, 1992


 Convergence thresholds:  THRVAR = 1.00D-08  THRDEN = 1.00D-10

 CCSD(T)     terms to be evaluated (factor= 1.000)


 Number of core orbitals:           2 (   2 )
 Number of closed-shell orbitals:   8 (   8 )
 Number of external orbitals:     724 ( 724 )

 Molecular orbitals read from record     2100.2  Type=RHF/CANONICAL (state 1.1)

 Number of N-1 electron functions:               8
 Number of N-2 electron functions:              36
 Number of singly external CSFs:              5792
 Number of doubly external CSFs:          16776528
 Total number of CSFs:                    16782321

 Length of J-op  integral file:               0.00 MB
 Length of K-op  integral file:              37.04 MB
 Length of 3-ext integral record:             0.00 MB

 For full I/O caching in triples, increase memory by 2034.74 Mwords to 4034.79 Mwords.

 Integral transformation finished. Total CPU:2900.66 sec, npass=  1  Memory used:1826.26 MW

 Reference energy:                   -116.27888456

 MP2 singlet pair energy:              -0.35077445
 MP2 triplet pair energy:              -0.15975975
 MP2 correlation energy:               -0.51053421
 MP2 total energy:                   -116.78941876

 SCS-MP2 correlation energy:           -0.52033541   (PS=  1.200000  PT=  0.333333)
 SCS-MP2 total energy:               -116.79921997

 ITER.      SQ.NORM     CORR.ENERGY   TOTAL ENERGY   ENERGY CHANGE        DEN1      VAR(S)    VAR(P)  DIIS     TIME  TIME/IT
   1      1.13582026    -0.52480898  -116.80369354    -0.01427477    -0.00243988  0.14D-02  0.20D-02  1  1  4017.09  1142.02
   2      1.14431479    -0.52614305  -116.80502761    -0.00133407    -0.01033548  0.32D-04  0.26D-03  2  2  5137.74  1145.66
   3      1.14770001    -0.52627730  -116.80516185    -0.00013424    -0.00243327  0.11D-04  0.14D-04  3  3  6261.46  1147.04
   4      1.14863555    -0.52627513  -116.80515968     0.00000217    -0.00047086  0.68D-06  0.13D-05  4  4  7389.19  1148.15
   5      1.14880630    -0.52627700  -116.80516156    -0.00000188    -0.00004606  0.21D-06  0.95D-07  5  5  8513.80  1148.45
   6      1.14885567    -0.52627396  -116.80515852     0.00000304    -0.00001065  0.23D-07  0.78D-08  6  6  9635.66  1148.87
   7      1.14886641    -0.52627268  -116.80515724     0.00000128    -0.00000213  0.22D-08  0.99D-09  6  2 10760.39  1149.09
   8      1.14886889    -0.52627250  -116.80515706     0.00000019    -0.00000010  0.34D-09  0.11D-09  6  1 11882.73  1149.21
   9      1.14886984    -0.52627244  -116.80515700     0.00000006    -0.00000004  0.25D-10  0.16D-10  6  3 13005.42  1149.27
  10      1.14886995    -0.52627245  -116.80515701    -0.00000001     0.00000011  0.28D-11  0.19D-11  6  4 14126.93  1149.39
  11      1.14886991    -0.52627245  -116.80515701    -0.00000001     0.00000007  0.45D-12  0.26D-12  6  5 15250.80  1149.57
  12      1.14886988    -0.52627246  -116.80515701    -0.00000000     0.00000002  0.10D-12  0.34D-13  6  6 16374.18  1149.62
  13      1.14886986    -0.52627246  -116.80515701    -0.00000000     0.00000001  0.19D-13  0.52D-14  6  2 17499.32  1149.68
  14      1.14886986    -0.52627246  -116.80515702    -0.00000000     0.00000000  0.29D-14  0.11D-14  6  1 18621.72  1149.77
  15      1.14886985    -0.52627246  -116.80515702    -0.00000000     0.00000000  0.37D-15  0.17D-15  6  3 19746.52  1149.75
  16      1.14886985    -0.52627246  -116.80515702    -0.00000000    -0.00000000  0.73D-16  0.34D-16  6  4 20869.92  1149.77
  17      1.14886985    -0.52627246  -116.80515702    -0.00000000    -0.00000000  0.27D-16  0.11D-16  6  5 21993.99  1149.72

 Norm of t1 vector:      0.05026975      S-energy:    -0.00000000      T1 diagnostic:  0.00888652
                                                                       D1 diagnostic:  0.02011344

   CPU time for triples:   3367.65 sec for i =  1 -  4 /  8 (~  14.3 % done)
   CPU time for triples:   3381.71 sec for i =  5 -  5 /  8 (~  26.8 % done)
   CPU time for triples:   5064.41 sec for i =  6 -  6 /  8 (~  44.6 % done)
   CPU time for triples:   5049.10 sec for i =  7 -  7 /  8 (~  68.8 % done)
   CPU time for triples:   6714.85 sec for i =  8 -  8 /  8 (  100.0 % done)

 Total CPU time for triples:  23728.00 sec


 RESULTS
 =======

  Reference energy                   -116.278884557420
  CCSD singlet pair energy             -0.380461308295
  CCSD triplet pair energy             -0.145811149707
  CCSD correlation energy              -0.526272458258

  Triples (T) contribution             -0.017095924584
  Total correlation energy             -0.543368382842

  CCSD total energy                  -116.805157015678
  CCSD[T] energy                     -116.822803213809
  CCSD-T energy                      -116.822033912016
 !CCSD(T) total energy               -116.822252940262

 Timing summary (sec):

 STEP                 CPU(USER)    SYS     CPU(TOT)    WALL
 Transformation       2906.84    111.42   3018.26   3030.99
 CCSD iterations     19087.55    352.99  19440.54  19546.43
 Triples             23728.00    621.62  24349.62  24374.79

 Program statistics:

 Available memory in ccsd:              1999999734
 Min. memory needed in ccsd:              48755833
 Max. memory used in ccsd:                63342105
 Max. memory used in cckext:              42809278 (17 integral passes)



 **********************************************************************************************************************************
 DATASETS  * FILE   NREC   LENGTH (MB)   RECORD NAMES
              1      19    12452.38       500      610      700      900      950      970     1000      129      960     1100   
                                          VAR    BASINP    GEOM    SYMINP    ZMAT    AOBASIS   BASIS     P2S    ABASIS      S 
                                         1400     1410     1200     1210     1080     1600     1650     1700     1380   
                                           T        V       H0       H01     AOSYM     SMH    MOLCAS    OPER     JKOP   

              2       4       13.79       700     1000      520     2100   
                                         GEOM     BASIS   MCVARS     RHF  

 PROGRAMS   *        TOTAL   CCSD(T)    HF-SCF       INT
 CPU TIMES  *     50608.50  45722.66   2859.24   2026.39
 REAL TIME  *     52928.27 SEC
 DISK USED  *        14.28 GB (local),      509.37 GB (total)
 SF USED    *        13.87 GB
 GA USED    *         0.00 MB       (max)       0.00 MB       (current)
 **********************************************************************************************************************************

 Running procedure: SET_MONOMER1

 Dummy atoms: C1  H41  H42  H43  H44


 Recomputing one-electron integrals since nuclear charges changed


 PROGRAM * SEWARD (Integral evaluation for generally contracted gaussian basis sets)     Author: Roland Lindh, 1990

 Geometry written to block  1 of record 700


 Point group  C1  



 ATOMIC COORDINATES

 NR  ATOM    CHARGE       X              Y              Z

   1  O19     8.00  -12.424571324    5.951692429   -0.288750152
   2  H37     1.00  -14.111151890    6.508027800   -0.711859831
   3  H38     1.00  -12.410587350    5.867599617    1.622329878
   4  C1      0.00   -6.193010455    2.801518980    2.403542658
   5  H41     0.00   -4.656285171    1.699997622    3.119937832
   6  H42     0.00   -5.973046335    4.726205038    2.982932688
   7  H43     0.00   -7.940251230    2.077186956    3.118237078
   8  H44     0.00   -6.176569838    2.685300823    0.384937212

 Bond lengths in Bohr (Angstrom)

 1-2  1.825673808  1-3  1.912980406  4-5  2.021904040  4-6  2.022002335  4-7  2.021953343
     ( 0.966104974)     ( 1.012305636)     ( 1.069945541)     ( 1.069997556)     ( 1.069971630)

 4-8  2.022015060
     ( 1.070004290)

 Bond angles

  2-1-3  104.57658282   5-4-6  109.53398059   5-4-7  109.65604535   5-4-8  108.43490854

  6-4-7  109.49436728   6-4-8  109.86987750   7-4-8  109.83468330

 NUCLEAR CHARGE:                   10
 NUMBER OF PRIMITIVE AOS:        1046
 NUMBER OF SYMMETRY AOS:          786
 NUMBER OF CONTRACTIONS:          734   (  734A   )
 NUMBER OF CORE ORBITALS:           1   (    1A   )
 NUMBER OF VALENCE ORBITALS:        6   (    6A   )

 MOLECULE CHANGED: INITIALIZING OCCUPATION AND DUMP RECORDS


 NUCLEAR REPULSION ENERGY    8.90195171

 Basis set:  JKFIT                   
 Basis size:  1104
 Attributes:
 Sphericals:   T
 Basis set:  MP2FIT                  
 Basis size:  1246
 Attributes:
 Sphericals:   T
 Basis set:  RI                      
 Basis size:   730
 Attributes:
 Sphericals:   T
 Basis set:  TDDFT                   
 Basis size:  1246
 Attributes:
 Sphericals:   T

 Eigenvalues of metric

         1 0.143E-05 0.188E-05 0.356E-05 0.514E-05 0.541E-05 0.801E-05 0.824E-05 0.891E-05


 Contracted 2-electron integrals neglected if value below      1.0D-14

 OPERATOR DM      FOR CENTER  0  COORDINATES:    0.000000    0.000000    0.000000


 **********************************************************************************************************************************
 DATASETS  * FILE   NREC   LENGTH (MB)   RECORD NAMES
              1      18       49.80       500      610      700      900      950      970     1000      129      960     1100   
                                          VAR    BASINP    GEOM    SYMINP    ZMAT    AOBASIS   BASIS     P2S    ABASIS      S 
                                         1400     1410     1200     1210     1080     1600     1650     1700   
                                           T        V       H0       H01     AOSYM     SMH    MOLCAS    OPER   

              2       5       24.61       700     1000      520     2100      200   
                                         GEOM     BASIS   MCVARS     RHF    OPTIONS    

 PROGRAMS   *        TOTAL       INT   CCSD(T)    HF-SCF       INT
 CPU TIMES  *     50609.43      0.92  45722.66   2859.24   2026.39
 REAL TIME  *     52931.19 SEC
 DISK USED  *        14.28 GB (local),      509.40 GB (total)
 SF USED    *        13.87 GB
 GA USED    *         0.00 MB       (max)       0.00 MB       (current)
 **********************************************************************************************************************************


 PROGRAM * RHF-SCF (CLOSED SHELL)       Authors: W. Meyer, H.-J. Werner


 NUMBER OF ELECTRONS:       5+    5-    SPACE SYMMETRY=1    SPIN SYMMETRY: Singlet 
 CONVERGENCE THRESHOLDS:    1.00E-08 (Density)    1.00E-11 (Energy)
 MAX. NUMBER OF ITERATIONS:       60
 INTERPOLATION TYPE:            DIIS
 INTERPOLATION STEPS:              2 (START)      1 (STEP)
 LEVEL SHIFTS:                  0.00 (CLOSED)  0.00 (OPEN) 



 Orbital guess generated from atomic densities. Full valence occupancy:    7

 Molecular orbital dump at record        2101.2

 Initial occupancy:   5

 ITERATION    DDIFF          GRAD             ENERGY        2-EL.EN.            DIPOLE MOMENTS         DIIS   ORB.
    1      0.000D+00      0.000D+00       -76.02308446     77.282815   -0.84871    0.23878    0.77536    0    start
    2      0.000D+00      0.361D-02       -76.05003425     73.573616   -0.49440    0.13989    0.43271    1    diag
    3      0.131D-02      0.233D-02       -76.06209210     75.230841   -0.58518    0.16540    0.51642    2    diag
    4      0.500D-03      0.218D-03       -76.06229712     75.138552   -0.58275    0.16487    0.51042    3    diag
    5      0.644D-04      0.629D-04       -76.06232084     75.153716   -0.58193    0.16471    0.50805    4    diag
    6      0.220D-04      0.130D-04       -76.06232250     75.152497   -0.58178    0.16469    0.50737    5    diag
    7      0.609D-05      0.271D-05       -76.06232258     75.152644   -0.58173    0.16468    0.50718    6    diag
    8      0.163D-05      0.491D-06       -76.06232259     75.152629   -0.58171    0.16468    0.50714    7    diag
    9      0.299D-06      0.693D-07       -76.06232259     75.152619   -0.58170    0.16468    0.50714    8    diag
   10      0.419D-07      0.169D-07       -76.06232259     75.152622   -0.58170    0.16468    0.50714    9    orth
   11      0.887D-08      0.426D-08       -76.06232259     75.152622   -0.58170    0.16468    0.50714    0    orth

 Final occupancy:   5

 !RHF STATE  1.1 Energy               -76.062322586859
 Nuclear energy                         8.90195171
 One-electron energy                 -122.54058522
 Two-electron energy                   37.57631093
 Virial quotient                       -1.00235840
 !RHF STATE  1.1 Dipole moment         -0.58170447     0.16467667     0.50713902
 Dipole moment /Debye                  -1.47844844     0.41853894     1.28893440

 Orbital energies:

         1.1          2.1          3.1          4.1          5.1          6.1          7.1
    -20.569349    -1.337165    -0.700933    -0.578511    -0.508024     0.018065     0.027585


 HOMO      5.1    -0.508024 =     -13.8240eV
 LUMO      6.1     0.018065 =       0.4916eV
 LUMO-HOMO         0.526089 =      14.3156eV


 **********************************************************************************************************************************
 DATASETS  * FILE   NREC   LENGTH (MB)   RECORD NAMES
              1      18       49.80       500      610      700      900      950      970     1000      129      960     1100   
                                          VAR    BASINP    GEOM    SYMINP    ZMAT    AOBASIS   BASIS     P2S    ABASIS      S 
                                         1400     1410     1200     1210     1080     1600     1650     1700   
                                           T        V       H0       H01     AOSYM     SMH    MOLCAS    OPER   

              2       6       38.39       700     1000      520     2100      200     2101   
                                         GEOM     BASIS   MCVARS     RHF    OPTIONS    RHF  

 PROGRAMS   *        TOTAL    HF-SCF       INT   CCSD(T)    HF-SCF       INT
 CPU TIMES  *     53225.82   2616.39      0.92  45722.66   2859.24   2026.39
 REAL TIME  *     55727.40 SEC
 DISK USED  *        14.28 GB (local),      509.40 GB (total)
 SF USED    *        13.87 GB
 GA USED    *         0.00 MB       (max)       0.00 MB       (current)
 **********************************************************************************************************************************

 Basis set:  JKFIT                   
 Basis size:  1104
 Attributes:
 Sphericals:   T
 Basis set:  MP2FIT                  
 Basis size:  1246
 Attributes:
 Sphericals:   T
 Basis set:  RI                      
 Basis size:   730
 Attributes:
 Sphericals:   T
 Basis set:  TDDFT                   
 Basis size:  1246
 Attributes:
 Sphericals:   T

 PROGRAM * CCSD (Closed-shell coupled cluster)     Authors: C. Hampel, H.-J. Werner, 1991, M. Deegan, P.J. Knowles, 1992


 Convergence thresholds:  THRVAR = 1.00D-08  THRDEN = 1.00D-10

 CCSD(T)     terms to be evaluated (factor= 1.000)


 Number of core orbitals:           1 (   1 )
 Number of closed-shell orbitals:   4 (   4 )
 Number of external orbitals:     729 ( 729 )

 Molecular orbitals read from record     2101.2  Type=RHF/CANONICAL (state 1.1)

 Number of N-1 electron functions:               4
 Number of N-2 electron functions:              10
 Number of singly external CSFs:              2916
 Number of doubly external CSFs:           4252986
 Total number of CSFs:                     4255903

 Length of J-op  integral file:               0.00 MB
 Length of K-op  integral file:              37.04 MB
 Length of 3-ext integral record:             0.00 MB

 For full I/O caching in triples, increase memory by 535.09 Mwords to 2535.14 Mwords.

 Integral transformation finished. Total CPU:1479.18 sec, npass=  1  Memory used:1010.01 MW

 Reference energy:                    -76.06232259

 MP2 singlet pair energy:              -0.19276117
 MP2 triplet pair energy:              -0.10257663
 MP2 correlation energy:               -0.29533779
 MP2 total energy:                    -76.35766038

 SCS-MP2 correlation energy:           -0.29513886   (PS=  1.200000  PT=  0.333333)
 SCS-MP2 total energy:                -76.35746145

 ITER.      SQ.NORM     CORR.ENERGY   TOTAL ENERGY   ENERGY CHANGE        DEN1      VAR(S)    VAR(P)  DIIS     TIME  TIME/IT
   1      1.06489631    -0.29511496   -76.35743754     0.00022284     0.00631815  0.85D-03  0.11D-02  1  1  1865.68   396.41
   2      1.06859664    -0.29536062   -76.35768320    -0.00024566    -0.00506455  0.17D-04  0.13D-03  2  2  2253.73   398.95
   3      1.07011140    -0.29544747   -76.35777005    -0.00008685    -0.00106725  0.84D-05  0.72D-05  3  3  2640.29   399.40
   4      1.07062638    -0.29544621   -76.35776880     0.00000125    -0.00024753  0.54D-06  0.79D-06  4  4  3028.10   399.92
   5      1.07073733    -0.29544457   -76.35776716     0.00000164    -0.00003338  0.17D-06  0.55D-07  5  5  3414.77   399.90
   6      1.07077525    -0.29544186   -76.35776445     0.00000271    -0.00000832  0.17D-07  0.44D-08  6  6  3802.80   400.18
   7      1.07078322    -0.29544135   -76.35776393     0.00000051    -0.00000070  0.13D-08  0.65D-09  6  1  4192.61   400.61
   8      1.07078484    -0.29544127   -76.35776385     0.00000008     0.00000009  0.20D-09  0.76D-10  6  2  4583.08   401.01
   9      1.07078551    -0.29544122   -76.35776380     0.00000005    -0.00000000  0.13D-10  0.80D-11  6  3  4972.18   401.25
  10      1.07078559    -0.29544121   -76.35776380     0.00000000     0.00000005  0.20D-11  0.94D-12  6  4  5360.07   401.26
  11      1.07078559    -0.29544121   -76.35776380    -0.00000000     0.00000002  0.44D-12  0.16D-12  6  5  5748.02   401.25
  12      1.07078558    -0.29544121   -76.35776380    -0.00000000     0.00000001  0.88D-13  0.22D-13  6  6  6136.37   401.27
  13      1.07078557    -0.29544122   -76.35776380    -0.00000000     0.00000000  0.13D-13  0.40D-14  6  1  6525.36   401.36
  14      1.07078557    -0.29544122   -76.35776380    -0.00000000     0.00000000  0.14D-14  0.80D-15  6  2  6912.95   401.35
  15      1.07078556    -0.29544122   -76.35776380    -0.00000000     0.00000000  0.15D-15  0.11D-15  6  3  7301.87   401.41
  16      1.07078556    -0.29544122   -76.35776380    -0.00000000     0.00000000  0.20D-16  0.15D-16  6  4  7675.30   400.47

 Norm of t1 vector:      0.03843642      S-energy:    -0.00000000      T1 diagnostic:  0.00960910
                                                                       D1 diagnostic:  0.01989051


 Total CPU time for triples:   3493.98 sec


 RESULTS
 =======

  Reference energy                    -76.062322586857
  CCSD singlet pair energy             -0.204971424895
  CCSD triplet pair energy             -0.090469790346
  CCSD correlation energy              -0.295441215922

  Triples (T) contribution             -0.009993410317
  Total correlation energy             -0.305434626239

  CCSD total energy                   -76.357763802779
  CCSD[T] energy                      -76.368080970350
  CCSD-T energy                       -76.367606715143
 !CCSD(T) total energy                -76.367757213096

 Timing summary (sec):

 STEP                 CPU(USER)    SYS     CPU(TOT)    WALL
 Transformation       1481.23     45.70   1526.93   1529.68
 CCSD iterations      6194.44    206.42   6400.86   6408.44
 Triples              3493.98     92.38   3586.36   3589.93

 Program statistics:

 Available memory in ccsd:              1999999921
 Min. memory needed in ccsd:              19268142
 Max. memory used in ccsd:                22427508
 Max. memory used in cckext:              14646566 (16 integral passes)



 **********************************************************************************************************************************
 DATASETS  * FILE   NREC   LENGTH (MB)   RECORD NAMES
              1      19     6330.40       500      610      700      900      950      970     1000      129      960     1100   
                                          VAR    BASINP    GEOM    SYMINP    ZMAT    AOBASIS   BASIS     P2S    ABASIS      S 
                                         1400     1410     1200     1210     1080     1600     1650     1700     1380   
                                           T        V       H0       H01     AOSYM     SMH    MOLCAS    OPER     JKOP   

              2       6       38.39       700     1000      520     2100      200     2101   
                                         GEOM     BASIS   MCVARS     RHF    OPTIONS    RHF  

 PROGRAMS   *        TOTAL   CCSD(T)    HF-SCF       INT   CCSD(T)    HF-SCF       INT
 CPU TIMES  *     64395.74  11169.92   2616.39      0.92  45722.66   2859.24   2026.39
 REAL TIME  *     67256.74 SEC
 DISK USED  *        14.28 GB (local),      509.40 GB (total)
 SF USED    *        13.87 GB
 GA USED    *         0.00 MB       (max)       0.00 MB       (current)
 **********************************************************************************************************************************

 Running procedure: SET_MONOMER2

 Dummy atoms: O19  H37  H38


 Recomputing one-electron integrals since nuclear charges changed


 PROGRAM * SEWARD (Integral evaluation for generally contracted gaussian basis sets)     Author: Roland Lindh, 1990

 Geometry written to block  1 of record 700


 Point group  C1  



 ATOMIC COORDINATES

 NR  ATOM    CHARGE       X              Y              Z

   1  O19     0.00  -12.424571324    5.951692429   -0.288750152
   2  H37     0.00  -14.111151890    6.508027800   -0.711859831
   3  H38     0.00  -12.410587350    5.867599617    1.622329878
   4  C1      6.00   -6.193010455    2.801518980    2.403542658
   5  H41     1.00   -4.656285171    1.699997622    3.119937832
   6  H42     1.00   -5.973046335    4.726205038    2.982932688
   7  H43     1.00   -7.940251230    2.077186956    3.118237078
   8  H44     1.00   -6.176569838    2.685300823    0.384937212

 Bond lengths in Bohr (Angstrom)

 1-2  1.825673808  1-3  1.912980406  4-5  2.021904040  4-6  2.022002335  4-7  2.021953343
     ( 0.966104974)     ( 1.012305636)     ( 1.069945541)     ( 1.069997556)     ( 1.069971630)

 4-8  2.022015060
     ( 1.070004290)

 Bond angles

  2-1-3  104.57658282   5-4-6  109.53398059   5-4-7  109.65604535   5-4-8  108.43490854

  6-4-7  109.49436728   6-4-8  109.86987750   7-4-8  109.83468330

 NUCLEAR CHARGE:                   10
 NUMBER OF PRIMITIVE AOS:        1046
 NUMBER OF SYMMETRY AOS:          786
 NUMBER OF CONTRACTIONS:          734   (  734A   )
 NUMBER OF CORE ORBITALS:           1   (    1A   )
 NUMBER OF VALENCE ORBITALS:        8   (    8A   )

 MOLECULE CHANGED: INITIALIZING OCCUPATION AND DUMP RECORDS


 NUCLEAR REPULSION ENERGY   13.68681606

 Basis set:  JKFIT                   
 Basis size:  1104
 Attributes:
 Sphericals:   T
 Basis set:  MP2FIT                  
 Basis size:  1246
 Attributes:
 Sphericals:   T
 Basis set:  RI                      
 Basis size:   730
 Attributes:
 Sphericals:   T
 Basis set:  TDDFT                   
 Basis size:  1246
 Attributes:
 Sphericals:   T

 Eigenvalues of metric

         1 0.143E-05 0.188E-05 0.356E-05 0.514E-05 0.541E-05 0.801E-05 0.824E-05 0.891E-05


 Contracted 2-electron integrals neglected if value below      1.0D-14

 OPERATOR DM      FOR CENTER  0  COORDINATES:    0.000000    0.000000    0.000000


 **********************************************************************************************************************************
 DATASETS  * FILE   NREC   LENGTH (MB)   RECORD NAMES
              1      18       49.80       500      610      700      900      950      970     1000      129      960     1100   
                                          VAR    BASINP    GEOM    SYMINP    ZMAT    AOBASIS   BASIS     P2S    ABASIS      S 
                                         1400     1410     1200     1210     1080     1600     1650     1700   
                                           T        V       H0       H01     AOSYM     SMH    MOLCAS    OPER   

              2       6       38.39       700     1000      520     2100      200     2101   
                                         GEOM     BASIS   MCVARS     RHF    OPTIONS    RHF  

 PROGRAMS   *        TOTAL       INT   CCSD(T)    HF-SCF       INT   CCSD(T)    HF-SCF       INT
 CPU TIMES  *     64396.66      0.91  11169.92   2616.39      0.92  45722.66   2859.24   2026.39
 REAL TIME  *     67258.81 SEC
 DISK USED  *        14.28 GB (local),      509.40 GB (total)
 SF USED    *        13.87 GB
 GA USED    *         0.00 MB       (max)       0.00 MB       (current)
 **********************************************************************************************************************************


 PROGRAM * RHF-SCF (CLOSED SHELL)       Authors: W. Meyer, H.-J. Werner


 NUMBER OF ELECTRONS:       5+    5-    SPACE SYMMETRY=1    SPIN SYMMETRY: Singlet 
 CONVERGENCE THRESHOLDS:    1.00E-08 (Density)    1.00E-11 (Energy)
 MAX. NUMBER OF ITERATIONS:       60
 INTERPOLATION TYPE:            DIIS
 INTERPOLATION STEPS:              2 (START)      1 (STEP)
 LEVEL SHIFTS:                  0.00 (CLOSED)  0.00 (OPEN) 



 Orbital guess generated from atomic densities. Full valence occupancy:    9

 Molecular orbital dump at record        2102.2

 Initial occupancy:   5

 ITERATION    DDIFF          GRAD             ENERGY        2-EL.EN.            DIPOLE MOMENTS         DIIS   ORB.
    1      0.000D+00      0.000D+00       -40.19676515     53.509900    0.00411   -0.00276   -0.00131    0    start
    2      0.000D+00      0.198D-02       -40.21405735     52.218476    0.00128   -0.00087   -0.00039    1    diag
    3      0.948D-03      0.769D-03       -40.21634078     52.673983    0.00182   -0.00123   -0.00056    2    diag
    4      0.258D-03      0.192D-03       -40.21666111     52.619246    0.00162   -0.00110   -0.00049    3    diag
    5      0.958D-04      0.248D-04       -40.21666659     52.621404    0.00159   -0.00108   -0.00048    4    diag
    6      0.323D-04      0.204D-05       -40.21666663     52.621532    0.00159   -0.00108   -0.00048    5    diag
    7      0.626D-05      0.166D-06       -40.21666663     52.621495    0.00159   -0.00108   -0.00048    6    diag
    8      0.429D-06      0.136D-07       -40.21666663     52.621495    0.00159   -0.00108   -0.00048    7    diag
    9      0.536D-07      0.167D-08       -40.21666663     52.621495    0.00159   -0.00108   -0.00048    8    diag
   10      0.110D-07      0.465D-09       -40.21666663     52.621495    0.00159   -0.00108   -0.00048    9    orth
   11      0.116D-08      0.667D-10       -40.21666663     52.621495    0.00159   -0.00108   -0.00048    0    orth

 Final occupancy:   5

 !RHF STATE  1.1 Energy               -40.216666634033
 Nuclear energy                        13.68681606
 One-electron energy                  -80.21423024
 Two-electron energy                   26.31074755
 Virial quotient                       -0.99832816
 !RHF STATE  1.1 Dipole moment          0.00158530    -0.00107714    -0.00047794
 Dipole moment /Debye                   0.00402916    -0.00273763    -0.00121471

 Orbital energies:

         1.1          2.1          3.1          4.1          5.1          6.1          7.1
    -11.196017    -0.950605    -0.551931    -0.549996    -0.547818     0.020548     0.030155


 HOMO      5.1    -0.547818 =     -14.9069eV
 LUMO      6.1     0.020548 =       0.5591eV
 LUMO-HOMO         0.568366 =      15.4660eV


 **********************************************************************************************************************************
 DATASETS  * FILE   NREC   LENGTH (MB)   RECORD NAMES
              1      18       49.80       500      610      700      900      950      970     1000      129      960     1100   
                                          VAR    BASINP    GEOM    SYMINP    ZMAT    AOBASIS   BASIS     P2S    ABASIS      S 
                                         1400     1410     1200     1210     1080     1600     1650     1700   
                                           T        V       H0       H01     AOSYM     SMH    MOLCAS    OPER   

              2       7       62.47       700     1000      520     2100      200     2101     2102   
                                         GEOM     BASIS   MCVARS     RHF    OPTIONS    RHF      RHF  

 PROGRAMS   *        TOTAL    HF-SCF       INT   CCSD(T)    HF-SCF       INT   CCSD(T)    HF-SCF       INT
 CPU TIMES  *     67082.50   2685.84      0.91  11169.92   2616.39      0.92  45722.66   2859.24   2026.39
 REAL TIME  *     70125.62 SEC
 DISK USED  *        14.28 GB (local),      509.40 GB (total)
 SF USED    *        13.87 GB
 GA USED    *         0.00 MB       (max)       0.00 MB       (current)
 **********************************************************************************************************************************

 Basis set:  JKFIT                   
 Basis size:  1104
 Attributes:
 Sphericals:   T
 Basis set:  MP2FIT                  
 Basis size:  1246
 Attributes:
 Sphericals:   T
 Basis set:  RI                      
 Basis size:   730
 Attributes:
 Sphericals:   T
 Basis set:  TDDFT                   
 Basis size:  1246
 Attributes:
 Sphericals:   T

 PROGRAM * CCSD (Closed-shell coupled cluster)     Authors: C. Hampel, H.-J. Werner, 1991, M. Deegan, P.J. Knowles, 1992


 Convergence thresholds:  THRVAR = 1.00D-08  THRDEN = 1.00D-10

 CCSD(T)     terms to be evaluated (factor= 1.000)


 Number of core orbitals:           1 (   1 )
 Number of closed-shell orbitals:   4 (   4 )
 Number of external orbitals:     729 ( 729 )

 Molecular orbitals read from record     2102.2  Type=RHF/CANONICAL (state 1.1)

 Number of N-1 electron functions:               4
 Number of N-2 electron functions:              10
 Number of singly external CSFs:              2916
 Number of doubly external CSFs:           4252986
 Total number of CSFs:                     4255903

 Length of J-op  integral file:               0.00 MB
 Length of K-op  integral file:              37.04 MB
 Length of 3-ext integral record:             0.00 MB

 For full I/O caching in triples, increase memory by 535.09 Mwords to 2535.14 Mwords.

 Integral transformation finished. Total CPU:1463.94 sec, npass=  1  Memory used:1010.01 MW

 Reference energy:                    -40.21666663

 MP2 singlet pair energy:              -0.15787532
 MP2 triplet pair energy:              -0.05682262
 MP2 correlation energy:               -0.21469794
 MP2 total energy:                    -40.43136458

 SCS-MP2 correlation energy:           -0.22480668   (PS=  1.200000  PT=  0.333333)
 SCS-MP2 total energy:                -40.44147331

 ITER.      SQ.NORM     CORR.ENERGY   TOTAL ENERGY   ENERGY CHANGE        DEN1      VAR(S)    VAR(P)  DIIS     TIME  TIME/IT
   1      1.07073149    -0.22924142   -40.44590805    -0.01454348    -0.00881155  0.58D-03  0.96D-03  1  1  1850.94   397.41
   2      1.07565328    -0.23033615   -40.44700278    -0.00109473    -0.00537198  0.15D-04  0.11D-03  2  2  2238.97   399.70
   3      1.07738980    -0.23037666   -40.44704329    -0.00004051    -0.00128238  0.20D-05  0.63D-05  3  3  2626.53   400.15
   4      1.07778015    -0.23037839   -40.44704502    -0.00000173    -0.00020098  0.14D-06  0.35D-06  4  4  3013.34   400.29
   5      1.07783451    -0.23038215   -40.44704878    -0.00000376    -0.00001096  0.13D-07  0.24D-07  5  5  3399.21   400.12
   6      1.07784464    -0.23038083   -40.44704746     0.00000132    -0.00000414  0.77D-09  0.17D-08  6  6  3786.05   400.12
   7      1.07784595    -0.23038046   -40.44704709     0.00000037    -0.00000073  0.52D-10  0.13D-09  6  1  4172.61   400.16
   8      1.07784587    -0.23038051   -40.44704715    -0.00000006     0.00000024  0.55D-11  0.78D-11  6  3  4558.19   400.04
   9      1.07784601    -0.23038049   -40.44704713     0.00000002    -0.00000009  0.38D-12  0.55D-12  6  2  4944.52   400.01
  10      1.07784601    -0.23038049   -40.44704713     0.00000000     0.00000001  0.53D-13  0.60D-13  6  4  5331.14   400.02
  11      1.07784602    -0.23038049   -40.44704713     0.00000000    -0.00000000  0.54D-14  0.63D-14  6  5  5717.50   399.95
  12      1.07784601    -0.23038049   -40.44704713     0.00000000     0.00000000  0.15D-15  0.64D-15  6  6  6103.57   399.96
  13      1.07784601    -0.23038049   -40.44704713    -0.00000000     0.00000000  0.13D-16  0.73D-16  6  1  6489.46   399.93
  14      1.07784601    -0.23038049   -40.44704713    -0.00000000     0.00000000  0.31D-17  0.16D-16  6  3  6866.80   399.23

 Norm of t1 vector:      0.03185958      S-energy:     0.00000000      T1 diagnostic:  0.00796490
                                                                       D1 diagnostic:  0.01279366

 Total CPU time for triples:   3486.29 sec


 RESULTS
 =======

  Reference energy                    -40.216666634034
  CCSD singlet pair energy             -0.175398622997
  CCSD triplet pair energy             -0.054981868816
  CCSD correlation energy              -0.230380491810

  Triples (T) contribution             -0.007018584343
  Total correlation energy             -0.237399076153

  CCSD total energy                   -40.447047125844
  CCSD[T] energy                      -40.454289549408
  CCSD-T energy                       -40.453998755899
 !CCSD(T) total energy                -40.454065710187

 Timing summary (sec):

 STEP                 CPU(USER)    SYS     CPU(TOT)    WALL
 Transformation       1465.84     46.13   1511.97   1513.66
 CCSD iterations      5401.34    180.81   5582.15   5590.05
 Triples              3486.29     91.19   3577.48   3581.04

 Program statistics:

 Available memory in ccsd:              1999999916
 Min. memory needed in ccsd:              19268142
 Max. memory used in ccsd:                22427508
 Max. memory used in cckext:              14646566 (14 integral passes)



 **********************************************************************************************************************************
 DATASETS  * FILE   NREC   LENGTH (MB)   RECORD NAMES
              1      19     6330.40       500      610      700      900      950      970     1000      129      960     1100   
                                          VAR    BASINP    GEOM    SYMINP    ZMAT    AOBASIS   BASIS     P2S    ABASIS      S 
                                         1400     1410     1200     1210     1080     1600     1650     1700     1380   
                                           T        V       H0       H01     AOSYM     SMH    MOLCAS    OPER     JKOP   

              2       7       62.47       700     1000      520     2100      200     2101     2102   
                                         GEOM     BASIS   MCVARS     RHF    OPTIONS    RHF      RHF  

 PROGRAMS   *        TOTAL   CCSD(T)    HF-SCF       INT   CCSD(T)    HF-SCF       INT   CCSD(T)    HF-SCF       INT
 CPU TIMES  *     77436.23  10353.73   2685.84      0.91  11169.92   2616.39      0.92  45722.66   2859.24   2026.39
 REAL TIME  *     80811.64 SEC
 DISK USED  *        14.28 GB (local),      509.40 GB (total)
 SF USED    *        13.87 GB
 GA USED    *         0.00 MB       (max)       0.00 MB       (current)
 **********************************************************************************************************************************
 Molecular orbitals read from record     2102.2  Type=RHF/CANONICAL (state 1.1)
 Occupation numbers read from record     2102.2  Type=RHF/RHF (state 1.1)
 Orbital energies read from record       2102.2  Type=RHF/CANONICAL (state 1.1)
 Redundancy group numbers read from rec  2102.2  Type=RHF/RHF (state 1.1)

 CCSD(T)/aug-cc-pV5Z energy=    -40.454065710187

         CCSD(T)          HF-SCF         CCSD(T)          HF-SCF         CCSD(T)          HF-SCF
    -40.45406571    -40.21666663    -76.36775721    -76.06232259   -116.82225294   -116.27888456
 **********************************************************************************************************************************
 Molpro calculation terminated
