
 Primary working directories    : /scratch/klimes/387208/molpro.lbfPjpPEzY
 Secondary working directories  : /scratch/klimes/387208/molpro.lbfPjpPEzY
 Wavefunction directory         : /scratch/klimes/387208/
 Main file repository           : /scratch/klimes/387208/molpro.lbfPjpPEzY/

 id        : karlovklimes

 Nodes                      nprocs
 nc-03.cc.karlov.mff.cuni.cz    4

 Using customized tuning parameters: mindgm=1; mindgv=20; mindgc=4; mindgr=1; noblas=0; minvec=7
 default implementation of scratch files=sf  


 Variables initialized (930), CPU time= 0.01 sec
                                                                                 !gdirect
 memory,2000,m
 gthresh,orbital=1d-10,energy=1d-10,grid=1d-8
 
 symmetry,nosym
 angstrom
 geometry={
 O20        -6.561800000000      3.004400000000      2.437800000000
 H39        -6.427800000000      2.081100000000      2.759600000000
 H40        -5.876000000000      3.542400000000      2.882400000000
 C1        -3.277200000000      1.482500000000      1.271900000000
 H41        -2.464000000000      0.899600000000      1.651000000000
 H42        -3.160800000000      2.501000000000      1.578500000000
 H43        -4.201800000000      1.099200000000      1.650100000000
 H44        -3.268500000000      1.421000000000      0.203700000000
 }
 
 nkerna=1
 nkernb=1
 
 gf=0
 sing=1
 thrdum=1d-4
 gridthr=1d-8
 
 basis={
 set,orbital
 default,av5z
 set,jkfit
 default,av5z/jkfit
 set,mp2fit
 default,av5z/mp2fit
 set,ri
 default,av5z/optri
 set,tddft
 default,av5z/mp2fit
 }
 
 proc set_monomer1
 dummy,4,5,6,7,8
 endproc
 
 proc set_monomer2
 dummy,1,2,3
 endproc
 
                                                                                 !1234 energy
 {hf,accu=1.d-16}
 ccsd(t)
 
 set_monomer1
 {hf,accu=1.d-16}
 ccsd(t)
 
 set_monomer2
 {hf,accu=1.d-16}
 ccsd(t)
 
 Commands  initialized (760), CPU time= 0.02 sec, 617 directives.
 Default parameters read. Elapsed time= 0.20 sec

 Checking input...
 Passed
1


                                         ***  PROGRAM SYSTEM MOLPRO  ***
                                       Copyright, TTI GmbH Stuttgart, 2015
                                    Version 2019.1 linked Jan 14 2019 13:09:19


 **********************************************************************************************************************************
 LABEL *                                                                                 
  64 bit mpp version                                                                     DATE: 12-Mar-20          TIME: 20:51:07  
 **********************************************************************************************************************************

 SHA1:             d688ac825633d238f2093ded1675ba87ccd55965
 **********************************************************************************************************************************

 THRESHOLDS:

 ZERO    =  1.00D-12  ONEINT  =  1.00D-12  TWOINT  =  1.00D-11  PREFAC  =  1.00D-14  XXXXXX  =  1.00D-09  EORDER  =  1.00D-04
 ENERGY  =  1.00D-10  ETEST   =  0.00D+00  EDENS   =  0.00D+00  THRDEDEF=  1.00D-06  GRADIENT=  1.00D-02  STEP    =  1.00D-03
 ORBITAL =  1.00D-10  CIVEC   =  1.00D-05  COEFF   =  1.00D-04  PRINTCI =  5.00D-02  PUNCHCI =  9.90D+01  OPTGRAD =  3.00D-04
 OPTENERG=  1.00D-06  OPTSTEP =  3.00D-04  THRGRAD =  1.00D-10  COMPRESS=  1.00D-11  VARMIN  =  1.00D-07  VARMAX  =  1.00D-03
 THRDOUB =  0.00D+00  THRDIV  =  1.00D-05  THRRED  =  1.00D-07  THRPSP  =  1.00D+00  THRDC   =  1.00D-10  THRCS   =  1.00D-10
 THRNRM  =  1.00D-08  THREQ   =  0.00D+00  THRDE   =  1.00D+00  THRREF  =  1.00D-05  SPARFAC =  1.00D+00  THRDLP  =  1.00D-07
 THRDIA  =  1.00D-10  THRDLS  =  1.00D-07  THRGPS  =  0.00D+00  THRKEX  =  0.00D+00  THRDIS  =  2.00D-01  THRVAR  =  1.00D-10
 THRLOC  =  1.00D-06  THRGAP  =  1.00D-06  THRLOCT = -1.00D+00  THRGAPT = -1.00D+00  THRORB  =  1.00D-06  THRMLTP =  0.00D+00
 THRCPQCI=  1.00D-10  KEXTA   =  0.00D+00  THRCOARS=  0.00D+00  SYMTOL  =  1.00D-06  GRADTOL =  1.00D-06  THROVL  =  1.00D-08
 THRORTH =  1.00D-08  GRID    =  1.00D-08  GRIDMAX =  1.00D-03  DTMAX   =  0.00D+00  THROCCDE=  1.00D-01  THROCCDE=  1.00D-01
 THRPRINT=  2.50D-01


 Variable memory set to 2000000000 words,  buffer space 

 ZSYMEL=NOSYM
 ZUNIT=ANG


Geometry recognized as XYZ

 SETTING NKERNA         =         1.00000000                                  
 SETTING NKERNB         =         1.00000000                                  
 SETTING GF             =     0.00000000D+00                                  
 SETTING SING           =         1.00000000                                  
 SETTING THRDUM         =     1.00000000D-04                                  
 SETTING GRIDTHR        =     1.00000000D-08                                  
 SETTING BASIS          =    AV5Z


 Recomputing integrals since basis changed


 Using spherical harmonics

 Library entry O      S aug-cc-pV5Z          selected for orbital group  1
 Library entry O      P aug-cc-pV5Z          selected for orbital group  1
 Library entry O      D aug-cc-pV5Z          selected for orbital group  1
 Library entry O      F aug-cc-pV5Z          selected for orbital group  1
 Library entry O      G aug-cc-pV5Z          selected for orbital group  1
 Library entry O      H aug-cc-pV5Z          selected for orbital group  1
 Library entry H      S aug-cc-pV5Z          selected for orbital group  2
 Library entry H      P aug-cc-pV5Z          selected for orbital group  2
 Library entry H      D aug-cc-pV5Z          selected for orbital group  2
 Library entry H      F aug-cc-pV5Z          selected for orbital group  2
 Library entry H      G aug-cc-pV5Z          selected for orbital group  2
 Library entry C      S aug-cc-pV5Z          selected for orbital group  3
 Library entry C      P aug-cc-pV5Z          selected for orbital group  3
 Library entry C      D aug-cc-pV5Z          selected for orbital group  3
 Library entry C      F aug-cc-pV5Z          selected for orbital group  3
 Library entry C      G aug-cc-pV5Z          selected for orbital group  3
 Library entry C      H aug-cc-pV5Z          selected for orbital group  3


 PROGRAM * SEWARD (Integral evaluation for generally contracted gaussian basis sets)     Author: Roland Lindh, 1990

 Geometry written to block  1 of record 700


 Point group  C1  



 ATOMIC COORDINATES

 NR  ATOM    CHARGE       X              Y              Z

   1  O20     8.00  -12.400004884    5.677493169    4.606774346
   2  H39     1.00  -12.146781583    3.932709038    5.214888213
   3  H40     1.00  -11.104030708    6.694165824    5.446946581
   4  C1      6.00   -6.193010455    2.801518980    2.403542658
   5  H41     1.00   -4.656285171    1.699997622    3.119937832
   6  H42     1.00   -5.973046335    4.726205038    2.982932688
   7  H43     1.00   -7.940251230    2.077186956    3.118237078
   8  H44     1.00   -6.176569838    2.685300823    0.384937212

 Bond lengths in Bohr (Angstrom)

 1-2  1.864992273  1-3  1.849070506  4-5  2.021904040  4-6  2.022002335  4-7  2.021953343
     ( 0.986911409)     ( 0.978485973)     ( 1.069945541)     ( 1.069997556)     ( 1.069971630)

 4-8  2.022015060
     ( 1.070004290)

 Bond angles

  2-1-3  105.72790617   5-4-6  109.53398059   5-4-7  109.65604535   5-4-8  108.43490854

  6-4-7  109.49436728   6-4-8  109.86987750   7-4-8  109.83468330

 NUCLEAR CHARGE:                   20
 NUMBER OF PRIMITIVE AOS:        1046
 NUMBER OF SYMMETRY AOS:          786
 NUMBER OF CONTRACTIONS:          734   (  734A   )
 NUMBER OF CORE ORBITALS:           2   (    2A   )
 NUMBER OF VALENCE ORBITALS:       14   (   14A   )


 NUCLEAR REPULSION ENERGY   36.69183171


 Basis set:  JKFIT                   
 Basis size:  1104
 Attributes:
 Sphericals:   T
 Basis set:  MP2FIT                  
 Basis size:  1246
 Attributes:
 Sphericals:   T
 Basis set:  RI                      
 Basis size:   730
 Attributes:
 Sphericals:   T
 Basis set:  TDDFT                   
 Basis size:  1246
 Attributes:
 Sphericals:   T

 **********************************************************************************************************************************


 Eigenvalues of metric

         1 0.192E-05 0.274E-05 0.348E-05 0.441E-05 0.516E-05 0.694E-05 0.800E-05 0.929E-05


 Contracted 2-electron integrals neglected if value below      1.0D-14
 AO integral compression algorithm  1   Integral accuracy      1.0D-14

     159446.204 MB (compressed) written to integral file ( 50.5%)

     Node minimum: 37223.399 MB, node maximum: 43368.317 MB


 NUMBER OF SORTED TWO-ELECTRON INTEGRALS: 9095363064.     BUFFER LENGTH:  32768
 NUMBER OF SEGMENTS: 190  SEGMENT LENGTH:   47999780      RECORD LENGTH: 131072

 Memory used in sort:      48.16 MW

 SORT1 READ 39471791889. AND WROTE  7183316347. INTEGRALS IN  82302 RECORDS. CPU TIME:  1142.31 SEC, REAL TIME:  1437.79 SEC
 SORT2 READ 28738277401. AND WROTE 36381317385. INTEGRALS IN 567984 RECORDS. CPU TIME:   117.74 SEC, REAL TIME:   975.60 SEC

 Node minimum:  9095228192.  Node maximum:  9095430501. integrals

 OPERATOR DM      FOR CENTER  0  COORDINATES:    0.000000    0.000000    0.000000


 **********************************************************************************************************************************
 DATASETS  * FILE   NREC   LENGTH (MB)   RECORD NAMES
              1      18       49.80       500      610      700      900      950      970     1000      129      960     1100   
                                          VAR    BASINP    GEOM    SYMINP    ZMAT    AOBASIS   BASIS     P2S    ABASIS      S 
                                         1400     1410     1200     1210     1080     1600     1650     1700   
                                           T        V       H0       H01     AOSYM     SMH    MOLCAS    OPER   

 PROGRAMS   *        TOTAL       INT
 CPU TIMES  *      2419.58   2419.36
 REAL TIME  *      3677.53 SEC
 DISK USED  *        50.44 MB (local),      504.15 GB (total)
 GA USED    *         0.00 MB       (max)       0.00 MB       (current)
 **********************************************************************************************************************************


 PROGRAM * RHF-SCF (CLOSED SHELL)       Authors: W. Meyer, H.-J. Werner


 NUMBER OF ELECTRONS:      10+   10-    SPACE SYMMETRY=1    SPIN SYMMETRY: Singlet 
 CONVERGENCE THRESHOLDS:    1.00E-08 (Density)    1.00E-11 (Energy)
 MAX. NUMBER OF ITERATIONS:       60
 INTERPOLATION TYPE:            DIIS
 INTERPOLATION STEPS:              2 (START)      1 (STEP)
 LEVEL SHIFTS:                  0.00 (CLOSED)  0.00 (OPEN) 



 Orbital guess generated from atomic densities. Full valence occupancy:   16

 Molecular orbital dump at record        2100.2

 Initial occupancy:  10

 ITERATION    DDIFF          GRAD             ENERGY        2-EL.EN.            DIPOLE MOMENTS         DIIS   ORB.
    1      0.000D+00      0.000D+00      -116.22144830    158.826489    0.79919   -0.37782    0.73996    0    start
    2      0.000D+00      0.291D-02      -116.26575223    153.971194    0.47204   -0.21001    0.38264    1    diag
    3      0.161D-02      0.172D-02      -116.27948329    156.009875    0.55501   -0.25185    0.47552    2    diag
    4      0.556D-03      0.256D-03      -116.28015407    155.897605    0.54673   -0.24785    0.46949    3    diag
    5      0.126D-03      0.752D-04      -116.28022458    155.892334    0.54654   -0.24773    0.46895    4    diag
    6      0.520D-04      0.183D-04      -116.28022852    155.898042    0.54600   -0.24754    0.46839    5    diag
    7      0.186D-04      0.368D-05      -116.28022875    155.896313    0.54600   -0.24756    0.46840    6    diag
    8      0.550D-05      0.946D-06      -116.28022877    155.896497    0.54596   -0.24755    0.46835    7    diag
    9      0.126D-05      0.223D-06      -116.28022877    155.896469    0.54594   -0.24754    0.46833    8    diag
   10      0.308D-06      0.271D-07      -116.28022877    155.896471    0.54594   -0.24754    0.46833    9    orth
   11      0.620D-07      0.669D-08      -116.28022877    155.896472    0.54594   -0.24754    0.46833    9    diag
   12      0.495D-08      0.187D-08      -116.28022877    155.896472    0.54594   -0.24754    0.46833    0    orth

 Final occupancy:  10

 !RHF STATE  1.1 Energy              -116.280228771847
 Nuclear energy                        36.69183171
 One-electron energy                 -230.92029634
 Two-electron energy                   77.94823586
 Virial quotient                       -1.00078436
 !RHF STATE  1.1 Dipole moment          0.54594196    -0.24753736     0.46833215
 Dipole moment /Debye                   1.38755517    -0.62913601     1.19030362

 Orbital energies:

         1.1          2.1          3.1          4.1          5.1          6.1          7.1          8.1          9.1         10.1
    -20.566883   -11.200057    -1.338382    -0.954528    -0.705692    -0.577850    -0.556162    -0.554366    -0.551255    -0.506738

        11.1         12.1
      0.020148     0.033598


 HOMO     10.1    -0.506738 =     -13.7891eV
 LUMO     11.1     0.020148 =       0.5483eV
 LUMO-HOMO         0.526886 =      14.3373eV


 **********************************************************************************************************************************
 DATASETS  * FILE   NREC   LENGTH (MB)   RECORD NAMES
              1      18       49.80       500      610      700      900      950      970     1000      129      960     1100   
                                          VAR    BASINP    GEOM    SYMINP    ZMAT    AOBASIS   BASIS     P2S    ABASIS      S 
                                         1400     1410     1200     1210     1080     1600     1650     1700   
                                           T        V       H0       H01     AOSYM     SMH    MOLCAS    OPER   

              2       4       13.79       700     1000      520     2100   
                                         GEOM     BASIS   MCVARS     RHF  

 PROGRAMS   *        TOTAL    HF-SCF       INT
 CPU TIMES  *      5189.20   2769.62   2419.36
 REAL TIME  *      6823.50 SEC
 DISK USED  *       102.61 MB (local),      504.36 GB (total)
 SF USED    *         2.16 MB
 GA USED    *         0.00 MB       (max)       0.00 MB       (current)
 **********************************************************************************************************************************

 Basis set:  JKFIT                   
 Basis size:  1104
 Attributes:
 Sphericals:   T
 Basis set:  MP2FIT                  
 Basis size:  1246
 Attributes:
 Sphericals:   T
 Basis set:  RI                      
 Basis size:   730
 Attributes:
 Sphericals:   T
 Basis set:  TDDFT                   
 Basis size:  1246
 Attributes:
 Sphericals:   T

 PROGRAM * CCSD (Closed-shell coupled cluster)     Authors: C. Hampel, H.-J. Werner, 1991, M. Deegan, P.J. Knowles, 1992


 Convergence thresholds:  THRVAR = 1.00D-08  THRDEN = 1.00D-10

 CCSD(T)     terms to be evaluated (factor= 1.000)


 Number of core orbitals:           2 (   2 )
 Number of closed-shell orbitals:   8 (   8 )
 Number of external orbitals:     724 ( 724 )

 Molecular orbitals read from record     2100.2  Type=RHF/CANONICAL (state 1.1)

 Number of N-1 electron functions:               8
 Number of N-2 electron functions:              36
 Number of singly external CSFs:              5792
 Number of doubly external CSFs:          16776528
 Total number of CSFs:                    16782321

 Length of J-op  integral file:               0.00 MB
 Length of K-op  integral file:              37.04 MB
 Length of 3-ext integral record:             0.00 MB

 For full I/O caching in triples, increase memory by 2034.74 Mwords to 4034.79 Mwords.

 Integral transformation finished. Total CPU:3475.18 sec, npass=  1  Memory used:1826.26 MW

 Reference energy:                   -116.28022877

 MP2 singlet pair energy:              -0.35050021
 MP2 triplet pair energy:              -0.15977332
 MP2 correlation energy:               -0.51027352
 MP2 total energy:                   -116.79050230

 SCS-MP2 correlation energy:           -0.52001476   (PS=  1.200000  PT=  0.333333)
 SCS-MP2 total energy:               -116.80024353

 ITER.      SQ.NORM     CORR.ENERGY   TOTAL ENERGY   ENERGY CHANGE        DEN1      VAR(S)    VAR(P)  DIIS     TIME  TIME/IT
   1      1.13546053    -0.52465538  -116.80488415    -0.01438185    -0.00263445  0.14D-02  0.20D-02  1  1  4721.79  1293.07
   2      1.14389587    -0.52599107  -116.80621984    -0.00133569    -0.01027931  0.32D-04  0.26D-03  2  2  5971.93  1305.67
   3      1.14723543    -0.52611950  -116.80634828    -0.00012844    -0.00240328  0.11D-04  0.14D-04  3  3  7223.41  1309.67
   4      1.14815400    -0.52611603  -116.80634481     0.00000347    -0.00046449  0.65D-06  0.13D-05  4  4  8484.78  1310.46
   5      1.14832269    -0.52611787  -116.80634664    -0.00000183    -0.00004562  0.21D-06  0.94D-07  5  5  9745.79  1310.67
   6      1.14837118    -0.52611489  -116.80634366     0.00000297    -0.00001052  0.22D-07  0.79D-08  6  6 11012.06  1310.96
   7      1.14838170    -0.52611363  -116.80634240     0.00000126    -0.00000216  0.22D-08  0.11D-08  6  2 12278.59  1311.03
   8      1.14838415    -0.52611341  -116.80634218     0.00000021    -0.00000021  0.39D-09  0.12D-09  6  1 13549.22  1311.31
   9      1.14838510    -0.52611336  -116.80634213     0.00000005    -0.00000001  0.35D-10  0.18D-10  6  3 14818.34  1311.28
  10      1.14838525    -0.52611336  -116.80634213    -0.00000000     0.00000009  0.39D-11  0.25D-11  6  4 16072.98  1309.79
  11      1.14838522    -0.52611337  -116.80634214    -0.00000001     0.00000008  0.67D-12  0.33D-12  6  5 17321.91  1308.08
  12      1.14838520    -0.52611337  -116.80634214    -0.00000000     0.00000002  0.12D-12  0.44D-13  6  6 18567.28  1306.24
  13      1.14838518    -0.52611337  -116.80634214    -0.00000000     0.00000001  0.24D-13  0.69D-14  6  2 19815.25  1304.86
  14      1.14838517    -0.52611337  -116.80634215    -0.00000000     0.00000000  0.36D-14  0.14D-14  6  1 21059.26  1303.25
  15      1.14838517    -0.52611337  -116.80634215    -0.00000000    -0.00000000  0.45D-15  0.24D-15  6  3 22300.37  1301.85
  16      1.14838517    -0.52611337  -116.80634215    -0.00000000    -0.00000000  0.82D-16  0.36D-16  6  4 23547.70  1300.89
  17      1.14838517    -0.52611337  -116.80634215     0.00000000    -0.00000000  0.29D-16  0.92D-17  6  5 24793.11  1300.13

 Norm of t1 vector:      0.05014089      S-energy:    -0.00000000      T1 diagnostic:  0.00886374
                                                                       D1 diagnostic:  0.02015272

   CPU time for triples:   3417.74 sec for i =  1 -  3 /  8 (~   6.2 % done)
   CPU time for triples:   3436.82 sec for i =  4 -  5 /  8 (~  26.8 % done)
   CPU time for triples:   3434.89 sec for i =  6 -  6 /  8 (~  44.6 % done)
   CPU time for triples:   6863.04 sec for i =  7 -  7 /  8 (~  68.8 % done)
   CPU time for triples:   6871.28 sec for i =  8 -  8 /  8 (  100.0 % done)

 Total CPU time for triples:  24078.60 sec


 RESULTS
 =======

  Reference energy                   -116.280228771854
  CCSD singlet pair energy             -0.380082980505
  CCSD triplet pair energy             -0.146030392583
  CCSD correlation energy              -0.526113373467

  Triples (T) contribution             -0.017088148758
  Total correlation energy             -0.543201522225

  CCSD total energy                  -116.806342145321
  CCSD[T] energy                     -116.823975936626
  CCSD-T energy                      -116.823212975476
 !CCSD(T) total energy               -116.823430294079

 Timing summary (sec):

 STEP                 CPU(USER)    SYS     CPU(TOT)    WALL
 Transformation       3482.31    122.35   3604.66   3627.86
 CCSD iterations     21311.23    529.17  21840.40  22106.82
 Triples             24078.60    510.71  24589.31  24643.83

 Program statistics:

 Available memory in ccsd:              1999999734
 Min. memory needed in ccsd:              48755833
 Max. memory used in ccsd:                63342105
 Max. memory used in cckext:              42809278 (17 integral passes)



 **********************************************************************************************************************************
 DATASETS  * FILE   NREC   LENGTH (MB)   RECORD NAMES
              1      19    12452.38       500      610      700      900      950      970     1000      129      960     1100   
                                          VAR    BASINP    GEOM    SYMINP    ZMAT    AOBASIS   BASIS     P2S    ABASIS      S 
                                         1400     1410     1200     1210     1080     1600     1650     1700     1380   
                                           T        V       H0       H01     AOSYM     SMH    MOLCAS    OPER     JKOP   

              2       4       13.79       700     1000      520     2100   
                                         GEOM     BASIS   MCVARS     RHF  

 PROGRAMS   *        TOTAL   CCSD(T)    HF-SCF       INT
 CPU TIMES  *     54061.63  48872.42   2769.62   2419.36
 REAL TIME  *     57202.86 SEC
 DISK USED  *        14.28 GB (local),      555.63 GB (total)
 SF USED    *        13.87 GB
 GA USED    *         0.00 MB       (max)       0.00 MB       (current)
 **********************************************************************************************************************************

 Running procedure: SET_MONOMER1

 Dummy atoms: C1  H41  H42  H43  H44


 Recomputing one-electron integrals since nuclear charges changed


 PROGRAM * SEWARD (Integral evaluation for generally contracted gaussian basis sets)     Author: Roland Lindh, 1990

 Geometry written to block  1 of record 700


 Point group  C1  



 ATOMIC COORDINATES

 NR  ATOM    CHARGE       X              Y              Z

   1  O20     8.00  -12.400004884    5.677493169    4.606774346
   2  H39     1.00  -12.146781583    3.932709038    5.214888213
   3  H40     1.00  -11.104030708    6.694165824    5.446946581
   4  C1      0.00   -6.193010455    2.801518980    2.403542658
   5  H41     0.00   -4.656285171    1.699997622    3.119937832
   6  H42     0.00   -5.973046335    4.726205038    2.982932688
   7  H43     0.00   -7.940251230    2.077186956    3.118237078
   8  H44     0.00   -6.176569838    2.685300823    0.384937212

 Bond lengths in Bohr (Angstrom)

 1-2  1.864992273  1-3  1.849070506  4-5  2.021904040  4-6  2.022002335  4-7  2.021953343
     ( 0.986911409)     ( 0.978485973)     ( 1.069945541)     ( 1.069997556)     ( 1.069971630)

 4-8  2.022015060
     ( 1.070004290)

 Bond angles

  2-1-3  105.72790617   5-4-6  109.53398059   5-4-7  109.65604535   5-4-8  108.43490854

  6-4-7  109.49436728   6-4-8  109.86987750   7-4-8  109.83468330

 NUCLEAR CHARGE:                   10
 NUMBER OF PRIMITIVE AOS:        1046
 NUMBER OF SYMMETRY AOS:          786
 NUMBER OF CONTRACTIONS:          734   (  734A   )
 NUMBER OF CORE ORBITALS:           1   (    1A   )
 NUMBER OF VALENCE ORBITALS:        6   (    6A   )

 MOLECULE CHANGED: INITIALIZING OCCUPATION AND DUMP RECORDS


 NUCLEAR REPULSION ENERGY    8.95379726

 Basis set:  JKFIT                   
 Basis size:  1104
 Attributes:
 Sphericals:   T
 Basis set:  MP2FIT                  
 Basis size:  1246
 Attributes:
 Sphericals:   T
 Basis set:  RI                      
 Basis size:   730
 Attributes:
 Sphericals:   T
 Basis set:  TDDFT                   
 Basis size:  1246
 Attributes:
 Sphericals:   T

 Eigenvalues of metric

         1 0.192E-05 0.274E-05 0.348E-05 0.441E-05 0.516E-05 0.694E-05 0.800E-05 0.929E-05


 Contracted 2-electron integrals neglected if value below      1.0D-14

 OPERATOR DM      FOR CENTER  0  COORDINATES:    0.000000    0.000000    0.000000


 **********************************************************************************************************************************
 DATASETS  * FILE   NREC   LENGTH (MB)   RECORD NAMES
              1      18       49.80       500      610      700      900      950      970     1000      129      960     1100   
                                          VAR    BASINP    GEOM    SYMINP    ZMAT    AOBASIS   BASIS     P2S    ABASIS      S 
                                         1400     1410     1200     1210     1080     1600     1650     1700   
                                           T        V       H0       H01     AOSYM     SMH    MOLCAS    OPER   

              2       5       24.61       700     1000      520     2100      200   
                                         GEOM     BASIS   MCVARS     RHF    OPTIONS    

 PROGRAMS   *        TOTAL       INT   CCSD(T)    HF-SCF       INT
 CPU TIMES  *     54062.55      0.91  48872.42   2769.62   2419.36
 REAL TIME  *     57205.42 SEC
 DISK USED  *        14.28 GB (local),      555.66 GB (total)
 SF USED    *        13.87 GB
 GA USED    *         0.00 MB       (max)       0.00 MB       (current)
 **********************************************************************************************************************************


 PROGRAM * RHF-SCF (CLOSED SHELL)       Authors: W. Meyer, H.-J. Werner


 NUMBER OF ELECTRONS:       5+    5-    SPACE SYMMETRY=1    SPIN SYMMETRY: Singlet 
 CONVERGENCE THRESHOLDS:    1.00E-08 (Density)    1.00E-11 (Energy)
 MAX. NUMBER OF ITERATIONS:       60
 INTERPOLATION TYPE:            DIIS
 INTERPOLATION STEPS:              2 (START)      1 (STEP)
 LEVEL SHIFTS:                  0.00 (CLOSED)  0.00 (OPEN) 



 Orbital guess generated from atomic densities. Full valence occupancy:    7

 Molecular orbital dump at record        2101.2

 Initial occupancy:   5

 ITERATION    DDIFF          GRAD             ENERGY        2-EL.EN.            DIPOLE MOMENTS         DIIS   ORB.
    1      0.000D+00      0.000D+00       -76.02555641     77.357813    0.79421   -0.37643    0.74321    0    start
    2      0.000D+00      0.360D-02       -76.05231698     73.682447    0.46038   -0.21533    0.43016    1    diag
    3      0.130D-02      0.230D-02       -76.06404223     75.318330    0.54389   -0.25502    0.50833    2    diag
    4      0.495D-03      0.215D-03       -76.06423995     75.226492    0.54053   -0.25286    0.50506    3    diag
    5      0.625D-04      0.609D-04       -76.06426164     75.241140    0.53928   -0.25204    0.50384    4    diag
    6      0.202D-04      0.123D-04       -76.06426309     75.240024    0.53899   -0.25182    0.50355    5    diag
    7      0.541D-05      0.252D-05       -76.06426317     75.240172    0.53890   -0.25175    0.50346    6    diag
    8      0.149D-05      0.476D-06       -76.06426317     75.240159    0.53887   -0.25174    0.50343    7    diag
    9      0.311D-06      0.661D-07       -76.06426317     75.240150    0.53887   -0.25173    0.50343    8    diag
   10      0.398D-07      0.149D-07       -76.06426317     75.240153    0.53887   -0.25173    0.50343    9    orth
   11      0.813D-08      0.259D-08       -76.06426317     75.240152    0.53887   -0.25173    0.50343    0    orth

 Final occupancy:   5

 !RHF STATE  1.1 Energy               -76.064263168078
 Nuclear energy                         8.95379726
 One-electron energy                 -122.63813648
 Two-electron energy                   37.62007605
 Virial quotient                       -1.00214828
 !RHF STATE  1.1 Dipole moment          0.53886730    -0.25173464     0.50342580
 Dipole moment /Debye                   1.36957436    -0.63980372     1.27949694

 Orbital energies:

         1.1          2.1          3.1          4.1          5.1          6.1          7.1
    -20.567830    -1.339048    -0.706261    -0.577739    -0.508113     0.015304     0.032212


 HOMO      5.1    -0.508113 =     -13.8265eV
 LUMO      6.1     0.015304 =       0.4165eV
 LUMO-HOMO         0.523418 =      14.2429eV


 **********************************************************************************************************************************
 DATASETS  * FILE   NREC   LENGTH (MB)   RECORD NAMES
              1      18       49.80       500      610      700      900      950      970     1000      129      960     1100   
                                          VAR    BASINP    GEOM    SYMINP    ZMAT    AOBASIS   BASIS     P2S    ABASIS      S 
                                         1400     1410     1200     1210     1080     1600     1650     1700   
                                           T        V       H0       H01     AOSYM     SMH    MOLCAS    OPER   

              2       6       38.39       700     1000      520     2100      200     2101   
                                         GEOM     BASIS   MCVARS     RHF    OPTIONS    RHF  

 PROGRAMS   *        TOTAL    HF-SCF       INT   CCSD(T)    HF-SCF       INT
 CPU TIMES  *     55986.53   1923.98      0.91  48872.42   2769.62   2419.36
 REAL TIME  *     59460.07 SEC
 DISK USED  *        14.28 GB (local),      555.66 GB (total)
 SF USED    *        13.87 GB
 GA USED    *         0.00 MB       (max)       0.00 MB       (current)
 **********************************************************************************************************************************

 Basis set:  JKFIT                   
 Basis size:  1104
 Attributes:
 Sphericals:   T
 Basis set:  MP2FIT                  
 Basis size:  1246
 Attributes:
 Sphericals:   T
 Basis set:  RI                      
 Basis size:   730
 Attributes:
 Sphericals:   T
 Basis set:  TDDFT                   
 Basis size:  1246
 Attributes:
 Sphericals:   T

 PROGRAM * CCSD (Closed-shell coupled cluster)     Authors: C. Hampel, H.-J. Werner, 1991, M. Deegan, P.J. Knowles, 1992


 Convergence thresholds:  THRVAR = 1.00D-08  THRDEN = 1.00D-10

 CCSD(T)     terms to be evaluated (factor= 1.000)


 Number of core orbitals:           1 (   1 )
 Number of closed-shell orbitals:   4 (   4 )
 Number of external orbitals:     729 ( 729 )

 Molecular orbitals read from record     2101.2  Type=RHF/CANONICAL (state 1.1)

 Number of N-1 electron functions:               4
 Number of N-2 electron functions:              10
 Number of singly external CSFs:              2916
 Number of doubly external CSFs:           4252986
 Total number of CSFs:                     4255903

 Length of J-op  integral file:               0.00 MB
 Length of K-op  integral file:              37.04 MB
 Length of 3-ext integral record:             0.00 MB

 For full I/O caching in triples, increase memory by 535.09 Mwords to 2535.14 Mwords.

 Integral transformation finished. Total CPU:1859.04 sec, npass=  1  Memory used:1010.01 MW

 Reference energy:                    -76.06426317

 MP2 singlet pair energy:              -0.19239612
 MP2 triplet pair energy:              -0.10238116
 MP2 correlation energy:               -0.29477728
 MP2 total energy:                    -76.35904044

 SCS-MP2 correlation energy:           -0.29457917   (PS=  1.200000  PT=  0.333333)
 SCS-MP2 total energy:                -76.35884234

 ITER.      SQ.NORM     CORR.ENERGY   TOTAL ENERGY   ENERGY CHANGE        DEN1      VAR(S)    VAR(P)  DIIS     TIME  TIME/IT
   1      1.06441878    -0.29462311   -76.35888628     0.00015417     0.00615136  0.83D-03  0.11D-02  1  1  2280.60   451.35
   2      1.06803724    -0.29486584   -76.35912901    -0.00024273    -0.00499468  0.16D-04  0.12D-03  2  2  2714.77   457.98
   3      1.06949696    -0.29494796   -76.35921113    -0.00008212    -0.00104028  0.82D-05  0.70D-05  3  3  3148.80   460.56
   4      1.06998938    -0.29494637   -76.35920953     0.00000159    -0.00023889  0.53D-06  0.78D-06  4  4  3584.18   461.28
   5      1.07009737    -0.29494468   -76.35920785     0.00000168    -0.00003297  0.17D-06  0.55D-07  5  5  4020.11   461.41
   6      1.07013389    -0.29494211   -76.35920527     0.00000258    -0.00000794  0.19D-07  0.47D-08  6  6  4456.10   461.98
   7      1.07014201    -0.29494156   -76.35920473     0.00000054    -0.00000075  0.16D-08  0.84D-09  6  1  4890.91   461.97
   8      1.07014391    -0.29494144   -76.35920461     0.00000012    -0.00000011  0.26D-09  0.10D-09  6  2  5325.99   462.14
   9      1.07014461    -0.29494140   -76.35920457     0.00000004     0.00000007  0.22D-10  0.96D-11  6  3  5763.04   462.26
  10      1.07014476    -0.29494139   -76.35920456     0.00000001     0.00000003  0.24D-11  0.13D-11  6  4  6199.56   462.24
  11      1.07014476    -0.29494139   -76.35920456    -0.00000000     0.00000002  0.54D-12  0.17D-12  6  5  6638.98   462.63
  12      1.07014476    -0.29494139   -76.35920456    -0.00000000     0.00000001  0.96D-13  0.29D-13  6  6  7074.71   462.61
  13      1.07014475    -0.29494139   -76.35920456    -0.00000000     0.00000000  0.17D-13  0.54D-14  6  1  7510.96   462.69
  14      1.07014475    -0.29494139   -76.35920456    -0.00000000     0.00000000  0.19D-14  0.85D-15  6  2  7945.07   462.64
  15      1.07014475    -0.29494139   -76.35920456    -0.00000000     0.00000000  0.21D-15  0.14D-15  6  3  8377.66   462.48
  16      1.07014475    -0.29494139   -76.35920456    -0.00000000    -0.00000000  0.48D-16  0.21D-16  6  4  8812.59   462.33

 Norm of t1 vector:      0.03787527      S-energy:    -0.00000000      T1 diagnostic:  0.00946882
                                                                       D1 diagnostic:  0.01957415


 Total CPU time for triples:   3535.62 sec


 RESULTS
 =======

  Reference energy                    -76.064263168078
  CCSD singlet pair energy             -0.204515051450
  CCSD triplet pair energy             -0.090426342158
  CCSD correlation energy              -0.294941394309

  Triples (T) contribution             -0.009914576811
  Total correlation energy             -0.304855971120

  CCSD total energy                   -76.359204562387
  CCSD[T] energy                      -76.369435818898
  CCSD-T energy                       -76.368972295415
 !CCSD(T) total energy                -76.369119139198

 Timing summary (sec):

 STEP                 CPU(USER)    SYS     CPU(TOT)    WALL
 Transformation       1861.36     67.96   1929.32   1936.26
 CCSD iterations      6951.61    377.73   7329.34   7398.46
 Triples              3535.62     78.53   3614.15   3633.28

 Program statistics:

 Available memory in ccsd:              1999999921
 Min. memory needed in ccsd:              19268142
 Max. memory used in ccsd:                22427508
 Max. memory used in cckext:              14646566 (16 integral passes)



 **********************************************************************************************************************************
 DATASETS  * FILE   NREC   LENGTH (MB)   RECORD NAMES
              1      19     6330.40       500      610      700      900      950      970     1000      129      960     1100   
                                          VAR    BASINP    GEOM    SYMINP    ZMAT    AOBASIS   BASIS     P2S    ABASIS      S 
                                         1400     1410     1200     1210     1080     1600     1650     1700     1380   
                                           T        V       H0       H01     AOSYM     SMH    MOLCAS    OPER     JKOP   

              2       6       38.39       700     1000      520     2100      200     2101   
                                         GEOM     BASIS   MCVARS     RHF    OPTIONS    RHF  

 PROGRAMS   *        TOTAL   CCSD(T)    HF-SCF       INT   CCSD(T)    HF-SCF       INT
 CPU TIMES  *     68335.40  12348.86   1923.98      0.91  48872.42   2769.62   2419.36
 REAL TIME  *     72428.93 SEC
 DISK USED  *        14.28 GB (local),      555.66 GB (total)
 SF USED    *        13.87 GB
 GA USED    *         0.00 MB       (max)       0.00 MB       (current)
 **********************************************************************************************************************************

 Running procedure: SET_MONOMER2

 Dummy atoms: O20  H39  H40


 Recomputing one-electron integrals since nuclear charges changed


 PROGRAM * SEWARD (Integral evaluation for generally contracted gaussian basis sets)     Author: Roland Lindh, 1990

 Geometry written to block  1 of record 700


 Point group  C1  



 ATOMIC COORDINATES

 NR  ATOM    CHARGE       X              Y              Z

   1  O20     0.00  -12.400004884    5.677493169    4.606774346
   2  H39     0.00  -12.146781583    3.932709038    5.214888213
   3  H40     0.00  -11.104030708    6.694165824    5.446946581
   4  C1      6.00   -6.193010455    2.801518980    2.403542658
   5  H41     1.00   -4.656285171    1.699997622    3.119937832
   6  H42     1.00   -5.973046335    4.726205038    2.982932688
   7  H43     1.00   -7.940251230    2.077186956    3.118237078
   8  H44     1.00   -6.176569838    2.685300823    0.384937212

 Bond lengths in Bohr (Angstrom)

 1-2  1.864992273  1-3  1.849070506  4-5  2.021904040  4-6  2.022002335  4-7  2.021953343
     ( 0.986911409)     ( 0.978485973)     ( 1.069945541)     ( 1.069997556)     ( 1.069971630)

 4-8  2.022015060
     ( 1.070004290)

 Bond angles

  2-1-3  105.72790617   5-4-6  109.53398059   5-4-7  109.65604535   5-4-8  108.43490854

  6-4-7  109.49436728   6-4-8  109.86987750   7-4-8  109.83468330

 NUCLEAR CHARGE:                   10
 NUMBER OF PRIMITIVE AOS:        1046
 NUMBER OF SYMMETRY AOS:          786
 NUMBER OF CONTRACTIONS:          734   (  734A   )
 NUMBER OF CORE ORBITALS:           1   (    1A   )
 NUMBER OF VALENCE ORBITALS:        8   (    8A   )

 MOLECULE CHANGED: INITIALIZING OCCUPATION AND DUMP RECORDS


 NUCLEAR REPULSION ENERGY   13.68681606

 Basis set:  JKFIT                   
 Basis size:  1104
 Attributes:
 Sphericals:   T
 Basis set:  MP2FIT                  
 Basis size:  1246
 Attributes:
 Sphericals:   T
 Basis set:  RI                      
 Basis size:   730
 Attributes:
 Sphericals:   T
 Basis set:  TDDFT                   
 Basis size:  1246
 Attributes:
 Sphericals:   T

 Eigenvalues of metric

         1 0.192E-05 0.274E-05 0.348E-05 0.441E-05 0.516E-05 0.694E-05 0.800E-05 0.929E-05


 Contracted 2-electron integrals neglected if value below      1.0D-14

 OPERATOR DM      FOR CENTER  0  COORDINATES:    0.000000    0.000000    0.000000


 **********************************************************************************************************************************
 DATASETS  * FILE   NREC   LENGTH (MB)   RECORD NAMES
              1      18       49.80       500      610      700      900      950      970     1000      129      960     1100   
                                          VAR    BASINP    GEOM    SYMINP    ZMAT    AOBASIS   BASIS     P2S    ABASIS      S 
                                         1400     1410     1200     1210     1080     1600     1650     1700   
                                           T        V       H0       H01     AOSYM     SMH    MOLCAS    OPER   

              2       6       38.39       700     1000      520     2100      200     2101   
                                         GEOM     BASIS   MCVARS     RHF    OPTIONS    RHF  

 PROGRAMS   *        TOTAL       INT   CCSD(T)    HF-SCF       INT   CCSD(T)    HF-SCF       INT
 CPU TIMES  *     68336.37      0.96  12348.86   1923.98      0.91  48872.42   2769.62   2419.36
 REAL TIME  *     72430.91 SEC
 DISK USED  *        14.28 GB (local),      555.66 GB (total)
 SF USED    *        13.87 GB
 GA USED    *         0.00 MB       (max)       0.00 MB       (current)
 **********************************************************************************************************************************


 PROGRAM * RHF-SCF (CLOSED SHELL)       Authors: W. Meyer, H.-J. Werner


 NUMBER OF ELECTRONS:       5+    5-    SPACE SYMMETRY=1    SPIN SYMMETRY: Singlet 
 CONVERGENCE THRESHOLDS:    1.00E-08 (Density)    1.00E-11 (Energy)
 MAX. NUMBER OF ITERATIONS:       60
 INTERPOLATION TYPE:            DIIS
 INTERPOLATION STEPS:              2 (START)      1 (STEP)
 LEVEL SHIFTS:                  0.00 (CLOSED)  0.00 (OPEN) 



 Orbital guess generated from atomic densities. Full valence occupancy:    9

 Molecular orbital dump at record        2102.2

 Initial occupancy:   5

 ITERATION    DDIFF          GRAD             ENERGY        2-EL.EN.            DIPOLE MOMENTS         DIIS   ORB.
    1      0.000D+00      0.000D+00       -40.19676539     53.509904    0.00411   -0.00276   -0.00131    0    start
    2      0.000D+00      0.198D-02       -40.21405759     52.218480    0.00129   -0.00087   -0.00039    1    diag
    3      0.949D-03      0.769D-03       -40.21634102     52.673987    0.00182   -0.00123   -0.00056    2    diag
    4      0.260D-03      0.192D-03       -40.21666135     52.619250    0.00162   -0.00110   -0.00049    3    diag
    5      0.102D-03      0.248D-04       -40.21666683     52.621408    0.00159   -0.00108   -0.00048    4    diag
    6      0.353D-04      0.204D-05       -40.21666687     52.621536    0.00159   -0.00108   -0.00048    5    diag
    7      0.608D-05      0.166D-06       -40.21666687     52.621498    0.00159   -0.00108   -0.00048    6    diag
    8      0.343D-06      0.136D-07       -40.21666687     52.621499    0.00159   -0.00108   -0.00048    7    diag
    9      0.572D-07      0.167D-08       -40.21666687     52.621499    0.00159   -0.00108   -0.00048    8    diag
   10      0.105D-07      0.465D-09       -40.21666687     52.621499    0.00159   -0.00108   -0.00048    9    orth
   11      0.119D-08      0.667D-10       -40.21666687     52.621499    0.00159   -0.00108   -0.00048    0    orth

 Final occupancy:   5

 !RHF STATE  1.1 Energy               -40.216666873675
 Nuclear energy                        13.68681606
 One-electron energy                  -80.21423228
 Two-electron energy                   26.31074935
 Virial quotient                       -0.99832814
 !RHF STATE  1.1 Dipole moment          0.00158922    -0.00107927    -0.00047771
 Dipole moment /Debye                   0.00403914    -0.00274306    -0.00121413

 Orbital energies:

         1.1          2.1          3.1          4.1          5.1          6.1          7.1
    -11.196017    -0.950605    -0.551931    -0.549996    -0.547818     0.021669     0.033801


 HOMO      5.1    -0.547818 =     -14.9069eV
 LUMO      6.1     0.021669 =       0.5897eV
 LUMO-HOMO         0.569487 =      15.4965eV


 **********************************************************************************************************************************
 DATASETS  * FILE   NREC   LENGTH (MB)   RECORD NAMES
              1      18       49.80       500      610      700      900      950      970     1000      129      960     1100   
                                          VAR    BASINP    GEOM    SYMINP    ZMAT    AOBASIS   BASIS     P2S    ABASIS      S 
                                         1400     1410     1200     1210     1080     1600     1650     1700   
                                           T        V       H0       H01     AOSYM     SMH    MOLCAS    OPER   

              2       7       62.47       700     1000      520     2100      200     2101     2102   
                                         GEOM     BASIS   MCVARS     RHF    OPTIONS    RHF      RHF  

 PROGRAMS   *        TOTAL    HF-SCF       INT   CCSD(T)    HF-SCF       INT   CCSD(T)    HF-SCF       INT
 CPU TIMES  *     69777.47   1441.10      0.96  12348.86   1923.98      0.91  48872.42   2769.62   2419.36
 REAL TIME  *     75433.45 SEC
 DISK USED  *        14.28 GB (local),      555.66 GB (total)
 SF USED    *        13.87 GB
 GA USED    *         0.00 MB       (max)       0.00 MB       (current)
 **********************************************************************************************************************************

 Basis set:  JKFIT                   
 Basis size:  1104
 Attributes:
 Sphericals:   T
 Basis set:  MP2FIT                  
 Basis size:  1246
 Attributes:
 Sphericals:   T
 Basis set:  RI                      
 Basis size:   730
 Attributes:
 Sphericals:   T
 Basis set:  TDDFT                   
 Basis size:  1246
 Attributes:
 Sphericals:   T

 PROGRAM * CCSD (Closed-shell coupled cluster)     Authors: C. Hampel, H.-J. Werner, 1991, M. Deegan, P.J. Knowles, 1992


 Convergence thresholds:  THRVAR = 1.00D-08  THRDEN = 1.00D-10

 CCSD(T)     terms to be evaluated (factor= 1.000)


 Number of core orbitals:           1 (   1 )
 Number of closed-shell orbitals:   4 (   4 )
 Number of external orbitals:     729 ( 729 )

 Molecular orbitals read from record     2102.2  Type=RHF/CANONICAL (state 1.1)

 Number of N-1 electron functions:               4
 Number of N-2 electron functions:              10
 Number of singly external CSFs:              2916
 Number of doubly external CSFs:           4252986
 Total number of CSFs:                     4255903

 Length of J-op  integral file:               0.00 MB
 Length of K-op  integral file:              37.04 MB
 Length of 3-ext integral record:             0.00 MB

 For full I/O caching in triples, increase memory by 535.09 Mwords to 2535.14 Mwords.

 Integral transformation finished. Total CPU:2435.96 sec, npass=  1  Memory used:1010.01 MW

 Reference energy:                    -40.21666687

 MP2 singlet pair energy:              -0.15787961
 MP2 triplet pair energy:              -0.05682301
 MP2 correlation energy:               -0.21470262
 MP2 total energy:                    -40.43136949

 SCS-MP2 correlation energy:           -0.22481207   (PS=  1.200000  PT=  0.333333)
 SCS-MP2 total energy:                -40.44147894

 ITER.      SQ.NORM     CORR.ENERGY   TOTAL ENERGY   ENERGY CHANGE        DEN1      VAR(S)    VAR(P)  DIIS     TIME  TIME/IT
   1      1.07073099    -0.22924392   -40.44591080    -0.01454130    -0.00880901  0.58D-03  0.96D-03  1  1  2946.58   584.96
   2      1.07565270    -0.23033865   -40.44700553    -0.00109473    -0.00537200  0.15D-04  0.11D-03  2  2  3425.68   578.73
   3      1.07738942    -0.23037915   -40.44704602    -0.00004050    -0.00128264  0.20D-05  0.63D-05  3  3  3931.18   583.72
   4      1.07777982    -0.23038088   -40.44704775    -0.00000173    -0.00020102  0.14D-06  0.36D-06  4  4  4427.04   582.93
   5      1.07783421    -0.23038464   -40.44705151    -0.00000376    -0.00001099  0.13D-07  0.24D-07  5  5  4930.76   584.48
   6      1.07784435    -0.23038333   -40.44705021     0.00000131    -0.00000412  0.79D-09  0.17D-08  6  6  5438.04   587.15
   7      1.07784569    -0.23038295   -40.44704982     0.00000038    -0.00000075  0.53D-10  0.13D-09  6  1  5921.64   585.66
   8      1.07784561    -0.23038301   -40.44704988    -0.00000005     0.00000024  0.57D-11  0.84D-11  6  3  6432.20   588.24
   9      1.07784575    -0.23038299   -40.44704986     0.00000002    -0.00000009  0.42D-12  0.60D-12  6  2  6914.11   586.20
  10      1.07784575    -0.23038299   -40.44704986     0.00000000     0.00000001  0.56D-13  0.63D-13  6  4  7423.83   587.32
  11      1.07784575    -0.23038299   -40.44704986     0.00000000     0.00000000  0.57D-14  0.64D-14  6  5  7913.53   586.06
  12      1.07784575    -0.23038299   -40.44704986     0.00000000     0.00000000  0.17D-15  0.65D-15  6  6  8414.37   586.99
  13      1.07784575    -0.23038299   -40.44704986    -0.00000000     0.00000000  0.15D-16  0.74D-16  6  1  8910.44   586.55
  14      1.07784575    -0.23038299   -40.44704986    -0.00000000     0.00000000  0.26D-17  0.13D-16  6  3  9330.23   589.91

 Norm of t1 vector:      0.03186015      S-energy:     0.00000000      T1 diagnostic:  0.00796504
                                                                       D1 diagnostic:  0.01279383

 Total CPU time for triples:   3553.43 sec


 RESULTS
 =======

  Reference energy                    -40.216666873676
  CCSD singlet pair energy             -0.175400796670
  CCSD triplet pair energy             -0.054982188761
  CCSD correlation energy              -0.230382985431

  Triples (T) contribution             -0.007018811719
  Total correlation energy             -0.237401797150

  CCSD total energy                   -40.447049859107
  CCSD[T] energy                      -40.454292508613
  CCSD-T energy                       -40.454001715228
 !CCSD(T) total energy                -40.454068670826

 Timing summary (sec):

 STEP                 CPU(USER)    SYS     CPU(TOT)    WALL
 Transformation       2439.02    106.62   2545.64   2586.25
 CCSD iterations      6891.60    641.32   7532.92   8260.34
 Triples              3553.43     75.87   3629.30   3657.08

 Program statistics:

 Available memory in ccsd:              1999999916
 Min. memory needed in ccsd:              19268142
 Max. memory used in ccsd:                22427508
 Max. memory used in cckext:              14646566 (14 integral passes)



 **********************************************************************************************************************************
 DATASETS  * FILE   NREC   LENGTH (MB)   RECORD NAMES
              1      19     6330.40       500      610      700      900      950      970     1000      129      960     1100   
                                          VAR    BASINP    GEOM    SYMINP    ZMAT    AOBASIS   BASIS     P2S    ABASIS      S 
                                         1400     1410     1200     1210     1080     1600     1650     1700     1380   
                                           T        V       H0       H01     AOSYM     SMH    MOLCAS    OPER     JKOP   

              2       7       62.47       700     1000      520     2100      200     2101     2102   
                                         GEOM     BASIS   MCVARS     RHF    OPTIONS    RHF      RHF  

 PROGRAMS   *        TOTAL   CCSD(T)    HF-SCF       INT   CCSD(T)    HF-SCF       INT   CCSD(T)    HF-SCF       INT
 CPU TIMES  *     82661.84  12884.35   1441.10      0.96  12348.86   1923.98      0.91  48872.42   2769.62   2419.36
 REAL TIME  *     89938.05 SEC
 DISK USED  *        14.28 GB (local),      555.66 GB (total)
 SF USED    *        13.87 GB
 GA USED    *         0.00 MB       (max)       0.00 MB       (current)
 **********************************************************************************************************************************
 Molecular orbitals read from record     2102.2  Type=RHF/CANONICAL (state 1.1)
 Occupation numbers read from record     2102.2  Type=RHF/RHF (state 1.1)
 Orbital energies read from record       2102.2  Type=RHF/CANONICAL (state 1.1)
 Redundancy group numbers read from rec  2102.2  Type=RHF/RHF (state 1.1)

 CCSD(T)/aug-cc-pV5Z energy=    -40.454068670826

         CCSD(T)          HF-SCF         CCSD(T)          HF-SCF         CCSD(T)          HF-SCF
    -40.45406867    -40.21666687    -76.36911914    -76.06426317   -116.82343029   -116.28022877
 **********************************************************************************************************************************
 Molpro calculation terminated
