
 Primary working directories    : /scratch.ssd/kelum/job_380589.cerit-pbs.cerit-sc.cz/molpro.nrjfBq8CPI
 Secondary working directories  : /scratch.ssd/kelum/job_380589.cerit-pbs.cerit-sc.cz/molpro.nrjfBq8CPI
 Wavefunction directory         : /scratch.ssd/kelum/job_380589.cerit-pbs.cerit-sc.cz/
 Main file repository           : /scratch.ssd/kelum/job_380589.cerit-pbs.cerit-sc.cz/molpro.nrjfBq8CPI/

 id        : karlovklimes

 Nodes             nprocs
 elan12.cerit-sc.cz    4

 Using customized tuning parameters: mindgm=1; mindgv=20; mindgc=4; mindgr=1; noblas=0; minvec=7
 default implementation of scratch files=sf  


 Variables initialized (934), CPU time= 0.00 sec
                                                                                 !gdirect
 memory,4000,m
 gthresh,orbital=1d-10,energy=1d-10
 
 symmetry,nosym
 angstrom
 geometry={
 O3        -0.151700000000      2.697200000000     -0.844800000000
 H5         0.533400000000      2.998100000000     -1.454900000000
 H6        -1.003200000000      2.770600000000     -1.357600000000
 C1        -3.277200000000      1.482500000000      1.271900000000
 H41        -2.464000000000      0.899600000000      1.651000000000
 H42        -3.160800000000      2.501000000000      1.578500000000
 H43        -4.201800000000      1.099200000000      1.650100000000
 H44        -3.268500000000      1.421000000000      0.203700000000
 }
 
 nkerna=1
 nkernb=1
 
 gf=0
 sing=1
 thrdum=1d-4
 gridthr=1d-8
 
 basis={
 set,orbital
 default,av5z
 set,jkfit
 default,av5z/jkfit
 set,mp2fit
 default,av5z/mp2fit
 set,ri
 default,av5z/optri
 set,tddft
 default,av5z/mp2fit
 }
 
 proc set_monomer1
 dummy,4,5,6,7,8
 endproc
 
 proc set_monomer2
 dummy,1,2,3
 endproc
 
                                                                                 !12 energy
 {hf,accu=1.d-16}
 {ccsd(t)-f12,df_basis=mp2fit,df_basis_exch=jkfit,ri_basis=ri,scale_trip=1,THRAOF12=1d-10}
 
 set_monomer1
 {hf,accu=1.d-16}
 {ccsd(t)-f12,df_basis=mp2fit,df_basis_exch=jkfit,ri_basis=ri,scale_trip=1,THRAOF12=1d-10}
 
 set_monomer2
 {hf,accu=1.d-16}
 {ccsd(t)-f12,df_basis=mp2fit,df_basis_exch=jkfit,ri_basis=ri,scale_trip=1,THRAOF12=1d-10}
 
 Commands  initialized (763), CPU time= 0.01 sec, 617 directives.
 Default parameters read. Elapsed time= 0.20 sec

 Checking input...
 Passed
1


                                         ***  PROGRAM SYSTEM MOLPRO  ***
                                       Copyright, TTI GmbH Stuttgart, 2015
                                    Version 2019.2 linked Jun  8 2019 11:26:33


 **********************************************************************************************************************************
 LABEL *                                                                                 
  64 bit mpp version                                                                     DATE: 24-Mar-20          TIME: 09:19:20  
 **********************************************************************************************************************************

 SHA1:             8135a10abc80eafa5b3ae28ffc55be4890dc4c84
 **********************************************************************************************************************************

 THRESHOLDS:

 ZERO    =  1.00D-12  ONEINT  =  1.00D-12  TWOINT  =  1.00D-11  PREFAC  =  1.00D-14  XXXXXX  =  1.00D-09  EORDER  =  1.00D-04
 ENERGY  =  1.00D-10  ETEST   =  0.00D+00  EDENS   =  0.00D+00  THRDEDEF=  1.00D-06  GRADIENT=  1.00D-02  STEP    =  1.00D-03
 ORBITAL =  1.00D-10  CIVEC   =  1.00D-05  COEFF   =  1.00D-04  PRINTCI =  5.00D-02  PUNCHCI =  9.90D+01  OPTGRAD =  3.00D-04
 OPTENERG=  1.00D-06  OPTSTEP =  3.00D-04  THRGRAD =  1.00D-10  COMPRESS=  1.00D-11  VARMIN  =  1.00D-07  VARMAX  =  1.00D-03
 THRDOUB =  0.00D+00  THRDIV  =  1.00D-05  THRRED  =  1.00D-07  THRPSP  =  1.00D+00  THRDC   =  1.00D-10  THRCS   =  1.00D-10
 THRNRM  =  1.00D-08  THREQ   =  0.00D+00  THRDE   =  1.00D+00  THRREF  =  1.00D-05  SPARFAC =  1.00D+00  THRDLP  =  1.00D-07
 THRDIA  =  1.00D-10  THRDLS  =  1.00D-07  THRGPS  =  0.00D+00  THRKEX  =  0.00D+00  THRDIS  =  2.00D-01  THRVAR  =  1.00D-10
 THRLOC  =  1.00D-06  THRGAP  =  1.00D-06  THRLOCT = -1.00D+00  THRGAPT = -1.00D+00  THRORB  =  1.00D-06  THRMLTP =  0.00D+00
 THRCPQCI=  1.00D-10  KEXTA   =  0.00D+00  THRCOARS=  0.00D+00  SYMTOL  =  1.00D-06  GRADTOL =  1.00D-06  THROVL  =  1.00D-08
 THRORTH =  1.00D-08  GRID    =  1.00D-06  GRIDMAX =  1.00D-03  DTMAX   =  0.00D+00  THROCCDE=  1.00D-01  THROCCDE=  1.00D-01
 THRPRINT=  2.50D-01


 Variable memory set to 4000000000 words,  buffer space 

 ZSYMEL=NOSYM
 ZUNIT=ANG


Geometry recognized as XYZ

 SETTING NKERNA         =         1.00000000                                  
 SETTING NKERNB         =         1.00000000                                  
 SETTING GF             =     0.00000000D+00                                  
 SETTING SING           =         1.00000000                                  
 SETTING THRDUM         =     1.00000000D-04                                  
 SETTING GRIDTHR        =     1.00000000D-08                                  
 SETTING BASIS          =    AV5Z


 Recomputing integrals since basis changed


 Using spherical harmonics

 Library entry O      S aug-cc-pV5Z          selected for orbital group  1
 Library entry O      P aug-cc-pV5Z          selected for orbital group  1
 Library entry O      D aug-cc-pV5Z          selected for orbital group  1
 Library entry O      F aug-cc-pV5Z          selected for orbital group  1
 Library entry O      G aug-cc-pV5Z          selected for orbital group  1
 Library entry O      H aug-cc-pV5Z          selected for orbital group  1
 Library entry H      S aug-cc-pV5Z          selected for orbital group  2
 Library entry H      P aug-cc-pV5Z          selected for orbital group  2
 Library entry H      D aug-cc-pV5Z          selected for orbital group  2
 Library entry H      F aug-cc-pV5Z          selected for orbital group  2
 Library entry H      G aug-cc-pV5Z          selected for orbital group  2
 Library entry C      S aug-cc-pV5Z          selected for orbital group  3
 Library entry C      P aug-cc-pV5Z          selected for orbital group  3
 Library entry C      D aug-cc-pV5Z          selected for orbital group  3
 Library entry C      F aug-cc-pV5Z          selected for orbital group  3
 Library entry C      G aug-cc-pV5Z          selected for orbital group  3
 Library entry C      H aug-cc-pV5Z          selected for orbital group  3


 PROGRAM * SEWARD (Integral evaluation for generally contracted gaussian basis sets)     Author: Roland Lindh, 1990

 Geometry written to block  1 of record 700


 Point group  C1  



 ATOMIC COORDINATES

 NR  ATOM    CHARGE       X              Y              Z

   1  O3      8.00   -0.286671453    5.096969303   -1.596440630
   2  H5      1.00    1.007979915    5.665587894   -2.749362539
   3  H6      1.00   -1.895773248    5.235675201   -2.565492187
   4  C1      6.00   -6.193010455    2.801518980    2.403542658
   5  H41     1.00   -4.656285171    1.699997622    3.119937832
   6  H42     1.00   -5.973046335    4.726205038    2.982932688
   7  H43     1.00   -7.940251230    2.077186956    3.118237078
   8  H44     1.00   -6.176569838    2.685300823    0.384937212

 Bond lengths in Bohr (Angstrom)

 1-2  1.824466550  1-3  1.883483165  4-5  2.021904040  4-6  2.022002335  4-7  2.021953343
     ( 0.965466121)     ( 0.996696368)     ( 1.069945541)     ( 1.069997556)     ( 1.069971630)

 4-8  2.022015060
     ( 1.070004290)

 Bond angles

  2-1-3  104.96066383   5-4-6  109.53398059   5-4-7  109.65604535   5-4-8  108.43490854

  6-4-7  109.49436728   6-4-8  109.86987750   7-4-8  109.83468330

 NUCLEAR CHARGE:                   20
 NUMBER OF PRIMITIVE AOS:        1046
 NUMBER OF SYMMETRY AOS:          786
 NUMBER OF CONTRACTIONS:          734   (  734A   )
 NUMBER OF CORE ORBITALS:           2   (    2A   )
 NUMBER OF VALENCE ORBITALS:       14   (   14A   )


 NUCLEAR REPULSION ENERGY   35.80046073


 Basis set:  JKFIT                   
 Basis size:  1104
 Attributes:
 Sphericals:   T
 Basis set:  MP2FIT                  
 Basis size:  1246
 Attributes:
 Sphericals:   T
 Basis set:  RI                      
 Basis size:   730
 Attributes:
 Sphericals:   T
 Basis set:  TDDFT                   
 Basis size:  1246
 Attributes:
 Sphericals:   T

 **********************************************************************************************************************************


 Eigenvalues of metric

         1 0.154E-05 0.186E-05 0.352E-05 0.489E-05 0.545E-05 0.758E-05 0.791E-05 0.911E-05


 Contracted 2-electron integrals neglected if value below      1.0D-14
 AO integral compression algorithm  1   Integral accuracy      1.0D-14

     144243.950 MB (compressed) written to integral file ( 45.7%)

     Node minimum: 33485.226 MB, node maximum: 38365.823 MB


 NUMBER OF SORTED TWO-ELECTRON INTEGRALS: 9095363064.     BUFFER LENGTH:  32768
 NUMBER OF SEGMENTS: 190  SEGMENT LENGTH:   47999780      RECORD LENGTH: 131072

 Memory used in sort:      48.16 MW

 SORT1 READ 39465657057. AND WROTE  6567941581. INTEGRALS IN  75261 RECORDS. CPU TIME:  1028.23 SEC, REAL TIME:  1139.46 SEC
 SORT2 READ 26275208389. AND WROTE 36381317385. INTEGRALS IN 544152 RECORDS. CPU TIME:   119.15 SEC, REAL TIME:   815.51 SEC

 Node minimum:  9095228192.  Node maximum:  9095430501. integrals

 OPERATOR DM      FOR CENTER  0  COORDINATES:    0.000000    0.000000    0.000000


 **********************************************************************************************************************************
 DATASETS  * FILE   NREC   LENGTH (MB)   RECORD NAMES
              1      18       49.80       500      610      700      900      950      970     1000      129      960     1100   
                                          VAR    BASINP    GEOM    SYMINP    ZMAT    AOBASIS   BASIS     P2S    ABASIS      S 
                                         1400     1410     1200     1210     1080     1600     1650     1700   
                                           T        V       H0       H01     AOSYM     SMH    MOLCAS    OPER   

 PROGRAMS   *        TOTAL       INT
 CPU TIMES  *      1695.92   1695.72
 REAL TIME  *      2542.43 SEC
 DISK USED  *        50.44 MB (local),      459.38 GB (total)
 GA USED    *         0.00 MB       (max)       0.00 MB       (current)
 **********************************************************************************************************************************


 PROGRAM * RHF-SCF (CLOSED SHELL)       Authors: W. Meyer, H.-J. Werner


 NUMBER OF ELECTRONS:      10+   10-    SPACE SYMMETRY=1    SPIN SYMMETRY: Singlet 
 CONVERGENCE THRESHOLDS:    1.00E-08 (Density)    1.00E-11 (Energy)
 MAX. NUMBER OF ITERATIONS:       60
 INTERPOLATION TYPE:            DIIS
 INTERPOLATION STEPS:              2 (START)      1 (STEP)
 LEVEL SHIFTS:                  0.00 (CLOSED)  0.00 (OPEN) 



 Orbital guess generated from atomic densities. Full valence occupancy:   16

 Molecular orbital dump at record        2100.2

 Initial occupancy:  10

 ITERATION    DDIFF          GRAD             ENERGY        2-EL.EN.            DIPOLE MOMENTS         DIIS   ORB.
    1      0.000D+00      0.000D+00      -116.22158979    157.339060   -0.16738    0.35794   -1.08725    0    start
    2      0.000D+00      0.292D-02      -116.26601146    152.270968   -0.04915    0.20820   -0.60711    1    diag
    3      0.162D-02      0.173D-02      -116.27993103    154.374922   -0.07826    0.24680   -0.72935    2    diag
    4      0.560D-03      0.255D-03      -116.28059489    154.261702   -0.07550    0.24349   -0.71883    3    diag
    5      0.122D-03      0.750D-04      -116.28066482    154.256808   -0.07469    0.24354   -0.71836    4    diag
    6      0.490D-04      0.182D-04      -116.28066871    154.262415   -0.07431    0.24332   -0.71763    5    diag
    7      0.174D-04      0.367D-05      -116.28066894    154.260736   -0.07427    0.24334   -0.71765    6    diag
    8      0.539D-05      0.946D-06      -116.28066896    154.260914   -0.07422    0.24332   -0.71760    7    diag
    9      0.135D-05      0.222D-06      -116.28066896    154.260888   -0.07421    0.24331   -0.71758    8    diag
   10      0.291D-06      0.257D-07      -116.28066896    154.260889   -0.07421    0.24331   -0.71758    9    orth
   11      0.624D-07      0.584D-08      -116.28066896    154.260890   -0.07421    0.24331   -0.71758    9    diag
   12      0.505D-08      0.153D-08      -116.28066896    154.260890   -0.07421    0.24331   -0.71758    0    orth

 Final occupancy:  10

 !RHF STATE  1.1 Energy              -116.280668963466
 Nuclear energy                        35.80046073
 One-electron energy                 -229.21157487
 Two-electron energy                   77.13044518
 Virial quotient                       -1.00074302
 !RHF STATE  1.1 Dipole moment         -0.07421197     0.24331400    -0.71757799
 Dipole moment /Debye                  -0.18861565     0.61840199    -1.82378187

 Orbital energies:

         1.1          2.1          3.1          4.1          5.1          6.1          7.1          8.1          9.1         10.1
    -20.567605   -11.191731    -1.340324    -0.946139    -0.705612    -0.579265    -0.547701    -0.545416    -0.543318    -0.508231

        11.1         12.1
      0.020727     0.029982


 HOMO     10.1    -0.508231 =     -13.8297eV
 LUMO     11.1     0.020727 =       0.5640eV
 LUMO-HOMO         0.528957 =      14.3937eV


 **********************************************************************************************************************************
 DATASETS  * FILE   NREC   LENGTH (MB)   RECORD NAMES
              1      18       49.80       500      610      700      900      950      970     1000      129      960     1100   
                                          VAR    BASINP    GEOM    SYMINP    ZMAT    AOBASIS   BASIS     P2S    ABASIS      S 
                                         1400     1410     1200     1210     1080     1600     1650     1700   
                                           T        V       H0       H01     AOSYM     SMH    MOLCAS    OPER   

              2       4       13.79       700     1000      520     2100   
                                         GEOM     BASIS   MCVARS     RHF  

 PROGRAMS   *        TOTAL    HF-SCF       INT
 CPU TIMES  *      3122.62   1426.70   1695.72
 REAL TIME  *      4199.78 SEC
 DISK USED  *       102.61 MB (local),      459.59 GB (total)
 SF USED    *         2.16 MB
 GA USED    *         0.00 MB       (max)       0.00 MB       (current)
 **********************************************************************************************************************************

 Basis set:  JKFIT                   
 Basis size:  1104
 Attributes:
 Sphericals:   T
 Basis set:  MP2FIT                  
 Basis size:  1246
 Attributes:
 Sphericals:   T
 Basis set:  RI                      
 Basis size:   730
 Attributes:
 Sphericals:   T
 Basis set:  TDDFT                   
 Basis size:  1246
 Attributes:
 Sphericals:   T

 PROGRAM * CCSD (Closed-shell coupled cluster)     Authors: C. Hampel, H.-J. Werner, 1991, M. Deegan, P.J. Knowles, 1992

                                  CCSD-F12 implementation by  H.-J. Werner, 2007

                   Density fitting integral evaluation by F.R. Manby, 2003,2007, G. Knizia, 2010



 Convergence thresholds:  THRVAR = 1.00D-08  THRDEN = 1.00D-10

 CCSD(T)     terms to be evaluated (factor= 1.000)


 Number of core orbitals:           2 (   2 )
 Number of closed-shell orbitals:   8 (   8 )
 Number of external orbitals:     724 ( 724 )

 Molecular orbitals read from record     2100.2  Type=RHF/CANONICAL (state 1.1)

 MP2-F12 correlation treatment (H.-J. Werner, 2006)
 ==================================================

 Using MP2-F12 with ansatz 3C(FIX)

 Using projected zeroth-order Hamiltonian (+Z)

 FOCKRIB=T FOCKRIC=T FOCKRIP=T CABSP=T CABSA=T CABSK=T CABSF=T GBC=F EBC=F DMAT=T NOFIK=T NOPAO=1 SOLVE=-1  USEPAO=0
 EXCH_A= T EXCH_B= F EXCH_C= F EXCH_P= F

 Geminal basis:    OPTFULL  GEM_TYPE=SLATER  BETA=1.0  NGEM=6

 Optimizing Gaussian exponents for each gem_beta

 Geminal optimization for beta= 1.0000
 Weight function:   m=0, omega= 1.4646

 Augmented Hessian optimization of geminal fit. Trust ratio= 0.40000
 Convergence reached after   2 iterations. Final gradient= 8.53D-16, Step= 4.26D-06, Delta= 1.28D-09

 Alpha:                 0.19532     0.81920     2.85917     9.50073    35.69989   197.79328
 Coeff:                 0.27070     0.30552     0.18297     0.10986     0.06810     0.04224


 All pairs explicitly correlated. Number of r12-pairs:           36

 Excluding core orbitals from MO domains

 AO(A)-basis ORBITAL           loaded. Number of functions:     734
 RI(R)-basis RI                loaded. Number of functions:     730
 DF-basis JKFIT                loaded. Number of functions:    1104

 Screening thresholds:   THRAO=  1.00D-10  THRMO=  1.00D-09  THRPROD=  1.00D-09
                         THRSW=  1.00D-05  THROV=  1.00D-12  THRAOF12= 1.00D-10

 CPU time for Fock operators                      7.97 sec

 Construction of ABS:
 Smallest eigenvalue of S          2.27E-04  (threshold= 1.00E-08)
 Ratio eigmin/eigmax               3.95E-05  (threshold= 1.00E-09)
 Smallest eigenvalue of S kept     2.27E-04  (threshold= 2.27E-04, 0 functions deleted, 730 kept)

 Construction of CABS:
 Smallest eigenvalue of S          9.87E-09  (threshold= 1.00E-08)
 Ratio eigmin/eigmax               9.87E-09  (threshold= 1.00E-09)
 Smallest eigenvalue of S kept     7.97E-08  (threshold= 7.97E-08, 1 functions deleted, 729 kept)

 CPU time for CABS singles                        0.96 sec

 CABS-singles contribution of  -0.00007964 patched into reference energy.
 New reference energy        -116.28074860

 AO(A)-basis ORBITAL           loaded. Number of functions:     734
 RI(R)-basis RI                loaded. Number of functions:     730
 DF-basis MP2FIT               loaded. Number of functions:    1246

 Screening thresholds:   THRAO=  1.00D-10  THRMO=  1.00D-09  THRPROD=  1.00D-09
                         THRSW=  1.00D-05  THROV=  1.00D-12  THRAOF12= 1.00D-10

 CPU time for 3-index integral evaluation        23.39 sec
 CPU time for first  half transformation          2.45 sec (11957.6 MFLOP/sec)
 CPU time for second half transformation          0.07 sec ( 3759.7 MFLOP/sec)
 CPU time for sorting                             0.28 sec
 CPU time for fitting                             0.29 sec (31992.5 MFLOP/sec)
 CPU time for tilde quantities                    0.40 sec (34434.8 MFLOP/sec)
 CPU time for assembly                            3.55 sec (35125.3 MFLOP/sec)
 CPU time for tranop_f12                          4.56 sec (36593.0 MFLOP/sec)
 CPU time for f12 integrals (total)              41.29 sec, Elapsed time:     44.82 sec
 F12-matrices built in  4 passes.
 F12-matrices built in  4 passes.
 F12-matrices built in  4 passes.
 F12-matrices built in  4 passes.
 FC-matrix built in  4 passes.
 CPU time for f12 matrices (total)                3.84 sec, Elapsed time:      4.01 sec

 Diagonal F12 approximation with fixed coefficients:  TSING= 0.500,  TTRIP= 0.250 (scaled by -1/beta)

 DF-MP2-F12 energy corrections:
 ==============================
 Approx.                                    Singlet             Triplet             Total
 DF-MP2-F12/3*C(DX,FIX)                -0.011203556152     -0.000786839550     -0.011990395702
 DF-MP2-F12/3*C(FIX)                   -0.010395078812     -0.000515931514     -0.010911010326
 DF-MP2-F12/3C(FIX)                    -0.010509041602     -0.000531357147     -0.011040398749

 DF-MP2-F12 correlation energies:
 ================================
 Approx.                                    Singlet             Triplet             Ecorr            Total Energy
 DF-MP2                                -0.350334559143     -0.159534513059     -0.509869072203   -116.790617670886
 DF-MP2-F12/3*C(DX,FIX)                -0.361538115295     -0.160321352610     -0.521859467905   -116.802608066588
 DF-MP2-F12/3*C(FIX)                   -0.360729637955     -0.160050444573     -0.520780082528   -116.801528681212
 DF-MP2-F12/3C(FIX)                    -0.360843600745     -0.160065870207     -0.520909470952   -116.801658069635

 SCS-DF-MP2 energies (F_SING= 1.20000  F_TRIP= 0.62222  F_PARALLEL= 0.33333):
 ============================================================================
 SCS-DF-MP2                            -0.519667390209   -116.800415988892
 SCS-DF-MP2-F12/3*C(DX,FIX)            -0.533601246644   -116.814349845328
 SCS-DF-MP2-F12/3*C(FIX)               -0.532462508836   -116.813211107520
 SCS-DF-MP2-F12/3C(FIX)                -0.532608862356   -116.813357461040
 Symmetry transformation completed.

 Number of N-1 electron functions:               8
 Number of N-2 electron functions:              36
 Number of singly external CSFs:              5792
 Number of doubly external CSFs:          16776528
 Total number of CSFs:                    16782321

 Pair and operator lists are different

 Length of J-op  integral file:               1.47 GB
 Length of K-op  integral file:               2.18 GB
 Length of 3-ext integral record:             0.00 MB

 For full I/O caching in triples, increase memory by 34.16 Mwords to 4034.21 Mwords.

 Integral transformation finished. Total CPU: 935.16 sec, npass=  1  Memory used:1826.21 MW

 Reference energy:                   -116.28074860

 Adding F12 terms to K(Cij), methodcc=6,  factor= 1.0

 ITER.      SQ.NORM     CORR.ENERGY   TOTAL ENERGY   ENERGY CHANGE        DEN1      VAR(S)    VAR(P)  DIIS     TIME  TIME/IT
   1      1.13440887    -0.52182160  -116.80257020    -0.01193965     0.00002458  0.14D-02  0.20D-02  1  1  1231.86   252.49
   2      1.14269039    -0.52286961  -116.80361821    -0.00104801    -0.01024276  0.33D-04  0.25D-03  2  2  1472.40   254.49
   3      1.14593859    -0.52303716  -116.80378575    -0.00016755    -0.00235467  0.11D-04  0.14D-04  3  3  1703.74   252.13
   4      1.14690328    -0.52304296  -116.80379156    -0.00000581    -0.00053289  0.69D-06  0.13D-05  4  4  1938.40   251.84
   5      1.14707171    -0.52304485  -116.80379345    -0.00000189    -0.00004191  0.20D-06  0.93D-07  5  5  2169.98   251.01
   6      1.14711751    -0.52304212  -116.80379072     0.00000273    -0.00000814  0.22D-07  0.81D-08  6  6  2404.96   251.16
   7      1.14712843    -0.52304091  -116.80378950     0.00000121    -0.00000273  0.23D-08  0.98D-09  6  2  2637.59   250.71
   8      1.14713127    -0.52304068  -116.80378928     0.00000023    -0.00000036  0.31D-09  0.96D-10  6  1  2874.46   251.04
   9      1.14713212    -0.52304064  -116.80378924     0.00000004    -0.00000003  0.25D-10  0.16D-10  6  3  3102.45   250.31
  10      1.14713224    -0.52304065  -116.80378925    -0.00000001     0.00000010  0.26D-11  0.18D-11  6  4  3328.08   249.45
  11      1.14713221    -0.52304065  -116.80378925    -0.00000001     0.00000008  0.38D-12  0.24D-12  6  5  3561.17   249.26
  12      1.14713219    -0.52304066  -116.80378925    -0.00000000     0.00000002  0.80D-13  0.31D-13  6  6  3796.64   249.47
  13      1.14713217    -0.52304066  -116.80378926    -0.00000000     0.00000001  0.16D-13  0.43D-14  6  2  4028.47   249.41
  14      1.14713216    -0.52304066  -116.80378926    -0.00000000     0.00000000  0.26D-14  0.92D-15  6  1  4262.17   249.38
  15      1.14713216    -0.52304066  -116.80378926    -0.00000000     0.00000000  0.33D-15  0.15D-15  6  3  4505.19   250.00
  16      1.14713216    -0.52304066  -116.80378926    -0.00000000    -0.00000000  0.47D-16  0.23D-16  6  4  4751.06   250.69
  17      1.14713216    -0.52304066  -116.80378926    -0.00000000    -0.00000000  0.11D-16  0.50D-17  6  5  5007.94   252.02

 Norm of t1 vector:      0.04964243      S-energy:    -0.00000000      T1 diagnostic:  0.00877562
                                                                       D1 diagnostic:  0.01905026

 Adding energy correction from Wij-K(Fij), methodcc=6  factor= 1.0

  CCSD correlation energy              -0.523040657112
  MP2-F12 correction (uncoupled)       -0.010855286003
  C*T doubles correction               -0.000163649734
  f12b correction                       0.002687065869

   CPU time for triples:   1930.73 sec for i =  1 -  6 /  8 (~  44.6 % done)
   CPU time for triples:   2472.90 sec for i =  7 -  8 /  8 (  100.0 % done)

 Total CPU time for triples:   4416.35 sec

  Ecorr(MP2)                           -0.509881945977
  Ecorr(MP2-F12)                       -0.520922344726
  Scale factor for triples energy       1.021652852854


 RESULTS
 =======

  Reference energy                   -116.280668963469
  F12 singles correction               -0.000079635214

 F12 singles corrections added to reference energy

  New reference energy               -116.280748598684

  F12a singlet correction              -0.010446984426
  F12a triplet correction              -0.000571951311
  F12a total correction                -0.011018935737

 F12a corrections for ansatz F12/3C(FIX) added to CCSD energy

  CCSD-F12a singlet pair energy        -0.387744922027
  CCSD-F12a triplet pair energy        -0.146314670592
  CCSD-F12a correlation energy         -0.534059592848

  Triples (T) contribution (scaled)    -0.017273738852
  Total correlation energy             -0.551333331700

  CCSD-F12a total energy             -116.814808191532
  CCSD[T]-F12a energy                -116.832640643695
  CCSD-T-F12a energy                 -116.831871960547
 !CCSD(T)-F12a total energy          -116.832081930384

 F12b corrections for ansatz F12/3C(FIX) added to CCSD(T)-F12a energy

  CCSD-F12b singlet pair energy        -0.385150578511
  CCSD-F12b triplet pair energy        -0.146221948239
  CCSD-F12b correlation energy         -0.531372526979

  Triples (T) contribution (scaled)    -0.017273738852
  Total correlation energy             -0.548646265831

  CCSD-F12b total energy             -116.812121125663
  CCSD[T]-F12b energy                -116.829953577826
  CCSD-T-F12b energy                 -116.829184894678
 !CCSD(T)-F12b total energy          -116.829394864515

 Timing summary (sec):

 STEP                 CPU(USER)    SYS     CPU(TOT)    WALL
 Transformation        936.47     43.43    979.90    981.82
 CCSD iterations      4014.24    268.41   4282.65   4284.79
 Triples              4416.35     26.33   4442.68   4459.32
 MP2-F12                57.44      4.40     61.84     62.21
 F12b energy           258.40     13.75    272.15    273.22

 Program statistics:

 Available memory in ccsd:              3999999554
 Min. memory needed in ccsd:              48689265
 Max. memory used in ccsd:                63255345
 Max. memory used in cckext:              42753482 (18 integral passes)



 **********************************************************************************************************************************
 DATASETS  * FILE   NREC   LENGTH (MB)   RECORD NAMES
              1      19    12452.16       500      610      700      900      950      970     1000      129      960     1100   
                                          VAR    BASINP    GEOM    SYMINP    ZMAT    AOBASIS   BASIS     P2S    ABASIS      S 
                                         1400     1410     1200     1210     1080     1600     1650     1700     1380   
                                           T        V       H0       H01     AOSYM     SMH    MOLCAS    OPER     JKOP   

              2       6       24.60       700     1000      520     2100     7360     7350   
                                         GEOM     BASIS   MCVARS     RHF    F12ABS    EF12   

 PROGRAMS   *        TOTAL   CCSD(T)    HF-SCF       INT
 CPU TIMES  *     12805.70   9683.07   1426.70   1695.72
 REAL TIME  *     14263.84 SEC
 DISK USED  *        14.29 GB (local),      510.90 GB (total)
 SF USED    *        17.68 GB
 GA USED    *         4.87 MB       (max)       0.00 MB       (current)
 **********************************************************************************************************************************

 Running procedure: SET_MONOMER1

 Dummy atoms: C1  H41  H42  H43  H44


 Recomputing one-electron integrals since nuclear charges changed


 PROGRAM * SEWARD (Integral evaluation for generally contracted gaussian basis sets)     Author: Roland Lindh, 1990

 Geometry written to block  1 of record 700


 Point group  C1  



 ATOMIC COORDINATES

 NR  ATOM    CHARGE       X              Y              Z

   1  O3      8.00   -0.286671453    5.096969303   -1.596440630
   2  H5      1.00    1.007979915    5.665587894   -2.749362539
   3  H6      1.00   -1.895773248    5.235675201   -2.565492187
   4  C1      0.00   -6.193010455    2.801518980    2.403542658
   5  H41     0.00   -4.656285171    1.699997622    3.119937832
   6  H42     0.00   -5.973046335    4.726205038    2.982932688
   7  H43     0.00   -7.940251230    2.077186956    3.118237078
   8  H44     0.00   -6.176569838    2.685300823    0.384937212

 Bond lengths in Bohr (Angstrom)

 1-2  1.824466550  1-3  1.883483165  4-5  2.021904040  4-6  2.022002335  4-7  2.021953343
     ( 0.965466121)     ( 0.996696368)     ( 1.069945541)     ( 1.069997556)     ( 1.069971630)

 4-8  2.022015060
     ( 1.070004290)

 Bond angles

  2-1-3  104.96066383   5-4-6  109.53398059   5-4-7  109.65604535   5-4-8  108.43490854

  6-4-7  109.49436728   6-4-8  109.86987750   7-4-8  109.83468330

 NUCLEAR CHARGE:                   10
 NUMBER OF PRIMITIVE AOS:        1046
 NUMBER OF SYMMETRY AOS:          786
 NUMBER OF CONTRACTIONS:          734   (  734A   )
 NUMBER OF CORE ORBITALS:           1   (    1A   )
 NUMBER OF VALENCE ORBITALS:        6   (    6A   )

 MOLECULE CHANGED: INITIALIZING OCCUPATION AND DUMP RECORDS


 NUCLEAR REPULSION ENERGY    8.97229507

 Basis set:  JKFIT                   
 Basis size:  1104
 Attributes:
 Sphericals:   T
 Basis set:  MP2FIT                  
 Basis size:  1246
 Attributes:
 Sphericals:   T
 Basis set:  RI                      
 Basis size:   730
 Attributes:
 Sphericals:   T
 Basis set:  TDDFT                   
 Basis size:  1246
 Attributes:
 Sphericals:   T

 Eigenvalues of metric

         1 0.154E-05 0.186E-05 0.352E-05 0.489E-05 0.545E-05 0.758E-05 0.791E-05 0.911E-05


 Contracted 2-electron integrals neglected if value below      1.0D-14

 OPERATOR DM      FOR CENTER  0  COORDINATES:    0.000000    0.000000    0.000000


 **********************************************************************************************************************************
 DATASETS  * FILE   NREC   LENGTH (MB)   RECORD NAMES
              1      18       49.80       500      610      700      900      950      970     1000      129      960     1100   
                                          VAR    BASINP    GEOM    SYMINP    ZMAT    AOBASIS   BASIS     P2S    ABASIS      S 
                                         1400     1410     1200     1210     1080     1600     1650     1700   
                                           T        V       H0       H01     AOSYM     SMH    MOLCAS    OPER   

              2       7       24.63       700     1000      520     2100     7360     7350      200   
                                         GEOM     BASIS   MCVARS     RHF    F12ABS    EF12    OPTIONS    

 PROGRAMS   *        TOTAL       INT   CCSD(T)    HF-SCF       INT
 CPU TIMES  *     12806.14      0.44   9683.07   1426.70   1695.72
 REAL TIME  *     14266.36 SEC
 DISK USED  *        14.29 GB (local),      510.90 GB (total)
 SF USED    *        17.68 GB
 GA USED    *         4.87 MB       (max)       0.00 MB       (current)
 **********************************************************************************************************************************


 PROGRAM * RHF-SCF (CLOSED SHELL)       Authors: W. Meyer, H.-J. Werner


 NUMBER OF ELECTRONS:       5+    5-    SPACE SYMMETRY=1    SPIN SYMMETRY: Singlet 
 CONVERGENCE THRESHOLDS:    1.00E-08 (Density)    1.00E-11 (Energy)
 MAX. NUMBER OF ITERATIONS:       60
 INTERPOLATION TYPE:            DIIS
 INTERPOLATION STEPS:              2 (START)      1 (STEP)
 LEVEL SHIFTS:                  0.00 (CLOSED)  0.00 (OPEN) 



 Orbital guess generated from atomic densities. Full valence occupancy:    7

 Molecular orbital dump at record        2101.2

 Initial occupancy:   5

 ITERATION    DDIFF          GRAD             ENERGY        2-EL.EN.            DIPOLE MOMENTS         DIIS   ORB.
    1      0.000D+00      0.000D+00       -76.02532027     77.380902   -0.17154    0.36106   -1.08713    0    start
    2      0.000D+00      0.361D-02       -76.05219839     73.707143   -0.08955    0.21020   -0.62920    1    diag
    3      0.131D-02      0.230D-02       -76.06393691     75.342156   -0.10804    0.24824   -0.74389    2    diag
    4      0.496D-03      0.216D-03       -76.06413507     75.250374   -0.10541    0.24693   -0.73923    3    diag
    5      0.637D-04      0.611D-04       -76.06415698     75.265130   -0.10434    0.24646   -0.73752    4    diag
    6      0.213D-04      0.123D-04       -76.06415844     75.264010   -0.10401    0.24636   -0.73712    5    diag
    7      0.574D-05      0.254D-05       -76.06415852     75.264156   -0.10392    0.24633   -0.73699    6    diag
    8      0.158D-05      0.475D-06       -76.06415852     75.264143   -0.10391    0.24632   -0.73695    7    diag
    9      0.305D-06      0.654D-07       -76.06415852     75.264133   -0.10390    0.24632   -0.73695    8    diag
   10      0.351D-07      0.151D-07       -76.06415852     75.264136   -0.10390    0.24632   -0.73695    9    orth
   11      0.836D-08      0.341D-08       -76.06415852     75.264136   -0.10390    0.24632   -0.73695    0    orth

 Final occupancy:   5

 !RHF STATE  1.1 Energy               -76.064158519750
 Nuclear energy                         8.97229507
 One-electron energy                 -122.66852149
 Two-electron energy                   37.63206790
 Virial quotient                       -1.00203336
 !RHF STATE  1.1 Dipole moment         -0.10390343     0.24631538    -0.73694673
 Dipole moment /Debye                  -0.26407887     0.62603024    -1.87300906

 Orbital energies:

         1.1          2.1          3.1          4.1          5.1          6.1          7.1
    -20.567870    -1.340566    -0.705813    -0.579447    -0.508496     0.018150     0.027502


 HOMO      5.1    -0.508496 =     -13.8369eV
 LUMO      6.1     0.018150 =       0.4939eV
 LUMO-HOMO         0.526646 =      14.3308eV


 **********************************************************************************************************************************
 DATASETS  * FILE   NREC   LENGTH (MB)   RECORD NAMES
              1      18       49.80       500      610      700      900      950      970     1000      129      960     1100   
                                          VAR    BASINP    GEOM    SYMINP    ZMAT    AOBASIS   BASIS     P2S    ABASIS      S 
                                         1400     1410     1200     1210     1080     1600     1650     1700   
                                           T        V       H0       H01     AOSYM     SMH    MOLCAS    OPER   

              2       8       38.40       700     1000      520     2100     7360     7350      200     2101   
                                         GEOM     BASIS   MCVARS     RHF    F12ABS    EF12    OPTIONS    RHF  

 PROGRAMS   *        TOTAL    HF-SCF       INT   CCSD(T)    HF-SCF       INT
 CPU TIMES  *     14155.94   1349.79      0.44   9683.07   1426.70   1695.72
 REAL TIME  *     15751.63 SEC
 DISK USED  *        14.29 GB (local),      510.90 GB (total)
 SF USED    *        17.68 GB
 GA USED    *         4.87 MB       (max)       0.00 MB       (current)
 **********************************************************************************************************************************

 Basis set:  JKFIT                   
 Basis size:  1104
 Attributes:
 Sphericals:   T
 Basis set:  MP2FIT                  
 Basis size:  1246
 Attributes:
 Sphericals:   T
 Basis set:  RI                      
 Basis size:   730
 Attributes:
 Sphericals:   T
 Basis set:  TDDFT                   
 Basis size:  1246
 Attributes:
 Sphericals:   T

 PROGRAM * CCSD (Closed-shell coupled cluster)     Authors: C. Hampel, H.-J. Werner, 1991, M. Deegan, P.J. Knowles, 1992

                                  CCSD-F12 implementation by  H.-J. Werner, 2007

                   Density fitting integral evaluation by F.R. Manby, 2003,2007, G. Knizia, 2010



 Convergence thresholds:  THRVAR = 1.00D-08  THRDEN = 1.00D-10

 CCSD(T)     terms to be evaluated (factor= 1.000)


 Number of core orbitals:           1 (   1 )
 Number of closed-shell orbitals:   4 (   4 )
 Number of external orbitals:     729 ( 729 )

 Molecular orbitals read from record     2101.2  Type=RHF/CANONICAL (state 1.1)

 MP2-F12 correlation treatment (H.-J. Werner, 2006)
 ==================================================

 Using MP2-F12 with ansatz 3C(FIX)

 Using projected zeroth-order Hamiltonian (+Z)

 FOCKRIB=T FOCKRIC=T FOCKRIP=T CABSP=T CABSA=T CABSK=T CABSF=T GBC=F EBC=F DMAT=T NOFIK=T NOPAO=1 SOLVE=-1  USEPAO=0
 EXCH_A= T EXCH_B= F EXCH_C= F EXCH_P= F

 Geminal basis:    OPTFULL  GEM_TYPE=SLATER  BETA=1.0  NGEM=6

 Optimizing Gaussian exponents for each gem_beta

 Geminal optimization for beta= 1.0000
 Weight function:   m=0, omega= 1.4646

 Augmented Hessian optimization of geminal fit. Trust ratio= 0.40000
 Convergence reached after   2 iterations. Final gradient= 8.53D-16, Step= 4.26D-06, Delta= 1.28D-09

 Alpha:                 0.19532     0.81920     2.85917     9.50073    35.69989   197.79328
 Coeff:                 0.27070     0.30552     0.18297     0.10986     0.06810     0.04224


 All pairs explicitly correlated. Number of r12-pairs:           10

 Excluding core orbitals from MO domains

 AO(A)-basis ORBITAL           loaded. Number of functions:     734
 RI(R)-basis RI                loaded. Number of functions:     730
 DF-basis JKFIT                loaded. Number of functions:    1104

 Screening thresholds:   THRAO=  1.00D-10  THRMO=  1.00D-09  THRPROD=  1.00D-09
                         THRSW=  1.00D-05  THROV=  1.00D-12  THRAOF12= 1.00D-10

 CPU time for Fock operators                      8.55 sec

 Construction of ABS:
 Smallest eigenvalue of S          2.27E-04  (threshold= 1.00E-08)
 Ratio eigmin/eigmax               3.95E-05  (threshold= 1.00E-09)
 Smallest eigenvalue of S kept     2.27E-04  (threshold= 2.27E-04, 0 functions deleted, 730 kept)

 Construction of CABS:
 Smallest eigenvalue of S          9.87E-09  (threshold= 1.00E-08)
 Ratio eigmin/eigmax               9.87E-09  (threshold= 1.00E-09)
 Smallest eigenvalue of S kept     7.97E-08  (threshold= 7.97E-08, 1 functions deleted, 729 kept)

 CPU time for CABS singles                        1.15 sec

 CABS-singles contribution of  -0.00003862 patched into reference energy.
 New reference energy         -76.06419714

 AO(A)-basis ORBITAL           loaded. Number of functions:     734
 RI(R)-basis RI                loaded. Number of functions:     730
 DF-basis MP2FIT               loaded. Number of functions:    1246

 Screening thresholds:   THRAO=  1.00D-10  THRMO=  1.00D-09  THRPROD=  1.00D-09
                         THRSW=  1.00D-05  THROV=  1.00D-12  THRAOF12= 1.00D-10

 CPU time for 3-index integral evaluation        26.79 sec
 CPU time for first  half transformation          2.02 sec ( 7260.9 MFLOP/sec)
 CPU time for second half transformation          0.03 sec ( 2100.8 MFLOP/sec)
 CPU time for sorting                             0.13 sec
 CPU time for fitting                             0.34 sec (20219.2 MFLOP/sec)
 CPU time for tilde quantities                    0.48 sec (19063.6 MFLOP/sec)
 CPU time for assembly                            1.39 sec (25035.3 MFLOP/sec)
 CPU time for tranop_f12                          1.63 sec (26205.7 MFLOP/sec)
 CPU time for f12 integrals (total)              35.47 sec, Elapsed time:     36.89 sec
 F12-matrices built in  4 passes.
 F12-matrices built in  4 passes.
 F12-matrices built in  4 passes.
 F12-matrices built in  4 passes.
 FC-matrix built in  4 passes.
 CPU time for f12 matrices (total)                1.30 sec, Elapsed time:      1.35 sec

 Diagonal F12 approximation with fixed coefficients:  TSING= 0.500,  TTRIP= 0.250 (scaled by -1/beta)

 DF-MP2-F12 energy corrections:
 ==============================
 Approx.                                    Singlet             Triplet             Total
 DF-MP2-F12/3*C(DX,FIX)                -0.007267021547     -0.000572817766     -0.007839839314
 DF-MP2-F12/3*C(FIX)                   -0.006621673845     -0.000353772655     -0.006975446501
 DF-MP2-F12/3C(FIX)                    -0.006688388449     -0.000365983020     -0.007054371469

 DF-MP2-F12 correlation energies:
 ================================
 Approx.                                    Singlet             Triplet             Ecorr            Total Energy
 DF-MP2                                -0.192325170473     -0.102358892167     -0.294684062640    -76.358881202704
 DF-MP2-F12/3*C(DX,FIX)                -0.199592192020     -0.102931709934     -0.302523901954    -76.366721042018
 DF-MP2-F12/3*C(FIX)                   -0.198946844318     -0.102712664822     -0.301659509140    -76.365856649204
 DF-MP2-F12/3C(FIX)                    -0.199013558921     -0.102724875187     -0.301738434108    -76.365935574172

 SCS-DF-MP2 energies (F_SING= 1.20000  F_TRIP= 0.62222  F_PARALLEL= 0.33333):
 ============================================================================
 SCS-DF-MP2                            -0.294480181916    -76.358677321980
 SCS-DF-MP2-F12/3*C(DX,FIX)            -0.303557027716    -76.367754167780
 SCS-DF-MP2-F12/3*C(FIX)               -0.302646315738    -76.366843455802
 SCS-DF-MP2-F12/3C(FIX)                -0.302733970822    -76.366931110886
 Symmetry transformation completed.

 Number of N-1 electron functions:               4
 Number of N-2 electron functions:              10
 Number of singly external CSFs:              2916
 Number of doubly external CSFs:           4252986
 Total number of CSFs:                     4255903

 Pair and operator lists are different

 Length of J-op  integral file:             411.24 MB
 Length of K-op  integral file:             721.80 MB
 Length of 3-ext integral record:             0.00 MB

 Memory could be reduced to 2535.14 Mwords without degradation in triples

 Integral transformation finished. Total CPU: 534.14 sec, npass=  1  Memory used:1009.99 MW

 Reference energy:                    -76.06419714

 Adding F12 terms to K(Cij), methodcc=6,  factor= 1.0

 ITER.      SQ.NORM     CORR.ENERGY   TOTAL ENERGY   ENERGY CHANGE        DEN1      VAR(S)    VAR(P)  DIIS     TIME  TIME/IT
   1      1.06387615    -0.29310082   -76.35729796     0.00158944     0.00769159  0.79D-03  0.11D-02  1  1   716.55   144.76
   2      1.06743767    -0.29319589   -76.35739303    -0.00009507    -0.00501137  0.15D-04  0.12D-03  2  2   852.34   146.64
   3      1.06879651    -0.29329046   -76.35748760    -0.00009457    -0.00095970  0.83D-05  0.74D-05  3  3   988.46   147.48
   4      1.06932018    -0.29329617   -76.35749331    -0.00000571    -0.00028440  0.53D-06  0.74D-06  4  4  1125.49   148.03
   5      1.06942533    -0.29329491   -76.35749205     0.00000125    -0.00003063  0.17D-06  0.54D-07  5  5  1257.91   147.21
   6      1.06945992    -0.29329262   -76.35748976     0.00000229    -0.00000597  0.18D-07  0.44D-08  6  6  1391.29   147.03
   7      1.06946824    -0.29329209   -76.35748923     0.00000053    -0.00000127  0.13D-08  0.66D-09  6  2  1527.96   147.38
   8      1.06947002    -0.29329198   -76.35748912     0.00000011    -0.00000000  0.17D-09  0.68D-10  6  1  1665.79   147.77
   9      1.06947062    -0.29329195   -76.35748909     0.00000003     0.00000000  0.13D-10  0.83D-11  6  3  1804.85   148.19
  10      1.06947072    -0.29329194   -76.35748908     0.00000001     0.00000003  0.18D-11  0.90D-12  6  4  1942.43   148.45
  11      1.06947071    -0.29329195   -76.35748909    -0.00000000     0.00000003  0.37D-12  0.13D-12  6  5  2080.96   148.73
  12      1.06947071    -0.29329195   -76.35748909    -0.00000000     0.00000001  0.74D-13  0.20D-13  6  6  2218.51   148.88
  13      1.06947070    -0.29329195   -76.35748909    -0.00000000     0.00000000  0.12D-13  0.31D-14  6  2  2357.23   149.09
  14      1.06947069    -0.29329195   -76.35748909    -0.00000000     0.00000000  0.14D-14  0.67D-15  6  1  2495.57   149.25
  15      1.06947069    -0.29329195   -76.35748909    -0.00000000    -0.00000000  0.15D-15  0.96D-16  6  3  2633.92   149.39
  16      1.06947069    -0.29329195   -76.35748909    -0.00000000    -0.00000000  0.20D-16  0.12D-16  6  4  2772.95   149.56

 Norm of t1 vector:      0.03695119      S-energy:    -0.00000000      T1 diagnostic:  0.00923780
                                                                       D1 diagnostic:  0.01884034

 Adding energy correction from Wij-K(Fij), methodcc=6  factor= 1.0

  CCSD correlation energy              -0.293291947200
  MP2-F12 correction (uncoupled)       -0.006967586206
  C*T doubles correction               -0.000093968741
  f12b correction                       0.001585020460


 Total CPU time for triples:    627.87 sec

  Ecorr(MP2)                           -0.294690260487
  Ecorr(MP2-F12)                       -0.301744631955
  Scale factor for triples energy       1.023938257942


 RESULTS
 =======

  Reference energy                    -76.064158519749
  F12 singles correction               -0.000038620315

 F12 singles corrections added to reference energy

  New reference energy                -76.064197140064

  F12a singlet correction              -0.006662146822
  F12a triplet correction              -0.000399408125
  F12a total correction                -0.007061554947

 F12a corrections for ansatz F12/3C(FIX) added to CCSD energy

  CCSD-F12a singlet pair energy        -0.209548031554
  CCSD-F12a triplet pair energy        -0.090805470009
  CCSD-F12a correlation energy         -0.300353502147

  Triples (T) contribution (scaled)    -0.010080066781
  Total correlation energy             -0.310433568927

  CCSD-F12a total energy              -76.364550642211
  CCSD[T]-F12a energy                 -76.374951367887
  CCSD-T-F12a energy                  -76.374489943831
 !CCSD(T)-F12a total energy           -76.374630708991

 F12b corrections for ansatz F12/3C(FIX) added to CCSD(T)-F12a energy

  CCSD-F12b singlet pair energy        -0.208026393891
  CCSD-F12b triplet pair energy        -0.090742087213
  CCSD-F12b correlation energy         -0.298768481687

  Triples (T) contribution (scaled)    -0.010080066781
  Total correlation energy             -0.308848548468

  CCSD-F12b total energy              -76.362965621751
  CCSD[T]-F12b energy                 -76.373366347427
  CCSD-T-F12b energy                  -76.372904923371
 !CCSD(T)-F12b total energy           -76.373045688532

 Timing summary (sec):

 STEP                 CPU(USER)    SYS     CPU(TOT)    WALL
 Transformation        534.64     24.19    558.83    560.75
 CCSD iterations      2189.88    197.14   2387.02   2393.26
 Triples               627.87      5.76    633.63    638.07
 MP2-F12                48.60      1.86     50.46     50.59
 F12b energy           132.56     11.42    143.98    144.51

 Program statistics:

 Available memory in ccsd:              3999999871
 Min. memory needed in ccsd:              19260852
 Max. memory used in ccsd:                22423154
 Max. memory used in cckext:              14628952 (17 integral passes)



 **********************************************************************************************************************************
 DATASETS  * FILE   NREC   LENGTH (MB)   RECORD NAMES
              1      19     6330.34       500      610      700      900      950      970     1000      129      960     1100   
                                          VAR    BASINP    GEOM    SYMINP    ZMAT    AOBASIS   BASIS     P2S    ABASIS      S 
                                         1400     1410     1200     1210     1080     1600     1650     1700     1380   
                                           T        V       H0       H01     AOSYM     SMH    MOLCAS    OPER     JKOP   

              2       8       38.40       700     1000      520     2100     7360     7350      200     2101   
                                         GEOM     BASIS   MCVARS     RHF    F12ABS    EF12    OPTIONS    RHF  

 PROGRAMS   *        TOTAL   CCSD(T)    HF-SCF       INT   CCSD(T)    HF-SCF       INT
 CPU TIMES  *     17689.75   3533.80   1349.79      0.44   9683.07   1426.70   1695.72
 REAL TIME  *     19540.16 SEC
 DISK USED  *        14.29 GB (local),      510.90 GB (total)
 SF USED    *        17.68 GB
 GA USED    *         4.87 MB       (max)       0.00 MB       (current)
 **********************************************************************************************************************************

 Running procedure: SET_MONOMER2

 Dummy atoms: O3  H5  H6


 Recomputing one-electron integrals since nuclear charges changed


 PROGRAM * SEWARD (Integral evaluation for generally contracted gaussian basis sets)     Author: Roland Lindh, 1990

 Geometry written to block  1 of record 700


 Point group  C1  



 ATOMIC COORDINATES

 NR  ATOM    CHARGE       X              Y              Z

   1  O3      0.00   -0.286671453    5.096969303   -1.596440630
   2  H5      0.00    1.007979915    5.665587894   -2.749362539
   3  H6      0.00   -1.895773248    5.235675201   -2.565492187
   4  C1      6.00   -6.193010455    2.801518980    2.403542658
   5  H41     1.00   -4.656285171    1.699997622    3.119937832
   6  H42     1.00   -5.973046335    4.726205038    2.982932688
   7  H43     1.00   -7.940251230    2.077186956    3.118237078
   8  H44     1.00   -6.176569838    2.685300823    0.384937212

 Bond lengths in Bohr (Angstrom)

 1-2  1.824466550  1-3  1.883483165  4-5  2.021904040  4-6  2.022002335  4-7  2.021953343
     ( 0.965466121)     ( 0.996696368)     ( 1.069945541)     ( 1.069997556)     ( 1.069971630)

 4-8  2.022015060
     ( 1.070004290)

 Bond angles

  2-1-3  104.96066383   5-4-6  109.53398059   5-4-7  109.65604535   5-4-8  108.43490854

  6-4-7  109.49436728   6-4-8  109.86987750   7-4-8  109.83468330

 NUCLEAR CHARGE:                   10
 NUMBER OF PRIMITIVE AOS:        1046
 NUMBER OF SYMMETRY AOS:          786
 NUMBER OF CONTRACTIONS:          734   (  734A   )
 NUMBER OF CORE ORBITALS:           1   (    1A   )
 NUMBER OF VALENCE ORBITALS:        8   (    8A   )

 MOLECULE CHANGED: INITIALIZING OCCUPATION AND DUMP RECORDS


 NUCLEAR REPULSION ENERGY   13.68681606

 Basis set:  JKFIT                   
 Basis size:  1104
 Attributes:
 Sphericals:   T
 Basis set:  MP2FIT                  
 Basis size:  1246
 Attributes:
 Sphericals:   T
 Basis set:  RI                      
 Basis size:   730
 Attributes:
 Sphericals:   T
 Basis set:  TDDFT                   
 Basis size:  1246
 Attributes:
 Sphericals:   T

 Eigenvalues of metric

         1 0.154E-05 0.186E-05 0.352E-05 0.489E-05 0.545E-05 0.758E-05 0.791E-05 0.911E-05


 Contracted 2-electron integrals neglected if value below      1.0D-14

 OPERATOR DM      FOR CENTER  0  COORDINATES:    0.000000    0.000000    0.000000


 **********************************************************************************************************************************
 DATASETS  * FILE   NREC   LENGTH (MB)   RECORD NAMES
              1      18       49.80       500      610      700      900      950      970     1000      129      960     1100   
                                          VAR    BASINP    GEOM    SYMINP    ZMAT    AOBASIS   BASIS     P2S    ABASIS      S 
                                         1400     1410     1200     1210     1080     1600     1650     1700   
                                           T        V       H0       H01     AOSYM     SMH    MOLCAS    OPER   

              2       8       38.40       700     1000      520     2100     7360     7350      200     2101   
                                         GEOM     BASIS   MCVARS     RHF    F12ABS    EF12    OPTIONS    RHF  

 PROGRAMS   *        TOTAL       INT   CCSD(T)    HF-SCF       INT   CCSD(T)    HF-SCF       INT
 CPU TIMES  *     17690.34      0.57   3533.80   1349.79      0.44   9683.07   1426.70   1695.72
 REAL TIME  *     19542.22 SEC
 DISK USED  *        14.29 GB (local),      510.90 GB (total)
 SF USED    *        17.68 GB
 GA USED    *         4.87 MB       (max)       0.00 MB       (current)
 **********************************************************************************************************************************


 PROGRAM * RHF-SCF (CLOSED SHELL)       Authors: W. Meyer, H.-J. Werner


 NUMBER OF ELECTRONS:       5+    5-    SPACE SYMMETRY=1    SPIN SYMMETRY: Singlet 
 CONVERGENCE THRESHOLDS:    1.00E-08 (Density)    1.00E-11 (Energy)
 MAX. NUMBER OF ITERATIONS:       60
 INTERPOLATION TYPE:            DIIS
 INTERPOLATION STEPS:              2 (START)      1 (STEP)
 LEVEL SHIFTS:                  0.00 (CLOSED)  0.00 (OPEN) 



 Orbital guess generated from atomic densities. Full valence occupancy:    9

 Molecular orbital dump at record        2102.2

 Initial occupancy:   5

 ITERATION    DDIFF          GRAD             ENERGY        2-EL.EN.            DIPOLE MOMENTS         DIIS   ORB.
    1      0.000D+00      0.000D+00       -40.19676513     53.509900    0.00411   -0.00276   -0.00131    0    start
    2      0.000D+00      0.198D-02       -40.21405734     52.218476    0.00129   -0.00087   -0.00038    1    diag
    3      0.947D-03      0.769D-03       -40.21634077     52.673983    0.00182   -0.00123   -0.00055    2    diag
    4      0.258D-03      0.192D-03       -40.21666109     52.619246    0.00162   -0.00110   -0.00049    3    diag
    5      0.963D-04      0.248D-04       -40.21666658     52.621404    0.00159   -0.00108   -0.00048    4    diag
    6      0.324D-04      0.204D-05       -40.21666662     52.621532    0.00159   -0.00108   -0.00048    5    diag
    7      0.614D-05      0.166D-06       -40.21666662     52.621494    0.00159   -0.00108   -0.00048    6    diag
    8      0.407D-06      0.136D-07       -40.21666662     52.621495    0.00159   -0.00108   -0.00048    7    diag
    9      0.532D-07      0.167D-08       -40.21666662     52.621495    0.00159   -0.00108   -0.00048    8    diag
   10      0.108D-07      0.465D-09       -40.21666662     52.621495    0.00159   -0.00108   -0.00048    9    orth
   11      0.117D-08      0.666D-10       -40.21666662     52.621495    0.00159   -0.00108   -0.00048    0    orth

 Final occupancy:   5

 !RHF STATE  1.1 Energy               -40.216666618914
 Nuclear energy                        13.68681606
 One-electron energy                  -80.21423015
 Two-electron energy                   26.31074747
 Virial quotient                       -0.99832816
 !RHF STATE  1.1 Dipole moment          0.00158978    -0.00107834    -0.00047523
 Dipole moment /Debye                   0.00404056    -0.00274068    -0.00120783

 Orbital energies:

         1.1          2.1          3.1          4.1          5.1          6.1          7.1
    -11.196017    -0.950605    -0.551931    -0.549996    -0.547818     0.020496     0.030149


 HOMO      5.1    -0.547818 =     -14.9069eV
 LUMO      6.1     0.020496 =       0.5577eV
 LUMO-HOMO         0.568314 =      15.4646eV


 **********************************************************************************************************************************
 DATASETS  * FILE   NREC   LENGTH (MB)   RECORD NAMES
              1      18       49.80       500      610      700      900      950      970     1000      129      960     1100   
                                          VAR    BASINP    GEOM    SYMINP    ZMAT    AOBASIS   BASIS     P2S    ABASIS      S 
                                         1400     1410     1200     1210     1080     1600     1650     1700   
                                           T        V       H0       H01     AOSYM     SMH    MOLCAS    OPER   

              2       9       62.49       700     1000      520     2100     7360     7350      200     2101     2102   
                                         GEOM     BASIS   MCVARS     RHF    F12ABS    EF12    OPTIONS    RHF      RHF  

 PROGRAMS   *        TOTAL    HF-SCF       INT   CCSD(T)    HF-SCF       INT   CCSD(T)    HF-SCF       INT
 CPU TIMES  *     19181.63   1491.29      0.57   3533.80   1349.79      0.44   9683.07   1426.70   1695.72
 REAL TIME  *     21189.11 SEC
 DISK USED  *        14.29 GB (local),      510.90 GB (total)
 SF USED    *        17.68 GB
 GA USED    *         4.87 MB       (max)       0.00 MB       (current)
 **********************************************************************************************************************************

 Basis set:  JKFIT                   
 Basis size:  1104
 Attributes:
 Sphericals:   T
 Basis set:  MP2FIT                  
 Basis size:  1246
 Attributes:
 Sphericals:   T
 Basis set:  RI                      
 Basis size:   730
 Attributes:
 Sphericals:   T
 Basis set:  TDDFT                   
 Basis size:  1246
 Attributes:
 Sphericals:   T

 PROGRAM * CCSD (Closed-shell coupled cluster)     Authors: C. Hampel, H.-J. Werner, 1991, M. Deegan, P.J. Knowles, 1992

                                  CCSD-F12 implementation by  H.-J. Werner, 2007

                   Density fitting integral evaluation by F.R. Manby, 2003,2007, G. Knizia, 2010



 Convergence thresholds:  THRVAR = 1.00D-08  THRDEN = 1.00D-10

 CCSD(T)     terms to be evaluated (factor= 1.000)


 Number of core orbitals:           1 (   1 )
 Number of closed-shell orbitals:   4 (   4 )
 Number of external orbitals:     729 ( 729 )

 Molecular orbitals read from record     2102.2  Type=RHF/CANONICAL (state 1.1)

 MP2-F12 correlation treatment (H.-J. Werner, 2006)
 ==================================================

 Using MP2-F12 with ansatz 3C(FIX)

 Using projected zeroth-order Hamiltonian (+Z)

 FOCKRIB=T FOCKRIC=T FOCKRIP=T CABSP=T CABSA=T CABSK=T CABSF=T GBC=F EBC=F DMAT=T NOFIK=T NOPAO=1 SOLVE=-1  USEPAO=0
 EXCH_A= T EXCH_B= F EXCH_C= F EXCH_P= F

 Geminal basis:    OPTFULL  GEM_TYPE=SLATER  BETA=1.0  NGEM=6

 Optimizing Gaussian exponents for each gem_beta

 Geminal optimization for beta= 1.0000
 Weight function:   m=0, omega= 1.4646

 Augmented Hessian optimization of geminal fit. Trust ratio= 0.40000
 Convergence reached after   2 iterations. Final gradient= 8.53D-16, Step= 4.26D-06, Delta= 1.28D-09

 Alpha:                 0.19532     0.81920     2.85917     9.50073    35.69989   197.79328
 Coeff:                 0.27070     0.30552     0.18297     0.10986     0.06810     0.04224


 All pairs explicitly correlated. Number of r12-pairs:           10

 Excluding core orbitals from MO domains

 AO(A)-basis ORBITAL           loaded. Number of functions:     734
 RI(R)-basis RI                loaded. Number of functions:     730
 DF-basis JKFIT                loaded. Number of functions:    1104

 Screening thresholds:   THRAO=  1.00D-10  THRMO=  1.00D-09  THRPROD=  1.00D-09
                         THRSW=  1.00D-05  THROV=  1.00D-12  THRAOF12= 1.00D-10

 CPU time for Fock operators                      9.15 sec

 Construction of ABS:
 Smallest eigenvalue of S          2.27E-04  (threshold= 1.00E-08)
 Ratio eigmin/eigmax               3.95E-05  (threshold= 1.00E-09)
 Smallest eigenvalue of S kept     2.27E-04  (threshold= 2.27E-04, 0 functions deleted, 730 kept)

 Construction of CABS:
 Smallest eigenvalue of S          9.87E-09  (threshold= 1.00E-08)
 Ratio eigmin/eigmax               9.87E-09  (threshold= 1.00E-09)
 Smallest eigenvalue of S kept     7.97E-08  (threshold= 7.97E-08, 1 functions deleted, 729 kept)

 CPU time for CABS singles                        1.18 sec

 CABS-singles contribution of  -0.00004094 patched into reference energy.
 New reference energy         -40.21670756

 AO(A)-basis ORBITAL           loaded. Number of functions:     734
 RI(R)-basis RI                loaded. Number of functions:     730
 DF-basis MP2FIT               loaded. Number of functions:    1246

 Screening thresholds:   THRAO=  1.00D-10  THRMO=  1.00D-09  THRPROD=  1.00D-09
                         THRSW=  1.00D-05  THROV=  1.00D-12  THRAOF12= 1.00D-10

 CPU time for 3-index integral evaluation        28.00 sec
 CPU time for first  half transformation          2.22 sec ( 6610.9 MFLOP/sec)
 CPU time for second half transformation          0.03 sec ( 2193.2 MFLOP/sec)
 CPU time for sorting                             0.16 sec
 CPU time for fitting                             0.34 sec (26876.8 MFLOP/sec)
 CPU time for tilde quantities                    0.47 sec (19528.7 MFLOP/sec)
 CPU time for assembly                            1.54 sec (22615.6 MFLOP/sec)
 CPU time for tranop_f12                          1.87 sec (21106.6 MFLOP/sec)
 CPU time for f12 integrals (total)              37.39 sec, Elapsed time:     39.40 sec
 F12-matrices built in  4 passes.
 F12-matrices built in  4 passes.
 F12-matrices built in  4 passes.
 F12-matrices built in  4 passes.
 FC-matrix built in  4 passes.
 CPU time for f12 matrices (total)                1.33 sec, Elapsed time:      1.37 sec

 Diagonal F12 approximation with fixed coefficients:  TSING= 0.500,  TTRIP= 0.250 (scaled by -1/beta)

 DF-MP2-F12 energy corrections:
 ==============================
 Approx.                                    Singlet             Triplet             Total
 DF-MP2-F12/3*C(DX,FIX)                -0.003936078836     -0.000213243553     -0.004149322389
 DF-MP2-F12/3*C(FIX)                   -0.003773017091     -0.000161124229     -0.003934141320
 DF-MP2-F12/3C(FIX)                    -0.003820185077     -0.000164178537     -0.003984363615

 DF-MP2-F12 correlation energies:
 ================================
 Approx.                                    Singlet             Triplet             Ecorr            Total Energy
 DF-MP2                                -0.157866873290     -0.056824682507     -0.214691555797    -40.431399118198
 DF-MP2-F12/3*C(DX,FIX)                -0.161802952126     -0.057037926060     -0.218840878185    -40.435548440587
 DF-MP2-F12/3*C(FIX)                   -0.161639890381     -0.056985806736     -0.218625697117    -40.435333259518
 DF-MP2-F12/3C(FIX)                    -0.161687058367     -0.056988861044     -0.218675919411    -40.435383481813

 SCS-DF-MP2 energies (F_SING= 1.20000  F_TRIP= 0.62222  F_PARALLEL= 0.33333):
 ============================================================================
 SCS-DF-MP2                            -0.224797828174    -40.441505390576
 SCS-DF-MP2-F12/3*C(DX,FIX)            -0.229653807655    -40.446361370056
 SCS-DF-MP2-F12/3*C(FIX)               -0.229425703759    -40.446133266161
 SCS-DF-MP2-F12/3C(FIX)                -0.229484205801    -40.446191768203
 Symmetry transformation completed.

 Number of N-1 electron functions:               4
 Number of N-2 electron functions:              10
 Number of singly external CSFs:              2916
 Number of doubly external CSFs:           4252986
 Total number of CSFs:                     4255903

 Pair and operator lists are different

 Length of J-op  integral file:             411.24 MB
 Length of K-op  integral file:             721.80 MB
 Length of 3-ext integral record:             0.00 MB

 Memory could be reduced to 2535.14 Mwords without degradation in triples

 Integral transformation finished. Total CPU: 574.41 sec, npass=  1  Memory used:1009.99 MW

 Reference energy:                    -40.21670756

 Adding F12 terms to K(Cij), methodcc=6,  factor= 1.0

 ITER.      SQ.NORM     CORR.ENERGY   TOTAL ENERGY   ENERGY CHANGE        DEN1      VAR(S)    VAR(P)  DIIS     TIME  TIME/IT
   1      1.07033674    -0.22827067   -40.44497824    -0.01357240    -0.00771822  0.62D-03  0.94D-03  1  1   771.19   158.98
   2      1.07515857    -0.22922762   -40.44593518    -0.00095695    -0.00531219  0.16D-04  0.11D-03  2  2   917.57   160.37
   3      1.07694813    -0.22929498   -40.44600255    -0.00006736    -0.00133763  0.22D-05  0.64D-05  3  3  1062.99   160.25
   4      1.07735091    -0.22929744   -40.44600500    -0.00000245    -0.00021859  0.16D-06  0.39D-06  4  4  1207.55   159.77
   5      1.07740818    -0.22930101   -40.44600857    -0.00000357    -0.00000963  0.14D-07  0.24D-07  5  5  1353.05   159.57
   6      1.07741842    -0.22929965   -40.44600721     0.00000136    -0.00000405  0.88D-09  0.18D-08  6  6  1498.97   159.62
   7      1.07741993    -0.22929926   -40.44600683     0.00000039    -0.00000089  0.55D-10  0.13D-09  6  1  1645.99   159.97
   8      1.07741985    -0.22929932   -40.44600689    -0.00000006     0.00000024  0.59D-11  0.83D-11  6  3  1790.92   159.82
   9      1.07742000    -0.22929930   -40.44600687     0.00000002    -0.00000009  0.39D-12  0.56D-12  6  2  1936.38   159.75
  10      1.07742000    -0.22929930   -40.44600687     0.00000000     0.00000001  0.55D-13  0.61D-13  6  4  2082.96   159.85
  11      1.07742000    -0.22929930   -40.44600687     0.00000000     0.00000000  0.12D-13  0.11D-13  6  2  2227.50   159.74
  12      1.07742000    -0.22929930   -40.44600686     0.00000000     0.00000000  0.54D-15  0.52D-15  6  6  2372.29   159.63
  13      1.07742000    -0.22929930   -40.44600686     0.00000000    -0.00000000  0.45D-16  0.48D-16  6  5  2518.02   159.61
  14      1.07742000    -0.22929930   -40.44600686     0.00000000    -0.00000000  0.77D-17  0.53D-17  6  1  2663.38   159.61
  15      1.07742000    -0.22929930   -40.44600686     0.00000000    -0.00000000  0.37D-17  0.22D-17  6  3  2809.59   159.66

 Norm of t1 vector:      0.03268915      S-energy:    -0.00000000      T1 diagnostic:  0.00817229
                                                                       D1 diagnostic:  0.01311253

 Adding energy correction from Wij-K(Fij), methodcc=6  factor= 1.0

  CCSD correlation energy              -0.229299302245
  MP2-F12 correction (uncoupled)       -0.003886592830
  C*T doubles correction               -0.000069357774
  f12b correction                       0.001101111990

 Total CPU time for triples:    637.32 sec

  Ecorr(MP2)                           -0.214698269825
  Ecorr(MP2-F12)                       -0.218682633439
  Scale factor for triples energy       1.018557967970


 RESULTS
 =======

  Reference energy                    -40.216666618914
  F12 singles correction               -0.000040943488

 F12 singles corrections added to reference energy

  New reference energy                -40.216707562402

  F12a singlet correction              -0.003784476499
  F12a triplet correction              -0.000171474105
  F12a total correction                -0.003955950604

 F12a corrections for ansatz F12/3C(FIX) added to CCSD energy

  CCSD-F12a singlet pair energy        -0.178096683113
  CCSD-F12a triplet pair energy        -0.055158569710
  CCSD-F12a correlation energy         -0.233255252849

  Triples (T) contribution (scaled)    -0.007109198207
  Total correlation energy             -0.240364451056

  CCSD-F12a total energy              -40.449962815250
  CCSD[T]-F12a energy                 -40.457307639050
  CCSD-T-F12a energy                  -40.457004167183
 !CCSD(T)-F12a total energy           -40.457072013458

 F12b corrections for ansatz F12/3C(FIX) added to CCSD(T)-F12a energy

  CCSD-F12b singlet pair energy        -0.177024746623
  CCSD-F12b triplet pair energy        -0.055129394211
  CCSD-F12b correlation energy         -0.232154140859

  Triples (T) contribution (scaled)    -0.007109198207
  Total correlation energy             -0.239263339066

  CCSD-F12b total energy              -40.448861703260
  CCSD[T]-F12b energy                 -40.456206527060
  CCSD-T-F12b energy                  -40.455903055194
 !CCSD(T)-F12b total energy           -40.455970901468

 Timing summary (sec):

 STEP                 CPU(USER)    SYS     CPU(TOT)    WALL
 Transformation        574.88     25.01    599.89    603.08
 CCSD iterations      2183.57    200.73   2384.30   2395.26
 Triples               637.32      4.68    642.00    644.25
 MP2-F12                51.34      2.15     53.49     54.11
 F12b energy           141.01     12.27    153.28    153.92

 Program statistics:

 Available memory in ccsd:              3999999866
 Min. memory needed in ccsd:              19260852
 Max. memory used in ccsd:                22423154
 Max. memory used in cckext:              14628952 (16 integral passes)



 **********************************************************************************************************************************
 DATASETS  * FILE   NREC   LENGTH (MB)   RECORD NAMES
              1      19     6330.34       500      610      700      900      950      970     1000      129      960     1100   
                                          VAR    BASINP    GEOM    SYMINP    ZMAT    AOBASIS   BASIS     P2S    ABASIS      S 
                                         1400     1410     1200     1210     1080     1600     1650     1700     1380   
                                           T        V       H0       H01     AOSYM     SMH    MOLCAS    OPER     JKOP   

              2       9       62.49       700     1000      520     2100     7360     7350      200     2101     2102   
                                         GEOM     BASIS   MCVARS     RHF    F12ABS    EF12    OPTIONS    RHF      RHF  

 PROGRAMS   *        TOTAL   CCSD(T)    HF-SCF       INT   CCSD(T)    HF-SCF       INT   CCSD(T)    HF-SCF       INT
 CPU TIMES  *     22770.00   3588.37   1491.29      0.57   3533.80   1349.79      0.44   9683.07   1426.70   1695.72
 REAL TIME  *     25041.22 SEC
 DISK USED  *        14.29 GB (local),      510.90 GB (total)
 SF USED    *        17.68 GB
 GA USED    *         4.87 MB       (max)       0.00 MB       (current)
 **********************************************************************************************************************************
 Molecular orbitals read from record     2102.2  Type=RHF/CANONICAL (state 1.1)
 Occupation numbers read from record     2102.2  Type=RHF/RHF (state 1.1)
 Orbital energies read from record       2102.2  Type=RHF/CANONICAL (state 1.1)
 Redundancy group numbers read from rec  2102.2  Type=RHF/RHF (state 1.1)

 CCSD(T)-F12/aug-cc-pV5Z energy=    -40.455970901468

     CCSD(T)-F12          HF-SCF     CCSD(T)-F12          HF-SCF     CCSD(T)-F12          HF-SCF
    -40.45597090    -40.21666662    -76.37304569    -76.06415852   -116.82939486   -116.28066896
 **********************************************************************************************************************************
 Molpro calculation terminated
