
 Primary working directories    : /scratch.ssd/kelum/job_385671.cerit-pbs.cerit-sc.cz/molpro.aVfj83y562
 Secondary working directories  : /scratch.ssd/kelum/job_385671.cerit-pbs.cerit-sc.cz/molpro.aVfj83y562
 Wavefunction directory         : /scratch.ssd/kelum/job_385671.cerit-pbs.cerit-sc.cz/
 Main file repository           : /scratch.ssd/kelum/job_385671.cerit-pbs.cerit-sc.cz/molpro.aVfj83y562/

 id        : karlovklimes

 Nodes             nprocs
 zelda3.cerit-sc.cz    4

 Using customized tuning parameters: mindgm=1; mindgv=20; mindgc=4; mindgr=1; noblas=0; minvec=7
 default implementation of scratch files=sf  


 Variables initialized (934), CPU time= 0.00 sec
                                                                                 !gdirect
 memory,4000,m
 gthresh,orbital=1d-10,energy=1d-10
 
 symmetry,nosym
 angstrom
 geometry={
 O17        -4.414800000000      4.436400000000      3.575800000000
 H33        -3.889000000000      4.780900000000      2.793400000000
 H34        -4.626600000000      5.219700000000      4.099200000000
 C1        -3.277200000000      1.482500000000      1.271900000000
 H41        -2.464000000000      0.899600000000      1.651000000000
 H42        -3.160800000000      2.501000000000      1.578500000000
 H43        -4.201800000000      1.099200000000      1.650100000000
 H44        -3.268500000000      1.421000000000      0.203700000000
 }
 
 nkerna=1
 nkernb=1
 
 gf=0
 sing=1
 thrdum=1d-4
 gridthr=1d-8
 
 basis={
 set,orbital
 default,av5z
 set,jkfit
 default,av5z/jkfit
 set,mp2fit
 default,av5z/mp2fit
 set,ri
 default,av5z/optri
 set,tddft
 default,av5z/mp2fit
 }
 
 proc set_monomer1
 dummy,4,5,6,7,8
 endproc
 
 proc set_monomer2
 dummy,1,2,3
 endproc
 
                                                                                 !12 energy
 {hf,accu=1.d-16}
 {ccsd(t)-f12,df_basis=mp2fit,df_basis_exch=jkfit,ri_basis=ri,scale_trip=1,THRAOF12=1d-10}
 
 set_monomer1
 {hf,accu=1.d-16}
 {ccsd(t)-f12,df_basis=mp2fit,df_basis_exch=jkfit,ri_basis=ri,scale_trip=1,THRAOF12=1d-10}
 
 set_monomer2
 {hf,accu=1.d-16}
 {ccsd(t)-f12,df_basis=mp2fit,df_basis_exch=jkfit,ri_basis=ri,scale_trip=1,THRAOF12=1d-10}
 
 Commands  initialized (763), CPU time= 0.01 sec, 617 directives.
 Default parameters read. Elapsed time= 0.24 sec

 Checking input...
 Passed
1


                                         ***  PROGRAM SYSTEM MOLPRO  ***
                                       Copyright, TTI GmbH Stuttgart, 2015
                                    Version 2019.2 linked Jun  8 2019 11:26:33


 **********************************************************************************************************************************
 LABEL *                                                                                 
  64 bit mpp version                                                                     DATE: 25-Mar-20          TIME: 08:35:19  
 **********************************************************************************************************************************

 SHA1:             8135a10abc80eafa5b3ae28ffc55be4890dc4c84
 **********************************************************************************************************************************

 THRESHOLDS:

 ZERO    =  1.00D-12  ONEINT  =  1.00D-12  TWOINT  =  1.00D-11  PREFAC  =  1.00D-14  XXXXXX  =  1.00D-09  EORDER  =  1.00D-04
 ENERGY  =  1.00D-10  ETEST   =  0.00D+00  EDENS   =  0.00D+00  THRDEDEF=  1.00D-06  GRADIENT=  1.00D-02  STEP    =  1.00D-03
 ORBITAL =  1.00D-10  CIVEC   =  1.00D-05  COEFF   =  1.00D-04  PRINTCI =  5.00D-02  PUNCHCI =  9.90D+01  OPTGRAD =  3.00D-04
 OPTENERG=  1.00D-06  OPTSTEP =  3.00D-04  THRGRAD =  1.00D-10  COMPRESS=  1.00D-11  VARMIN  =  1.00D-07  VARMAX  =  1.00D-03
 THRDOUB =  0.00D+00  THRDIV  =  1.00D-05  THRRED  =  1.00D-07  THRPSP  =  1.00D+00  THRDC   =  1.00D-10  THRCS   =  1.00D-10
 THRNRM  =  1.00D-08  THREQ   =  0.00D+00  THRDE   =  1.00D+00  THRREF  =  1.00D-05  SPARFAC =  1.00D+00  THRDLP  =  1.00D-07
 THRDIA  =  1.00D-10  THRDLS  =  1.00D-07  THRGPS  =  0.00D+00  THRKEX  =  0.00D+00  THRDIS  =  2.00D-01  THRVAR  =  1.00D-10
 THRLOC  =  1.00D-06  THRGAP  =  1.00D-06  THRLOCT = -1.00D+00  THRGAPT = -1.00D+00  THRORB  =  1.00D-06  THRMLTP =  0.00D+00
 THRCPQCI=  1.00D-10  KEXTA   =  0.00D+00  THRCOARS=  0.00D+00  SYMTOL  =  1.00D-06  GRADTOL =  1.00D-06  THROVL  =  1.00D-08
 THRORTH =  1.00D-08  GRID    =  1.00D-06  GRIDMAX =  1.00D-03  DTMAX   =  0.00D+00  THROCCDE=  1.00D-01  THROCCDE=  1.00D-01
 THRPRINT=  2.50D-01


 Variable memory set to 4000000000 words,  buffer space 

 ZSYMEL=NOSYM
 ZUNIT=ANG


Geometry recognized as XYZ

 SETTING NKERNA         =         1.00000000                                  
 SETTING NKERNB         =         1.00000000                                  
 SETTING GF             =     0.00000000D+00                                  
 SETTING SING           =         1.00000000                                  
 SETTING THRDUM         =     1.00000000D-04                                  
 SETTING GRIDTHR        =     1.00000000D-08                                  
 SETTING BASIS          =    AV5Z


 Recomputing integrals since basis changed


 Using spherical harmonics

 Library entry O      S aug-cc-pV5Z          selected for orbital group  1
 Library entry O      P aug-cc-pV5Z          selected for orbital group  1
 Library entry O      D aug-cc-pV5Z          selected for orbital group  1
 Library entry O      F aug-cc-pV5Z          selected for orbital group  1
 Library entry O      G aug-cc-pV5Z          selected for orbital group  1
 Library entry O      H aug-cc-pV5Z          selected for orbital group  1
 Library entry H      S aug-cc-pV5Z          selected for orbital group  2
 Library entry H      P aug-cc-pV5Z          selected for orbital group  2
 Library entry H      D aug-cc-pV5Z          selected for orbital group  2
 Library entry H      F aug-cc-pV5Z          selected for orbital group  2
 Library entry H      G aug-cc-pV5Z          selected for orbital group  2
 Library entry C      S aug-cc-pV5Z          selected for orbital group  3
 Library entry C      P aug-cc-pV5Z          selected for orbital group  3
 Library entry C      D aug-cc-pV5Z          selected for orbital group  3
 Library entry C      F aug-cc-pV5Z          selected for orbital group  3
 Library entry C      G aug-cc-pV5Z          selected for orbital group  3
 Library entry C      H aug-cc-pV5Z          selected for orbital group  3


 PROGRAM * SEWARD (Integral evaluation for generally contracted gaussian basis sets)     Author: Roland Lindh, 1990

 Geometry written to block  1 of record 700


 Point group  C1  



 ATOMIC COORDINATES

 NR  ATOM    CHARGE       X              Y              Z

   1  O17     8.00   -8.342762895    8.383580979    6.757282676
   2  H33     1.00   -7.349144898    9.034591629    5.278760956
   3  H34     1.00   -8.743006888    9.863803452    7.746365330
   4  C1      6.00   -6.193010455    2.801518980    2.403542658
   5  H41     1.00   -4.656285171    1.699997622    3.119937832
   6  H42     1.00   -5.973046335    4.726205038    2.982932688
   7  H43     1.00   -7.940251230    2.077186956    3.118237078
   8  H44     1.00   -6.176569838    2.685300823    0.384937212

 Bond lengths in Bohr (Angstrom)

 1-2  1.896606987  1-3  1.824702255  4-5  2.021904040  4-6  2.022002335  4-7  2.021953343
     ( 1.003641196)     ( 0.965590850)     ( 1.069945541)     ( 1.069997556)     ( 1.069971630)

 4-8  2.022015060
     ( 1.070004290)

 Bond angles

  2-1-3  105.01239280   5-4-6  109.53398059   5-4-7  109.65604535   5-4-8  108.43490854

  6-4-7  109.49436728   6-4-8  109.86987750   7-4-8  109.83468330

 NUCLEAR CHARGE:                   20
 NUMBER OF PRIMITIVE AOS:        1046
 NUMBER OF SYMMETRY AOS:          786
 NUMBER OF CONTRACTIONS:          734   (  734A   )
 NUMBER OF CORE ORBITALS:           2   (    2A   )
 NUMBER OF VALENCE ORBITALS:       14   (   14A   )


 NUCLEAR REPULSION ENERGY   35.98231600


 Basis set:  JKFIT                   
 Basis size:  1104
 Attributes:
 Sphericals:   T
 Basis set:  MP2FIT                  
 Basis size:  1246
 Attributes:
 Sphericals:   T
 Basis set:  RI                      
 Basis size:   730
 Attributes:
 Sphericals:   T
 Basis set:  TDDFT                   
 Basis size:  1246
 Attributes:
 Sphericals:   T

 **********************************************************************************************************************************


 Eigenvalues of metric

         1 0.160E-05 0.204E-05 0.336E-05 0.446E-05 0.525E-05 0.642E-05 0.880E-05 0.951E-05


 Contracted 2-electron integrals neglected if value below      1.0D-14
 AO integral compression algorithm  1   Integral accuracy      1.0D-14

     145887.068 MB (compressed) written to integral file ( 46.2%)

     Node minimum: 35067.265 MB, node maximum: 37486.592 MB


 NUMBER OF SORTED TWO-ELECTRON INTEGRALS: 9095363064.     BUFFER LENGTH:  32768
 NUMBER OF SEGMENTS: 190  SEGMENT LENGTH:   47999780      RECORD LENGTH: 131072

 Memory used in sort:      48.16 MW

 SORT1 READ 39469261449. AND WROTE  6629789005. INTEGRALS IN  75970 RECORDS. CPU TIME:   398.46 SEC, REAL TIME:   487.78 SEC
 SORT2 READ 26521853573. AND WROTE 36381317385. INTEGRALS IN 572000 RECORDS. CPU TIME:   107.85 SEC, REAL TIME:   176.48 SEC

 Node minimum:  9095228192.  Node maximum:  9095430501. integrals

 OPERATOR DM      FOR CENTER  0  COORDINATES:    0.000000    0.000000    0.000000


 **********************************************************************************************************************************
 DATASETS  * FILE   NREC   LENGTH (MB)   RECORD NAMES
              1      18       49.80       500      610      700      900      950      970     1000      129      960     1100   
                                          VAR    BASINP    GEOM    SYMINP    ZMAT    AOBASIS   BASIS     P2S    ABASIS      S 
                                         1400     1410     1200     1210     1080     1600     1650     1700   
                                           T        V       H0       H01     AOSYM     SMH    MOLCAS    OPER   

 PROGRAMS   *        TOTAL       INT
 CPU TIMES  *      1008.12   1007.93
 REAL TIME  *      1196.47 SEC
 DISK USED  *        50.44 MB (local),      464.00 GB (total)
 GA USED    *         0.00 MB       (max)       0.00 MB       (current)
 **********************************************************************************************************************************


 PROGRAM * RHF-SCF (CLOSED SHELL)       Authors: W. Meyer, H.-J. Werner


 NUMBER OF ELECTRONS:      10+   10-    SPACE SYMMETRY=1    SPIN SYMMETRY: Singlet 
 CONVERGENCE THRESHOLDS:    1.00E-08 (Density)    1.00E-11 (Energy)
 MAX. NUMBER OF ITERATIONS:       60
 INTERPOLATION TYPE:            DIIS
 INTERPOLATION STEPS:              2 (START)      1 (STEP)
 LEVEL SHIFTS:                  0.00 (CLOSED)  0.00 (OPEN) 



 Orbital guess generated from atomic densities. Full valence occupancy:   16

 Molecular orbital dump at record        2100.2

 Initial occupancy:  10

 ITERATION    DDIFF          GRAD             ENERGY        2-EL.EN.            DIPOLE MOMENTS         DIIS   ORB.
    1      0.000D+00      0.000D+00      -116.22038205    157.703240    0.31332    1.08537   -0.26164    0    start
    2      0.000D+00      0.292D-02      -116.26486086    152.637675    0.14447    0.62219   -0.09856    1    diag
    3      0.162D-02      0.173D-02      -116.27883771    154.746628    0.18674    0.74098   -0.13927    2    diag
    4      0.559D-03      0.256D-03      -116.27950932    154.633069    0.18319    0.73043   -0.13590    3    diag
    5      0.125D-03      0.757D-04      -116.27958056    154.628747    0.18254    0.73018   -0.13505    4    diag
    6      0.522D-04      0.183D-04      -116.27958454    154.634382    0.18225    0.72943   -0.13473    5    diag
    7      0.189D-04      0.373D-05      -116.27958479    154.632730    0.18224    0.72945   -0.13469    6    diag
    8      0.554D-05      0.967D-06      -116.27958481    154.632916    0.18220    0.72939   -0.13465    7    diag
    9      0.125D-05      0.229D-06      -116.27958481    154.632888    0.18219    0.72937   -0.13464    8    diag
   10      0.309D-06      0.266D-07      -116.27958481    154.632889    0.18219    0.72937   -0.13464    9    orth
   11      0.591D-07      0.612D-08      -116.27958481    154.632890    0.18219    0.72937   -0.13464    9    diag
   12      0.599D-08      0.163D-08      -116.27958481    154.632890    0.18219    0.72937   -0.13464    0    orth

 Final occupancy:  10

 !RHF STATE  1.1 Energy              -116.279584807825
 Nuclear energy                        35.98231600
 One-electron energy                 -229.57834578
 Two-electron energy                   77.31644498
 Virial quotient                       -1.00082412
 !RHF STATE  1.1 Dipole moment          0.18219285     0.72937358    -0.13463516
 Dipole moment /Debye                   0.46305771     1.85376131    -0.34218602

 Orbital energies:

         1.1          2.1          3.1          4.1          5.1          6.1          7.1          8.1          9.1         10.1
    -20.568885   -11.191188    -1.339497    -0.945592    -0.704938    -0.579313    -0.546496    -0.544966    -0.543137    -0.508717

        11.1         12.1
      0.021136     0.030814


 HOMO     10.1    -0.508717 =     -13.8429eV
 LUMO     11.1     0.021136 =       0.5751eV
 LUMO-HOMO         0.529853 =      14.4180eV


 **********************************************************************************************************************************
 DATASETS  * FILE   NREC   LENGTH (MB)   RECORD NAMES
              1      18       49.80       500      610      700      900      950      970     1000      129      960     1100   
                                          VAR    BASINP    GEOM    SYMINP    ZMAT    AOBASIS   BASIS     P2S    ABASIS      S 
                                         1400     1410     1200     1210     1080     1600     1650     1700   
                                           T        V       H0       H01     AOSYM     SMH    MOLCAS    OPER   

              2       4       13.79       700     1000      520     2100   
                                         GEOM     BASIS   MCVARS     RHF  

 PROGRAMS   *        TOTAL    HF-SCF       INT
 CPU TIMES  *      2076.14   1068.02   1007.93
 REAL TIME  *      2432.21 SEC
 DISK USED  *       102.61 MB (local),      464.20 GB (total)
 SF USED    *         2.16 MB
 GA USED    *         0.00 MB       (max)       0.00 MB       (current)
 **********************************************************************************************************************************

 Basis set:  JKFIT                   
 Basis size:  1104
 Attributes:
 Sphericals:   T
 Basis set:  MP2FIT                  
 Basis size:  1246
 Attributes:
 Sphericals:   T
 Basis set:  RI                      
 Basis size:   730
 Attributes:
 Sphericals:   T
 Basis set:  TDDFT                   
 Basis size:  1246
 Attributes:
 Sphericals:   T

 PROGRAM * CCSD (Closed-shell coupled cluster)     Authors: C. Hampel, H.-J. Werner, 1991, M. Deegan, P.J. Knowles, 1992

                                  CCSD-F12 implementation by  H.-J. Werner, 2007

                   Density fitting integral evaluation by F.R. Manby, 2003,2007, G. Knizia, 2010



 Convergence thresholds:  THRVAR = 1.00D-08  THRDEN = 1.00D-10

 CCSD(T)     terms to be evaluated (factor= 1.000)


 Number of core orbitals:           2 (   2 )
 Number of closed-shell orbitals:   8 (   8 )
 Number of external orbitals:     724 ( 724 )

 Molecular orbitals read from record     2100.2  Type=RHF/CANONICAL (state 1.1)

 MP2-F12 correlation treatment (H.-J. Werner, 2006)
 ==================================================

 Using MP2-F12 with ansatz 3C(FIX)

 Using projected zeroth-order Hamiltonian (+Z)

 FOCKRIB=T FOCKRIC=T FOCKRIP=T CABSP=T CABSA=T CABSK=T CABSF=T GBC=F EBC=F DMAT=T NOFIK=T NOPAO=1 SOLVE=-1  USEPAO=0
 EXCH_A= T EXCH_B= F EXCH_C= F EXCH_P= F

 Geminal basis:    OPTFULL  GEM_TYPE=SLATER  BETA=1.0  NGEM=6

 Optimizing Gaussian exponents for each gem_beta

 Geminal optimization for beta= 1.0000
 Weight function:   m=0, omega= 1.4646

 Augmented Hessian optimization of geminal fit. Trust ratio= 0.40000
 Convergence reached after   2 iterations. Final gradient= 8.53D-16, Step= 4.26D-06, Delta= 1.28D-09

 Alpha:                 0.19532     0.81920     2.85917     9.50073    35.69989   197.79328
 Coeff:                 0.27070     0.30552     0.18297     0.10986     0.06810     0.04224


 All pairs explicitly correlated. Number of r12-pairs:           36

 Excluding core orbitals from MO domains

 AO(A)-basis ORBITAL           loaded. Number of functions:     734
 RI(R)-basis RI                loaded. Number of functions:     730
 DF-basis JKFIT                loaded. Number of functions:    1104

 Screening thresholds:   THRAO=  1.00D-10  THRMO=  1.00D-09  THRPROD=  1.00D-09
                         THRSW=  1.00D-05  THROV=  1.00D-12  THRAOF12= 1.00D-10

 CPU time for Fock operators                      6.75 sec

 Construction of ABS:
 Smallest eigenvalue of S          2.26E-04  (threshold= 1.00E-08)
 Ratio eigmin/eigmax               3.93E-05  (threshold= 1.00E-09)
 Smallest eigenvalue of S kept     2.26E-04  (threshold= 2.26E-04, 0 functions deleted, 730 kept)

 Construction of CABS:
 Smallest eigenvalue of S          9.38E-09  (threshold= 1.00E-08)
 Ratio eigmin/eigmax               9.38E-09  (threshold= 1.00E-09)
 Smallest eigenvalue of S kept     8.04E-08  (threshold= 8.04E-08, 1 functions deleted, 729 kept)

 CPU time for CABS singles                        0.69 sec

 CABS-singles contribution of  -0.00007891 patched into reference energy.
 New reference energy        -116.27966371

 AO(A)-basis ORBITAL           loaded. Number of functions:     734
 RI(R)-basis RI                loaded. Number of functions:     730
 DF-basis MP2FIT               loaded. Number of functions:    1246

 Screening thresholds:   THRAO=  1.00D-10  THRMO=  1.00D-09  THRPROD=  1.00D-09
                         THRSW=  1.00D-05  THROV=  1.00D-12  THRAOF12= 1.00D-10

 CPU time for 3-index integral evaluation        19.85 sec
 CPU time for first  half transformation          1.79 sec (16687.8 MFLOP/sec)
 CPU time for second half transformation          0.07 sec ( 3672.5 MFLOP/sec)
 CPU time for sorting                             0.27 sec
 CPU time for fitting                             0.20 sec (46389.2 MFLOP/sec)
 CPU time for tilde quantities                    0.25 sec (55095.7 MFLOP/sec)
 CPU time for assembly                            2.02 sec (61714.9 MFLOP/sec)
 CPU time for tranop_f12                          2.72 sec (62450.2 MFLOP/sec)
 CPU time for f12 integrals (total)              30.69 sec, Elapsed time:     34.67 sec
 F12-matrices built in  4 passes.
 F12-matrices built in  4 passes.
 F12-matrices built in  4 passes.
 F12-matrices built in  4 passes.
 FC-matrix built in  4 passes.
 CPU time for f12 matrices (total)                2.45 sec, Elapsed time:      2.66 sec

 Diagonal F12 approximation with fixed coefficients:  TSING= 0.500,  TTRIP= 0.250 (scaled by -1/beta)

 DF-MP2-F12 energy corrections:
 ==============================
 Approx.                                    Singlet             Triplet             Total
 DF-MP2-F12/3*C(DX,FIX)                -0.011198157605     -0.000786539425     -0.011984697031
 DF-MP2-F12/3*C(FIX)                   -0.010389190558     -0.000515687617     -0.010904878175
 DF-MP2-F12/3C(FIX)                    -0.010502857633     -0.000531099879     -0.011033957512

 DF-MP2-F12 correlation energies:
 ================================
 Approx.                                    Singlet             Triplet             Ecorr            Total Energy
 DF-MP2                                -0.350575883014     -0.159744704461     -0.510320587475   -116.789984301551
 DF-MP2-F12/3*C(DX,FIX)                -0.361774040620     -0.160531243886     -0.522305284506   -116.801968998581
 DF-MP2-F12/3*C(FIX)                   -0.360965073572     -0.160260392078     -0.521225465650   -116.800889179725
 DF-MP2-F12/3C(FIX)                    -0.361078740647     -0.160275804340     -0.521354544987   -116.801018259063

 SCS-DF-MP2 energies (F_SING= 1.20000  F_TRIP= 0.62222  F_PARALLEL= 0.33333):
 ============================================================================
 SCS-DF-MP2                            -0.520087764615   -116.799751478690
 SCS-DF-MP2-F12/3*C(DX,FIX)            -0.534014956051   -116.813678670126
 SCS-DF-MP2-F12/3*C(FIX)               -0.532875665579   -116.812539379655
 SCS-DF-MP2-F12/3C(FIX)                -0.533021655921   -116.812685369997
 Symmetry transformation completed.

 Number of N-1 electron functions:               8
 Number of N-2 electron functions:              36
 Number of singly external CSFs:              5792
 Number of doubly external CSFs:          16776528
 Total number of CSFs:                    16782321

 Pair and operator lists are different

 Length of J-op  integral file:               1.47 GB
 Length of K-op  integral file:               2.18 GB
 Length of 3-ext integral record:             0.00 MB

 For full I/O caching in triples, increase memory by 34.16 Mwords to 4034.21 Mwords.

 Integral transformation finished. Total CPU: 750.73 sec, npass=  1  Memory used:1826.21 MW

 Reference energy:                   -116.27966371

 Adding F12 terms to K(Cij), methodcc=6,  factor= 1.0

 ITER.      SQ.NORM     CORR.ENERGY   TOTAL ENERGY   ENERGY CHANGE        DEN1      VAR(S)    VAR(P)  DIIS     TIME  TIME/IT
   1      1.13470016    -0.52222912  -116.80189283    -0.01189565     0.00011617  0.14D-02  0.20D-02  1  1   981.58   203.00
   2      1.14302293    -0.52327753  -116.80294124    -0.00104842    -0.01027733  0.33D-04  0.25D-03  2  2  1199.20   219.80
   3      1.14629275    -0.52344608  -116.80310980    -0.00016855    -0.00236452  0.11D-04  0.15D-04  3  3  1404.87   221.82
   4      1.14726636    -0.52345185  -116.80311557    -0.00000577    -0.00053679  0.69D-06  0.13D-05  4  4  1612.89   223.03
   5      1.14743674    -0.52345380  -116.80311751    -0.00000195    -0.00004251  0.20D-06  0.95D-07  5  5  1824.46   224.84
   6      1.14748312    -0.52345106  -116.80311478     0.00000274    -0.00000821  0.23D-07  0.82D-08  6  6  2028.02   224.54
   7      1.14749416    -0.52344985  -116.80311356     0.00000122    -0.00000275  0.23D-08  0.10D-08  6  2  2235.84   225.03
   8      1.14749704    -0.52344962  -116.80311333     0.00000023    -0.00000037  0.32D-09  0.10D-09  6  1  2438.94   224.79
   9      1.14749791    -0.52344958  -116.80311329     0.00000004    -0.00000003  0.26D-10  0.16D-10  6  3  2643.12   224.68
  10      1.14749804    -0.52344959  -116.80311330    -0.00000001     0.00000010  0.27D-11  0.18D-11  6  4  2851.24   225.08
  11      1.14749801    -0.52344959  -116.80311331    -0.00000001     0.00000008  0.41D-12  0.24D-12  6  5  3053.78   224.80
  12      1.14749798    -0.52344959  -116.80311331    -0.00000000     0.00000002  0.89D-13  0.33D-13  6  6  3256.50   224.58
  13      1.14749796    -0.52344960  -116.80311331    -0.00000000     0.00000001  0.18D-13  0.47D-14  6  2  3458.62   224.35
  14      1.14749795    -0.52344960  -116.80311331    -0.00000000     0.00000000  0.28D-14  0.10D-14  6  1  3659.23   224.03
  15      1.14749795    -0.52344960  -116.80311331    -0.00000000    -0.00000000  0.35D-15  0.15D-15  6  3  3868.10   224.37
  16      1.14749795    -0.52344960  -116.80311331    -0.00000000    -0.00000000  0.51D-16  0.24D-16  6  4  4066.80   224.05
  17      1.14749795    -0.52344960  -116.80311331    -0.00000000    -0.00000000  0.15D-16  0.60D-17  6  5  4278.50   224.50

 Norm of t1 vector:      0.04979028      S-energy:    -0.00000000      T1 diagnostic:  0.00880176
                                                                       D1 diagnostic:  0.01921667

 Adding energy correction from Wij-K(Fij), methodcc=6  factor= 1.0

  CCSD correlation energy              -0.523449596686
  MP2-F12 correction (uncoupled)       -0.010850712819
  C*T doubles correction               -0.000162418832
  f12b correction                       0.002686983647

   CPU time for triples:   2439.89 sec for i =  1 -  7 /  8 (~  68.8 % done)
   CPU time for triples:   1056.22 sec for i =  8 -  8 /  8 (  100.0 % done)

 Total CPU time for triples:   3496.21 sec

  Ecorr(MP2)                           -0.510333468333
  Ecorr(MP2-F12)                       -0.521367425845
  Scale factor for triples energy       1.021621073664


 RESULTS
 =======

  Reference energy                   -116.279584807823
  F12 singles correction               -0.000078906252

 F12 singles corrections added to reference energy

  New reference energy               -116.279663714076

  F12a singlet correction              -0.010441420525
  F12a triplet correction              -0.000571711126
  F12a total correction                -0.011013131651

 F12a corrections for ansatz F12/3C(FIX) added to CCSD energy

  CCSD-F12a singlet pair energy        -0.388004214400
  CCSD-F12a triplet pair energy        -0.146458513657
  CCSD-F12a correlation energy         -0.534462728337

  Triples (T) contribution (scaled)    -0.017343449725
  Total correlation energy             -0.551806178061

  CCSD-F12a total energy             -116.814126442412
  CCSD[T]-F12a energy                -116.832031881861
  CCSD-T-F12a energy                 -116.831257891101
 !CCSD(T)-F12a total energy          -116.831469892137

 F12b corrections for ansatz F12/3C(FIX) added to CCSD(T)-F12a energy

  CCSD-F12b singlet pair energy        -0.385409965394
  CCSD-F12b triplet pair energy        -0.146365779017
  CCSD-F12b correlation energy         -0.531775744690

  Triples (T) contribution (scaled)    -0.017343449725
  Total correlation energy             -0.549119194415

  CCSD-F12b total energy             -116.811439458765
  CCSD[T]-F12b energy                -116.829344898214
  CCSD-T-F12b energy                 -116.828570907454
 !CCSD(T)-F12b total energy          -116.828782908490

 Timing summary (sec):

 STEP                 CPU(USER)    SYS     CPU(TOT)    WALL
 Transformation        751.70     52.04    803.74    807.24
 CCSD iterations      3484.14    318.76   3802.90   3817.00
 Triples              3496.21     31.10   3527.31   3540.10
 MP2-F12                42.86      4.59     47.45     48.21
 F12b energy           188.51     15.39    203.90    204.63

 Program statistics:

 Available memory in ccsd:              3999999554
 Min. memory needed in ccsd:              48689265
 Max. memory used in ccsd:                63255345
 Max. memory used in cckext:              42753482 (18 integral passes)



 **********************************************************************************************************************************
 DATASETS  * FILE   NREC   LENGTH (MB)   RECORD NAMES
              1      19    12452.16       500      610      700      900      950      970     1000      129      960     1100   
                                          VAR    BASINP    GEOM    SYMINP    ZMAT    AOBASIS   BASIS     P2S    ABASIS      S 
                                         1400     1410     1200     1210     1080     1600     1650     1700     1380   
                                           T        V       H0       H01     AOSYM     SMH    MOLCAS    OPER     JKOP   

              2       6       24.60       700     1000      520     2100     7360     7350   
                                         GEOM     BASIS   MCVARS     RHF    F12ABS    EF12   

 PROGRAMS   *        TOTAL   CCSD(T)    HF-SCF       INT
 CPU TIMES  *     10039.89   7963.74   1068.02   1007.93
 REAL TIME  *     10852.40 SEC
 DISK USED  *        14.29 GB (local),      515.51 GB (total)
 SF USED    *        17.68 GB
 GA USED    *         4.87 MB       (max)       0.00 MB       (current)
 **********************************************************************************************************************************

 Running procedure: SET_MONOMER1

 Dummy atoms: C1  H41  H42  H43  H44


 Recomputing one-electron integrals since nuclear charges changed


 PROGRAM * SEWARD (Integral evaluation for generally contracted gaussian basis sets)     Author: Roland Lindh, 1990

 Geometry written to block  1 of record 700


 Point group  C1  



 ATOMIC COORDINATES

 NR  ATOM    CHARGE       X              Y              Z

   1  O17     8.00   -8.342762895    8.383580979    6.757282676
   2  H33     1.00   -7.349144898    9.034591629    5.278760956
   3  H34     1.00   -8.743006888    9.863803452    7.746365330
   4  C1      0.00   -6.193010455    2.801518980    2.403542658
   5  H41     0.00   -4.656285171    1.699997622    3.119937832
   6  H42     0.00   -5.973046335    4.726205038    2.982932688
   7  H43     0.00   -7.940251230    2.077186956    3.118237078
   8  H44     0.00   -6.176569838    2.685300823    0.384937212

 Bond lengths in Bohr (Angstrom)

 1-2  1.896606987  1-3  1.824702255  4-5  2.021904040  4-6  2.022002335  4-7  2.021953343
     ( 1.003641196)     ( 0.965590850)     ( 1.069945541)     ( 1.069997556)     ( 1.069971630)

 4-8  2.022015060
     ( 1.070004290)

 Bond angles

  2-1-3  105.01239280   5-4-6  109.53398059   5-4-7  109.65604535   5-4-8  108.43490854

  6-4-7  109.49436728   6-4-8  109.86987750   7-4-8  109.83468330

 NUCLEAR CHARGE:                   10
 NUMBER OF PRIMITIVE AOS:        1046
 NUMBER OF SYMMETRY AOS:          786
 NUMBER OF CONTRACTIONS:          734   (  734A   )
 NUMBER OF CORE ORBITALS:           1   (    1A   )
 NUMBER OF VALENCE ORBITALS:        6   (    6A   )

 MOLECULE CHANGED: INITIALIZING OCCUPATION AND DUMP RECORDS


 NUCLEAR REPULSION ENERGY    8.94098799

 Basis set:  JKFIT                   
 Basis size:  1104
 Attributes:
 Sphericals:   T
 Basis set:  MP2FIT                  
 Basis size:  1246
 Attributes:
 Sphericals:   T
 Basis set:  RI                      
 Basis size:   730
 Attributes:
 Sphericals:   T
 Basis set:  TDDFT                   
 Basis size:  1246
 Attributes:
 Sphericals:   T

 Eigenvalues of metric

         1 0.160E-05 0.204E-05 0.336E-05 0.446E-05 0.525E-05 0.642E-05 0.880E-05 0.951E-05


 Contracted 2-electron integrals neglected if value below      1.0D-14

 OPERATOR DM      FOR CENTER  0  COORDINATES:    0.000000    0.000000    0.000000


 **********************************************************************************************************************************
 DATASETS  * FILE   NREC   LENGTH (MB)   RECORD NAMES
              1      18       49.80       500      610      700      900      950      970     1000      129      960     1100   
                                          VAR    BASINP    GEOM    SYMINP    ZMAT    AOBASIS   BASIS     P2S    ABASIS      S 
                                         1400     1410     1200     1210     1080     1600     1650     1700   
                                           T        V       H0       H01     AOSYM     SMH    MOLCAS    OPER   

              2       7       24.63       700     1000      520     2100     7360     7350      200   
                                         GEOM     BASIS   MCVARS     RHF    F12ABS    EF12    OPTIONS    

 PROGRAMS   *        TOTAL       INT   CCSD(T)    HF-SCF       INT
 CPU TIMES  *     10040.93      1.05   7963.74   1068.02   1007.93
 REAL TIME  *     10856.09 SEC
 DISK USED  *        14.29 GB (local),      515.51 GB (total)
 SF USED    *        17.68 GB
 GA USED    *         4.87 MB       (max)       0.00 MB       (current)
 **********************************************************************************************************************************


 PROGRAM * RHF-SCF (CLOSED SHELL)       Authors: W. Meyer, H.-J. Werner


 NUMBER OF ELECTRONS:       5+    5-    SPACE SYMMETRY=1    SPIN SYMMETRY: Singlet 
 CONVERGENCE THRESHOLDS:    1.00E-08 (Density)    1.00E-11 (Energy)
 MAX. NUMBER OF ITERATIONS:       60
 INTERPOLATION TYPE:            DIIS
 INTERPOLATION STEPS:              2 (START)      1 (STEP)
 LEVEL SHIFTS:                  0.00 (CLOSED)  0.00 (OPEN) 



 Orbital guess generated from atomic densities. Full valence occupancy:    7

 Molecular orbital dump at record        2101.2

 Initial occupancy:   5

 ITERATION    DDIFF          GRAD             ENERGY        2-EL.EN.            DIPOLE MOMENTS         DIIS   ORB.
    1      0.000D+00      0.000D+00       -76.02441612     77.338704    0.31041    1.08950   -0.26178    0    start
    2      0.000D+00      0.361D-02       -76.05130236     73.649707    0.17325    0.63108   -0.14091    1    diag
    3      0.130D-02      0.231D-02       -76.06316603     75.293850    0.20642    0.74659   -0.16910    2    diag
    4      0.496D-03      0.217D-03       -76.06336704     75.201887    0.20390    0.74226   -0.16595    3    diag
    5      0.627D-04      0.618D-04       -76.06338965     75.216771    0.20290    0.74068   -0.16467    4    diag
    6      0.204D-04      0.126D-04       -76.06339119     75.215611    0.20261    0.74032   -0.16429    5    diag
    7      0.541D-05      0.261D-05       -76.06339127     75.215757    0.20253    0.74021   -0.16418    6    diag
    8      0.143D-05      0.483D-06       -76.06339128     75.215744    0.20252    0.74017   -0.16416    7    diag
    9      0.273D-06      0.675D-07       -76.06339128     75.215734    0.20251    0.74017   -0.16416    8    diag
   10      0.376D-07      0.160D-07       -76.06339128     75.215737    0.20251    0.74017   -0.16416    9    orth
   11      0.911D-08      0.380D-08       -76.06339128     75.215737    0.20251    0.74017   -0.16416    0    orth

 Final occupancy:   5

 !RHF STATE  1.1 Energy               -76.063391275329
 Nuclear energy                         8.94098799
 One-electron energy                 -122.61224756
 Two-electron energy                   37.60786830
 Virial quotient                       -1.00218199
 !RHF STATE  1.1 Dipole moment          0.20251471     0.74016667    -0.16415842
 Dipole moment /Debye                   0.51470732     1.88119281    -0.41722175

 Orbital energies:

         1.1          2.1          3.1          4.1          5.1          6.1          7.1
    -20.568415    -1.338922    -0.704074    -0.578625    -0.508219     0.018377     0.028794


 HOMO      5.1    -0.508219 =     -13.8293eV
 LUMO      6.1     0.018377 =       0.5001eV
 LUMO-HOMO         0.526596 =      14.3294eV


 **********************************************************************************************************************************
 DATASETS  * FILE   NREC   LENGTH (MB)   RECORD NAMES
              1      18       49.80       500      610      700      900      950      970     1000      129      960     1100   
                                          VAR    BASINP    GEOM    SYMINP    ZMAT    AOBASIS   BASIS     P2S    ABASIS      S 
                                         1400     1410     1200     1210     1080     1600     1650     1700   
                                           T        V       H0       H01     AOSYM     SMH    MOLCAS    OPER   

              2       8       38.40       700     1000      520     2100     7360     7350      200     2101   
                                         GEOM     BASIS   MCVARS     RHF    F12ABS    EF12    OPTIONS    RHF  

 PROGRAMS   *        TOTAL    HF-SCF       INT   CCSD(T)    HF-SCF       INT
 CPU TIMES  *     11192.88   1151.94      1.05   7963.74   1068.02   1007.93
 REAL TIME  *     12184.12 SEC
 DISK USED  *        14.29 GB (local),      515.51 GB (total)
 SF USED    *        17.68 GB
 GA USED    *         4.87 MB       (max)       0.00 MB       (current)
 **********************************************************************************************************************************

 Basis set:  JKFIT                   
 Basis size:  1104
 Attributes:
 Sphericals:   T
 Basis set:  MP2FIT                  
 Basis size:  1246
 Attributes:
 Sphericals:   T
 Basis set:  RI                      
 Basis size:   730
 Attributes:
 Sphericals:   T
 Basis set:  TDDFT                   
 Basis size:  1246
 Attributes:
 Sphericals:   T

 PROGRAM * CCSD (Closed-shell coupled cluster)     Authors: C. Hampel, H.-J. Werner, 1991, M. Deegan, P.J. Knowles, 1992

                                  CCSD-F12 implementation by  H.-J. Werner, 2007

                   Density fitting integral evaluation by F.R. Manby, 2003,2007, G. Knizia, 2010



 Convergence thresholds:  THRVAR = 1.00D-08  THRDEN = 1.00D-10

 CCSD(T)     terms to be evaluated (factor= 1.000)


 Number of core orbitals:           1 (   1 )
 Number of closed-shell orbitals:   4 (   4 )
 Number of external orbitals:     729 ( 729 )

 Molecular orbitals read from record     2101.2  Type=RHF/CANONICAL (state 1.1)

 MP2-F12 correlation treatment (H.-J. Werner, 2006)
 ==================================================

 Using MP2-F12 with ansatz 3C(FIX)

 Using projected zeroth-order Hamiltonian (+Z)

 FOCKRIB=T FOCKRIC=T FOCKRIP=T CABSP=T CABSA=T CABSK=T CABSF=T GBC=F EBC=F DMAT=T NOFIK=T NOPAO=1 SOLVE=-1  USEPAO=0
 EXCH_A= T EXCH_B= F EXCH_C= F EXCH_P= F

 Geminal basis:    OPTFULL  GEM_TYPE=SLATER  BETA=1.0  NGEM=6

 Optimizing Gaussian exponents for each gem_beta

 Geminal optimization for beta= 1.0000
 Weight function:   m=0, omega= 1.4646

 Augmented Hessian optimization of geminal fit. Trust ratio= 0.40000
 Convergence reached after   2 iterations. Final gradient= 8.53D-16, Step= 4.26D-06, Delta= 1.28D-09

 Alpha:                 0.19532     0.81920     2.85917     9.50073    35.69989   197.79328
 Coeff:                 0.27070     0.30552     0.18297     0.10986     0.06810     0.04224


 All pairs explicitly correlated. Number of r12-pairs:           10

 Excluding core orbitals from MO domains

 AO(A)-basis ORBITAL           loaded. Number of functions:     734
 RI(R)-basis RI                loaded. Number of functions:     730
 DF-basis JKFIT                loaded. Number of functions:    1104

 Screening thresholds:   THRAO=  1.00D-10  THRMO=  1.00D-09  THRPROD=  1.00D-09
                         THRSW=  1.00D-05  THROV=  1.00D-12  THRAOF12= 1.00D-10

 CPU time for Fock operators                      7.58 sec

 Construction of ABS:
 Smallest eigenvalue of S          2.26E-04  (threshold= 1.00E-08)
 Ratio eigmin/eigmax               3.93E-05  (threshold= 1.00E-09)
 Smallest eigenvalue of S kept     2.26E-04  (threshold= 2.26E-04, 0 functions deleted, 730 kept)

 Construction of CABS:
 Smallest eigenvalue of S          9.38E-09  (threshold= 1.00E-08)
 Ratio eigmin/eigmax               9.38E-09  (threshold= 1.00E-09)
 Smallest eigenvalue of S kept     8.04E-08  (threshold= 8.04E-08, 1 functions deleted, 729 kept)

 CPU time for CABS singles                        0.84 sec

 CABS-singles contribution of  -0.00003811 patched into reference energy.
 New reference energy         -76.06342939

 AO(A)-basis ORBITAL           loaded. Number of functions:     734
 RI(R)-basis RI                loaded. Number of functions:     730
 DF-basis MP2FIT               loaded. Number of functions:    1246

 Screening thresholds:   THRAO=  1.00D-10  THRMO=  1.00D-09  THRPROD=  1.00D-09
                         THRSW=  1.00D-05  THROV=  1.00D-12  THRAOF12= 1.00D-10

 CPU time for 3-index integral evaluation        24.22 sec
 CPU time for first  half transformation          2.13 sec ( 6824.4 MFLOP/sec)
 CPU time for second half transformation          0.03 sec ( 2209.7 MFLOP/sec)
 CPU time for sorting                             0.18 sec
 CPU time for fitting                             0.22 sec (31106.8 MFLOP/sec)
 CPU time for tilde quantities                    0.26 sec (52737.8 MFLOP/sec)
 CPU time for assembly                            0.79 sec (42387.1 MFLOP/sec)
 CPU time for tranop_f12                          0.90 sec (46476.6 MFLOP/sec)
 CPU time for f12 integrals (total)              30.48 sec, Elapsed time:     32.22 sec
 F12-matrices built in  4 passes.
 F12-matrices built in  4 passes.
 F12-matrices built in  4 passes.
 F12-matrices built in  4 passes.
 FC-matrix built in  4 passes.
 CPU time for f12 matrices (total)                0.81 sec, Elapsed time:      0.86 sec

 Diagonal F12 approximation with fixed coefficients:  TSING= 0.500,  TTRIP= 0.250 (scaled by -1/beta)

 DF-MP2-F12 energy corrections:
 ==============================
 Approx.                                    Singlet             Triplet             Total
 DF-MP2-F12/3*C(DX,FIX)                -0.007263441753     -0.000572474770     -0.007835916523
 DF-MP2-F12/3*C(FIX)                   -0.006617814640     -0.000353512858     -0.006971327498
 DF-MP2-F12/3C(FIX)                    -0.006684588801     -0.000365687577     -0.007050276378

 DF-MP2-F12 correlation energies:
 ================================
 Approx.                                    Singlet             Triplet             Ecorr            Total Energy
 DF-MP2                                -0.192506030284     -0.102449454400     -0.294955484684    -76.358384874443
 DF-MP2-F12/3*C(DX,FIX)                -0.199769472037     -0.103021929170     -0.302791401207    -76.366220790966
 DF-MP2-F12/3*C(FIX)                   -0.199123844924     -0.102802967257     -0.301926812181    -76.365356201941
 DF-MP2-F12/3C(FIX)                    -0.199190619085     -0.102815141977     -0.302005761062    -76.365435150821

 SCS-DF-MP2 energies (F_SING= 1.20000  F_TRIP= 0.62222  F_PARALLEL= 0.33333):
 ============================================================================
 SCS-DF-MP2                            -0.294753563523    -76.358182953282
 SCS-DF-MP2-F12/3*C(DX,FIX)            -0.303825900150    -76.367255289909
 SCS-DF-MP2-F12/3*C(FIX)               -0.302914904647    -76.366344294406
 SCS-DF-MP2-F12/3C(FIX)                -0.303002609021    -76.366431998780
 Symmetry transformation completed.

 Number of N-1 electron functions:               4
 Number of N-2 electron functions:              10
 Number of singly external CSFs:              2916
 Number of doubly external CSFs:           4252986
 Total number of CSFs:                     4255903

 Pair and operator lists are different

 Length of J-op  integral file:             411.24 MB
 Length of K-op  integral file:             721.80 MB
 Length of 3-ext integral record:             0.00 MB

 Memory could be reduced to 2535.14 Mwords without degradation in triples

 Integral transformation finished. Total CPU: 466.70 sec, npass=  1  Memory used:1009.99 MW

 Reference energy:                    -76.06342939

 Adding F12 terms to K(Cij), methodcc=6,  factor= 1.0

 ITER.      SQ.NORM     CORR.ENERGY   TOTAL ENERGY   ENERGY CHANGE        DEN1      VAR(S)    VAR(P)  DIIS     TIME  TIME/IT
   1      1.06410560    -0.29333316   -76.35676255     0.00162854     0.00777688  0.80D-03  0.11D-02  1  1   615.00   122.41
   2      1.06770566    -0.29342973   -76.35685912    -0.00009657    -0.00504497  0.16D-04  0.12D-03  2  2   720.68   122.14
   3      1.06908757    -0.29352644   -76.35695583    -0.00009671    -0.00097106  0.85D-05  0.75D-05  3  3   827.08   121.59
   4      1.06962125    -0.29353233   -76.35696172    -0.00000589    -0.00028859  0.54D-06  0.75D-06  4  4   936.34   121.98
   5      1.06972862    -0.29353108   -76.35696047     0.00000124    -0.00003132  0.17D-06  0.55D-07  5  5  1047.16   123.08
   6      1.06976391    -0.29352877   -76.35695816     0.00000231    -0.00000610  0.18D-07  0.45D-08  6  6  1164.48   124.83
   7      1.06977240    -0.29352823   -76.35695762     0.00000054    -0.00000130  0.13D-08  0.69D-09  6  2  1272.60   124.69
   8      1.06977422    -0.29352812   -76.35695751     0.00000011    -0.00000001  0.18D-09  0.70D-10  6  1  1381.40   124.63
   9      1.06977483    -0.29352809   -76.35695748     0.00000003     0.00000000  0.14D-10  0.85D-11  6  3  1492.00   124.92
  10      1.06977494    -0.29352808   -76.35695747     0.00000001     0.00000004  0.19D-11  0.91D-12  6  4  1600.86   124.89
  11      1.06977493    -0.29352808   -76.35695747    -0.00000000     0.00000003  0.39D-12  0.14D-12  6  5  1710.32   124.96
  12      1.06977493    -0.29352809   -76.35695747    -0.00000000     0.00000001  0.82D-13  0.22D-13  6  6  1819.07   124.91
  13      1.06977492    -0.29352809   -76.35695748    -0.00000000     0.00000000  0.13D-13  0.34D-14  6  2  1927.92   124.91
  14      1.06977491    -0.29352809   -76.35695748    -0.00000000     0.00000000  0.15D-14  0.72D-15  6  1  2036.00   124.87
  15      1.06977491    -0.29352809   -76.35695748    -0.00000000    -0.00000000  0.16D-15  0.99D-16  6  3  2142.80   124.82
  16      1.06977491    -0.29352809   -76.35695748    -0.00000000    -0.00000000  0.20D-16  0.13D-16  6  4  2251.29   124.80

 Norm of t1 vector:      0.03720056      S-energy:    -0.00000000      T1 diagnostic:  0.00930014
                                                                       D1 diagnostic:  0.01897476

 Adding energy correction from Wij-K(Fij), methodcc=6  factor= 1.0

  CCSD correlation energy              -0.293528086678
  MP2-F12 correction (uncoupled)       -0.006964351816
  C*T doubles correction               -0.000093309436
  f12b correction                       0.001585235364


 Total CPU time for triples:    533.47 sec

  Ecorr(MP2)                           -0.294961707659
  Ecorr(MP2-F12)                       -0.302011984037
  Scale factor for triples energy       1.023902344592


 RESULTS
 =======

  Reference energy                    -76.063391275332
  F12 singles correction               -0.000038114427

 F12 singles corrections added to reference energy

  New reference energy                -76.063429389759

  F12a singlet correction              -0.006658499125
  F12a triplet correction              -0.000399162127
  F12a total correction                -0.007057661252

 F12a corrections for ansatz F12/3C(FIX) added to CCSD energy

  CCSD-F12a singlet pair energy        -0.209763123281
  CCSD-F12a triplet pair energy        -0.090822624025
  CCSD-F12a correlation energy         -0.300585747930

  Triples (T) contribution (scaled)    -0.010119177245
  Total correlation energy             -0.310704925175

  CCSD-F12a total energy              -76.364015137689
  CCSD[T]-F12a energy                 -76.374458244428
  CCSD-T-F12a energy                  -76.373991960755
 !CCSD(T)-F12a total energy           -76.374134314934

 F12b corrections for ansatz F12/3C(FIX) added to CCSD(T)-F12a energy

  CCSD-F12b singlet pair energy        -0.208241238422
  CCSD-F12b triplet pair energy        -0.090759273520
  CCSD-F12b correlation energy         -0.299000512566

  Triples (T) contribution (scaled)    -0.010119177245
  Total correlation energy             -0.309119689811

  CCSD-F12b total energy              -76.362429902325
  CCSD[T]-F12b energy                 -76.372873009064
  CCSD-T-F12b energy                  -76.372406725390
 !CCSD(T)-F12b total energy           -76.372549079570

 Timing summary (sec):

 STEP                 CPU(USER)    SYS     CPU(TOT)    WALL
 Transformation        467.08     28.78    495.86    497.61
 CCSD iterations      1743.15    246.55   1989.70   1997.14
 Triples               533.47      8.27    541.74    543.67
 MP2-F12                41.23      2.06     43.29     43.53
 F12b energy           104.89     14.23    119.12    119.58

 Program statistics:

 Available memory in ccsd:              3999999871
 Min. memory needed in ccsd:              19260852
 Max. memory used in ccsd:                22423154
 Max. memory used in cckext:              14628952 (17 integral passes)



 **********************************************************************************************************************************
 DATASETS  * FILE   NREC   LENGTH (MB)   RECORD NAMES
              1      19     6330.34       500      610      700      900      950      970     1000      129      960     1100   
                                          VAR    BASINP    GEOM    SYMINP    ZMAT    AOBASIS   BASIS     P2S    ABASIS      S 
                                         1400     1410     1200     1210     1080     1600     1650     1700     1380   
                                           T        V       H0       H01     AOSYM     SMH    MOLCAS    OPER     JKOP   

              2       8       38.40       700     1000      520     2100     7360     7350      200     2101   
                                         GEOM     BASIS   MCVARS     RHF    F12ABS    EF12    OPTIONS    RHF  

 PROGRAMS   *        TOTAL   CCSD(T)    HF-SCF       INT   CCSD(T)    HF-SCF       INT
 CPU TIMES  *     14083.03   2890.15   1151.94      1.05   7963.74   1068.02   1007.93
 REAL TIME  *     15387.16 SEC
 DISK USED  *        14.29 GB (local),      515.51 GB (total)
 SF USED    *        17.68 GB
 GA USED    *         4.87 MB       (max)       0.00 MB       (current)
 **********************************************************************************************************************************

 Running procedure: SET_MONOMER2

 Dummy atoms: O17  H33  H34


 Recomputing one-electron integrals since nuclear charges changed


 PROGRAM * SEWARD (Integral evaluation for generally contracted gaussian basis sets)     Author: Roland Lindh, 1990

 Geometry written to block  1 of record 700


 Point group  C1  



 ATOMIC COORDINATES

 NR  ATOM    CHARGE       X              Y              Z

   1  O17     0.00   -8.342762895    8.383580979    6.757282676
   2  H33     0.00   -7.349144898    9.034591629    5.278760956
   3  H34     0.00   -8.743006888    9.863803452    7.746365330
   4  C1      6.00   -6.193010455    2.801518980    2.403542658
   5  H41     1.00   -4.656285171    1.699997622    3.119937832
   6  H42     1.00   -5.973046335    4.726205038    2.982932688
   7  H43     1.00   -7.940251230    2.077186956    3.118237078
   8  H44     1.00   -6.176569838    2.685300823    0.384937212

 Bond lengths in Bohr (Angstrom)

 1-2  1.896606987  1-3  1.824702255  4-5  2.021904040  4-6  2.022002335  4-7  2.021953343
     ( 1.003641196)     ( 0.965590850)     ( 1.069945541)     ( 1.069997556)     ( 1.069971630)

 4-8  2.022015060
     ( 1.070004290)

 Bond angles

  2-1-3  105.01239280   5-4-6  109.53398059   5-4-7  109.65604535   5-4-8  108.43490854

  6-4-7  109.49436728   6-4-8  109.86987750   7-4-8  109.83468330

 NUCLEAR CHARGE:                   10
 NUMBER OF PRIMITIVE AOS:        1046
 NUMBER OF SYMMETRY AOS:          786
 NUMBER OF CONTRACTIONS:          734   (  734A   )
 NUMBER OF CORE ORBITALS:           1   (    1A   )
 NUMBER OF VALENCE ORBITALS:        8   (    8A   )

 MOLECULE CHANGED: INITIALIZING OCCUPATION AND DUMP RECORDS


 NUCLEAR REPULSION ENERGY   13.68681606

 Basis set:  JKFIT                   
 Basis size:  1104
 Attributes:
 Sphericals:   T
 Basis set:  MP2FIT                  
 Basis size:  1246
 Attributes:
 Sphericals:   T
 Basis set:  RI                      
 Basis size:   730
 Attributes:
 Sphericals:   T
 Basis set:  TDDFT                   
 Basis size:  1246
 Attributes:
 Sphericals:   T

 Eigenvalues of metric

         1 0.160E-05 0.204E-05 0.336E-05 0.446E-05 0.525E-05 0.642E-05 0.880E-05 0.951E-05


 Contracted 2-electron integrals neglected if value below      1.0D-14

 OPERATOR DM      FOR CENTER  0  COORDINATES:    0.000000    0.000000    0.000000


 **********************************************************************************************************************************
 DATASETS  * FILE   NREC   LENGTH (MB)   RECORD NAMES
              1      18       49.80       500      610      700      900      950      970     1000      129      960     1100   
                                          VAR    BASINP    GEOM    SYMINP    ZMAT    AOBASIS   BASIS     P2S    ABASIS      S 
                                         1400     1410     1200     1210     1080     1600     1650     1700   
                                           T        V       H0       H01     AOSYM     SMH    MOLCAS    OPER   

              2       8       38.40       700     1000      520     2100     7360     7350      200     2101   
                                         GEOM     BASIS   MCVARS     RHF    F12ABS    EF12    OPTIONS    RHF  

 PROGRAMS   *        TOTAL       INT   CCSD(T)    HF-SCF       INT   CCSD(T)    HF-SCF       INT
 CPU TIMES  *     14083.66      0.62   2890.15   1151.94      1.05   7963.74   1068.02   1007.93
 REAL TIME  *     15389.21 SEC
 DISK USED  *        14.29 GB (local),      515.51 GB (total)
 SF USED    *        17.68 GB
 GA USED    *         4.87 MB       (max)       0.00 MB       (current)
 **********************************************************************************************************************************


 PROGRAM * RHF-SCF (CLOSED SHELL)       Authors: W. Meyer, H.-J. Werner


 NUMBER OF ELECTRONS:       5+    5-    SPACE SYMMETRY=1    SPIN SYMMETRY: Singlet 
 CONVERGENCE THRESHOLDS:    1.00E-08 (Density)    1.00E-11 (Energy)
 MAX. NUMBER OF ITERATIONS:       60
 INTERPOLATION TYPE:            DIIS
 INTERPOLATION STEPS:              2 (START)      1 (STEP)
 LEVEL SHIFTS:                  0.00 (CLOSED)  0.00 (OPEN) 



 Orbital guess generated from atomic densities. Full valence occupancy:    9

 Molecular orbital dump at record        2102.2

 Initial occupancy:   5

 ITERATION    DDIFF          GRAD             ENERGY        2-EL.EN.            DIPOLE MOMENTS         DIIS   ORB.
    1      0.000D+00      0.000D+00       -40.19676538     53.509905    0.00411   -0.00276   -0.00131    0    start
    2      0.000D+00      0.198D-02       -40.21405759     52.218481    0.00128   -0.00088   -0.00039    1    diag
    3      0.949D-03      0.769D-03       -40.21634101     52.673987    0.00182   -0.00124   -0.00055    2    diag
    4      0.260D-03      0.192D-03       -40.21666134     52.619250    0.00162   -0.00110   -0.00049    3    diag
    5      0.102D-03      0.248D-04       -40.21666682     52.621408    0.00159   -0.00109   -0.00048    4    diag
    6      0.352D-04      0.204D-05       -40.21666687     52.621536    0.00159   -0.00109   -0.00048    5    diag
    7      0.602D-05      0.166D-06       -40.21666687     52.621499    0.00159   -0.00108   -0.00048    6    diag
    8      0.339D-06      0.136D-07       -40.21666687     52.621499    0.00159   -0.00108   -0.00048    7    diag
    9      0.580D-07      0.167D-08       -40.21666687     52.621499    0.00159   -0.00108   -0.00048    8    diag
   10      0.104D-07      0.465D-09       -40.21666687     52.621499    0.00159   -0.00108   -0.00048    9    orth
   11      0.111D-08      0.667D-10       -40.21666687     52.621499    0.00159   -0.00108   -0.00048    0    orth

 Final occupancy:   5

 !RHF STATE  1.1 Energy               -40.216666865531
 Nuclear energy                        13.68681606
 One-electron energy                  -80.21423246
 Two-electron energy                   26.31074954
 Virial quotient                       -0.99832813
 !RHF STATE  1.1 Dipole moment          0.00158674    -0.00108482    -0.00047683
 Dipole moment /Debye                   0.00403282    -0.00275716    -0.00121190

 Orbital energies:

         1.1          2.1          3.1          4.1          5.1          6.1          7.1
    -11.196017    -0.950605    -0.551931    -0.549996    -0.547818     0.020609     0.031167


 HOMO      5.1    -0.547818 =     -14.9069eV
 LUMO      6.1     0.020609 =       0.5608eV
 LUMO-HOMO         0.568427 =      15.4677eV


 **********************************************************************************************************************************
 DATASETS  * FILE   NREC   LENGTH (MB)   RECORD NAMES
              1      18       49.80       500      610      700      900      950      970     1000      129      960     1100   
                                          VAR    BASINP    GEOM    SYMINP    ZMAT    AOBASIS   BASIS     P2S    ABASIS      S 
                                         1400     1410     1200     1210     1080     1600     1650     1700   
                                           T        V       H0       H01     AOSYM     SMH    MOLCAS    OPER   

              2       9       62.49       700     1000      520     2100     7360     7350      200     2101     2102   
                                         GEOM     BASIS   MCVARS     RHF    F12ABS    EF12    OPTIONS    RHF      RHF  

 PROGRAMS   *        TOTAL    HF-SCF       INT   CCSD(T)    HF-SCF       INT   CCSD(T)    HF-SCF       INT
 CPU TIMES  *     15228.30   1144.64      0.62   2890.15   1151.94      1.05   7963.74   1068.02   1007.93
 REAL TIME  *     16704.16 SEC
 DISK USED  *        14.29 GB (local),      515.51 GB (total)
 SF USED    *        17.68 GB
 GA USED    *         4.87 MB       (max)       0.00 MB       (current)
 **********************************************************************************************************************************

 Basis set:  JKFIT                   
 Basis size:  1104
 Attributes:
 Sphericals:   T
 Basis set:  MP2FIT                  
 Basis size:  1246
 Attributes:
 Sphericals:   T
 Basis set:  RI                      
 Basis size:   730
 Attributes:
 Sphericals:   T
 Basis set:  TDDFT                   
 Basis size:  1246
 Attributes:
 Sphericals:   T

 PROGRAM * CCSD (Closed-shell coupled cluster)     Authors: C. Hampel, H.-J. Werner, 1991, M. Deegan, P.J. Knowles, 1992

                                  CCSD-F12 implementation by  H.-J. Werner, 2007

                   Density fitting integral evaluation by F.R. Manby, 2003,2007, G. Knizia, 2010



 Convergence thresholds:  THRVAR = 1.00D-08  THRDEN = 1.00D-10

 CCSD(T)     terms to be evaluated (factor= 1.000)


 Number of core orbitals:           1 (   1 )
 Number of closed-shell orbitals:   4 (   4 )
 Number of external orbitals:     729 ( 729 )

 Molecular orbitals read from record     2102.2  Type=RHF/CANONICAL (state 1.1)

 MP2-F12 correlation treatment (H.-J. Werner, 2006)
 ==================================================

 Using MP2-F12 with ansatz 3C(FIX)

 Using projected zeroth-order Hamiltonian (+Z)

 FOCKRIB=T FOCKRIC=T FOCKRIP=T CABSP=T CABSA=T CABSK=T CABSF=T GBC=F EBC=F DMAT=T NOFIK=T NOPAO=1 SOLVE=-1  USEPAO=0
 EXCH_A= T EXCH_B= F EXCH_C= F EXCH_P= F

 Geminal basis:    OPTFULL  GEM_TYPE=SLATER  BETA=1.0  NGEM=6

 Optimizing Gaussian exponents for each gem_beta

 Geminal optimization for beta= 1.0000
 Weight function:   m=0, omega= 1.4646

 Augmented Hessian optimization of geminal fit. Trust ratio= 0.40000
 Convergence reached after   2 iterations. Final gradient= 8.53D-16, Step= 4.26D-06, Delta= 1.28D-09

 Alpha:                 0.19532     0.81920     2.85917     9.50073    35.69989   197.79328
 Coeff:                 0.27070     0.30552     0.18297     0.10986     0.06810     0.04224


 All pairs explicitly correlated. Number of r12-pairs:           10

 Excluding core orbitals from MO domains

 AO(A)-basis ORBITAL           loaded. Number of functions:     734
 RI(R)-basis RI                loaded. Number of functions:     730
 DF-basis JKFIT                loaded. Number of functions:    1104

 Screening thresholds:   THRAO=  1.00D-10  THRMO=  1.00D-09  THRPROD=  1.00D-09
                         THRSW=  1.00D-05  THROV=  1.00D-12  THRAOF12= 1.00D-10

 CPU time for Fock operators                      8.22 sec

 Construction of ABS:
 Smallest eigenvalue of S          2.26E-04  (threshold= 1.00E-08)
 Ratio eigmin/eigmax               3.93E-05  (threshold= 1.00E-09)
 Smallest eigenvalue of S kept     2.26E-04  (threshold= 2.26E-04, 0 functions deleted, 730 kept)

 Construction of CABS:
 Smallest eigenvalue of S          9.38E-09  (threshold= 1.00E-08)
 Ratio eigmin/eigmax               9.38E-09  (threshold= 1.00E-09)
 Smallest eigenvalue of S kept     8.04E-08  (threshold= 8.04E-08, 1 functions deleted, 729 kept)

 CPU time for CABS singles                        0.83 sec

 CABS-singles contribution of  -0.00004077 patched into reference energy.
 New reference energy         -40.21670763

 AO(A)-basis ORBITAL           loaded. Number of functions:     734
 RI(R)-basis RI                loaded. Number of functions:     730
 DF-basis MP2FIT               loaded. Number of functions:    1246

 Screening thresholds:   THRAO=  1.00D-10  THRMO=  1.00D-09  THRPROD=  1.00D-09
                         THRSW=  1.00D-05  THROV=  1.00D-12  THRAOF12= 1.00D-10

 CPU time for 3-index integral evaluation        24.20 sec
 CPU time for first  half transformation          2.84 sec ( 5226.6 MFLOP/sec)
 CPU time for second half transformation          0.03 sec ( 2029.8 MFLOP/sec)
 CPU time for sorting                             0.17 sec
 CPU time for fitting                             0.15 sec (45706.1 MFLOP/sec)
 CPU time for tilde quantities                    0.35 sec (19632.7 MFLOP/sec)
 CPU time for assembly                            0.88 sec (41070.2 MFLOP/sec)
 CPU time for tranop_f12                          1.05 sec (38370.4 MFLOP/sec)
 CPU time for f12 integrals (total)              31.51 sec, Elapsed time:     33.19 sec
 F12-matrices built in  4 passes.
 F12-matrices built in  4 passes.
 F12-matrices built in  4 passes.
 F12-matrices built in  4 passes.
 FC-matrix built in  4 passes.
 CPU time for f12 matrices (total)                0.81 sec, Elapsed time:      0.86 sec

 Diagonal F12 approximation with fixed coefficients:  TSING= 0.500,  TTRIP= 0.250 (scaled by -1/beta)

 DF-MP2-F12 energy corrections:
 ==============================
 Approx.                                    Singlet             Triplet             Total
 DF-MP2-F12/3*C(DX,FIX)                -0.003933133677     -0.000213030150     -0.004146163827
 DF-MP2-F12/3*C(FIX)                   -0.003769957286     -0.000160900071     -0.003930857356
 DF-MP2-F12/3C(FIX)                    -0.003816719461     -0.000163923188     -0.003980642650

 DF-MP2-F12 correlation energies:
 ================================
 Approx.                                    Singlet             Triplet             Ecorr            Total Energy
 DF-MP2                                -0.157870506244     -0.056825003152     -0.214695509397    -40.431403142643
 DF-MP2-F12/3*C(DX,FIX)                -0.161803639922     -0.057038033302     -0.218841673224    -40.435549306469
 DF-MP2-F12/3*C(FIX)                   -0.161640463530     -0.056985903223     -0.218626366753    -40.435333999999
 DF-MP2-F12/3C(FIX)                    -0.161687225705     -0.056988926341     -0.218676152046    -40.435383785292

 SCS-DF-MP2 energies (F_SING= 1.20000  F_TRIP= 0.62222  F_PARALLEL= 0.33333):
 ============================================================================
 SCS-DF-MP2                            -0.224802387233    -40.441510020478
 SCS-DF-MP2-F12/3*C(DX,FIX)            -0.229654699738    -40.446362332984
 SCS-DF-MP2-F12/3*C(FIX)               -0.229426451575    -40.446134084821
 SCS-DF-MP2-F12/3C(FIX)                -0.229484447236    -40.446192080482
 Symmetry transformation completed.

 Number of N-1 electron functions:               4
 Number of N-2 electron functions:              10
 Number of singly external CSFs:              2916
 Number of doubly external CSFs:           4252986
 Total number of CSFs:                     4255903

 Pair and operator lists are different

 Length of J-op  integral file:             411.24 MB
 Length of K-op  integral file:             721.80 MB
 Length of 3-ext integral record:             0.00 MB

 Memory could be reduced to 2535.14 Mwords without degradation in triples

 Integral transformation finished. Total CPU: 471.55 sec, npass=  1  Memory used:1009.99 MW

 Reference energy:                    -40.21670763

 Adding F12 terms to K(Cij), methodcc=6,  factor= 1.0

 ITER.      SQ.NORM     CORR.ENERGY   TOTAL ENERGY   ENERGY CHANGE        DEN1      VAR(S)    VAR(P)  DIIS     TIME  TIME/IT
   1      1.07033690    -0.22827317   -40.44498080    -0.01357095    -0.00771656  0.62D-03  0.94D-03  1  1   620.24   121.40
   2      1.07515867    -0.22923035   -40.44593798    -0.00095718    -0.00531233  0.16D-04  0.11D-03  2  2   733.47   125.83
   3      1.07694845    -0.22929771   -40.44600534    -0.00006736    -0.00133788  0.22D-05  0.64D-05  3  3   841.26   124.74
   4      1.07735125    -0.22930015   -40.44600778    -0.00000244    -0.00021860  0.16D-06  0.39D-06  4  4   949.18   124.51
   5      1.07740854    -0.22930372   -40.44601135    -0.00000357    -0.00000965  0.14D-07  0.24D-07  5  5  1057.41   124.34
   6      1.07741879    -0.22930237   -40.44601000     0.00000135    -0.00000404  0.89D-09  0.18D-08  6  6  1172.14   125.30
   7      1.07742030    -0.22930197   -40.44600961     0.00000039    -0.00000090  0.55D-10  0.13D-09  6  1  1285.30   125.98
   8      1.07742023    -0.22930203   -40.44600967    -0.00000006     0.00000024  0.60D-11  0.84D-11  6  3  1395.17   125.82
   9      1.07742037    -0.22930202   -40.44600965     0.00000002    -0.00000009  0.40D-12  0.58D-12  6  2  1505.25   125.77
  10      1.07742037    -0.22930202   -40.44600965     0.00000000     0.00000001  0.56D-13  0.62D-13  6  4  1611.74   125.29
  11      1.07742038    -0.22930201   -40.44600965     0.00000000    -0.00000000  0.57D-14  0.65D-14  6  5  1721.34   125.39
  12      1.07742038    -0.22930201   -40.44600965     0.00000000     0.00000000  0.16D-15  0.65D-15  6  6  1831.59   125.55
  13      1.07742037    -0.22930201   -40.44600965    -0.00000000     0.00000000  0.12D-16  0.73D-16  6  1  1937.08   125.11
  14      1.07742037    -0.22930201   -40.44600965    -0.00000000     0.00000000  0.18D-17  0.11D-16  6  3  2047.17   125.07

 Norm of t1 vector:      0.03268889      S-energy:     0.00000000      T1 diagnostic:  0.00817222
                                                                       D1 diagnostic:  0.01311255

 Adding energy correction from Wij-K(Fij), methodcc=6  factor= 1.0

  CCSD correlation energy              -0.229302013549
  MP2-F12 correction (uncoupled)       -0.003884115800
  C*T doubles correction               -0.000068652015
  f12b correction                       0.001100227257

 Total CPU time for triples:    531.81 sec

  Ecorr(MP2)                           -0.214702220068
  Ecorr(MP2-F12)                       -0.218682862717
  Scale factor for triples energy       1.018540295710


 RESULTS
 =======

  Reference energy                    -40.216666865531
  F12 singles correction               -0.000040767715

 F12 singles corrections added to reference energy

  New reference energy                -40.216707633246

  F12a singlet correction              -0.003781534157
  F12a triplet correction              -0.000171233658
  F12a total correction                -0.003952767815

 F12a corrections for ansatz F12/3C(FIX) added to CCSD energy

  CCSD-F12a singlet pair energy        -0.178096209469
  CCSD-F12a triplet pair energy        -0.055158571900
  CCSD-F12a correlation energy         -0.233254781363

  Triples (T) contribution (scaled)    -0.007109323121
  Total correlation energy             -0.240364104484

  CCSD-F12a total energy              -40.449962414609
  CCSD[T]-F12a energy                 -40.457307353849
  CCSD-T-F12a energy                  -40.457003895034
 !CCSD(T)-F12a total energy           -40.457071737729

 F12b corrections for ansatz F12/3C(FIX) added to CCSD(T)-F12a energy

  CCSD-F12b singlet pair energy        -0.177025116381
  CCSD-F12b triplet pair energy        -0.055129437732
  CCSD-F12b correlation energy         -0.232154554107

  Triples (T) contribution (scaled)    -0.007109323121
  Total correlation energy             -0.239263877227

  CCSD-F12b total energy              -40.448862187352
  CCSD[T]-F12b energy                 -40.456207126592
  CCSD-T-F12b energy                  -40.455903667777
 !CCSD(T)-F12b total energy           -40.455971510473

 Timing summary (sec):

 STEP                 CPU(USER)    SYS     CPU(TOT)    WALL
 Transformation        471.92     28.86    500.78    502.61
 CCSD iterations      1532.63    212.15   1744.78   1751.27
 Triples               531.81      9.14    540.95    542.95
 MP2-F12                42.78      2.06     44.84     45.08
 F12b energy           103.85     13.07    116.92    117.35

 Program statistics:

 Available memory in ccsd:              3999999866
 Min. memory needed in ccsd:              19260852
 Max. memory used in ccsd:                22423154
 Max. memory used in cckext:              14628952 (15 integral passes)



 **********************************************************************************************************************************
 DATASETS  * FILE   NREC   LENGTH (MB)   RECORD NAMES
              1      19     6330.34       500      610      700      900      950      970     1000      129      960     1100   
                                          VAR    BASINP    GEOM    SYMINP    ZMAT    AOBASIS   BASIS     P2S    ABASIS      S 
                                         1400     1410     1200     1210     1080     1600     1650     1700     1380   
                                           T        V       H0       H01     AOSYM     SMH    MOLCAS    OPER     JKOP   

              2       9       62.49       700     1000      520     2100     7360     7350      200     2101     2102   
                                         GEOM     BASIS   MCVARS     RHF    F12ABS    EF12    OPTIONS    RHF      RHF  

 PROGRAMS   *        TOTAL   CCSD(T)    HF-SCF       INT   CCSD(T)    HF-SCF       INT   CCSD(T)    HF-SCF       INT
 CPU TIMES  *     17911.58   2683.26   1144.64      0.62   2890.15   1151.94      1.05   7963.74   1068.02   1007.93
 REAL TIME  *     19664.99 SEC
 DISK USED  *        14.29 GB (local),      515.51 GB (total)
 SF USED    *        17.68 GB
 GA USED    *         4.87 MB       (max)       0.00 MB       (current)
 **********************************************************************************************************************************
 Molecular orbitals read from record     2102.2  Type=RHF/CANONICAL (state 1.1)
 Occupation numbers read from record     2102.2  Type=RHF/RHF (state 1.1)
 Orbital energies read from record       2102.2  Type=RHF/CANONICAL (state 1.1)
 Redundancy group numbers read from rec  2102.2  Type=RHF/RHF (state 1.1)

 CCSD(T)-F12/aug-cc-pV5Z energy=    -40.455971510473

     CCSD(T)-F12          HF-SCF     CCSD(T)-F12          HF-SCF     CCSD(T)-F12          HF-SCF
    -40.45597151    -40.21666687    -76.37254908    -76.06339128   -116.82878291   -116.27958481
 **********************************************************************************************************************************
 Molpro calculation terminated
