
 Primary working directories    : /net/scratch/people/plgsirous
 Secondary working directories  : /net/scratch/people/plgsirous
 Wavefunction directory         : /net/people/plgsirous/wfu/
 Main file repository           : /net/scratch/people/plgsirous/

 SHA1      : 
 NAME      : 
 ARCHNAME  : linux/x86_64
 FC        : /net/software/local/intel/impi/2018.1.163/bin64/mpiifort
 BLASLIB   : -L/net/software/local/intel/compilers_and_libraries_2018.1.163/linux/mkl/lib/intel64 -lmkl_scalapack_ilp64 -lmkl_intel_ilp64 -lmkl_intel_thread -lmkl_core -lmkl_blacs_intelmpi_ilp64 -liomp5 -lpthread -lm -ldl
 id        : pl

 Nodes     nprocs
 p1494        1

 Using customized tuning parameters: mindgm=7; mindgv=20; mindgc=1; mindgr=1; noblas=0; minvec=7
 default implementation of scratch files=df  

 memory,3000,m
 zsymel=nosym
 angstrom
 geometry={
 C1        -3.2772    1.4825     1.2719
 H1        -2.4640    0.8996     1.6510
 H2        -3.1608    2.5010     1.5785
 H3        -4.2018    1.0992     1.6501
 H4        -3.2685    1.4210     0.2037
 O1        0.0000    0.0000     0.0000
 H5        0.0000    0.0000     0.9749
 H6        0.0000    0.9423     -0.2612
 }
 basis=vtz-f12
 gthresh,orbital=1d-8,energy=1d-8,twoint=1.d-19
 
 
 nkerna=1
 nkernb=1
 nkernab=$nkerna+$nkernb
 
                                                                                 ! AB Dimer
 {hf,accu=1.d-8}
 E_HF_AB=energy
 core,$nkernab
 {ccsd(t)-f12,scale_trip=1,THRF12=1.d-12}
 E_F12_AB=energy
 
                                                                                 ! Monomer A Part
 
 dummy,6,7,8;
 {hf,accu=1.d-8}
 E_HF_A=energy
 core,$nkerna
 {ccsd(t)-f12,scale_trip=1,THRF12=1.d-12}
 E_F12_A=energy
 
                                                                                 ! Monomer B Part
 
 dummy,1,2,3,4,5;
 {hf,accu=1.d-8}
 E_HF_B=energy
 core,$nkernb
 {ccsd(t)-f12,scale_trip=1,THRF12=1.d-12}
 E_F12_B=energy
 
 E_int_HF = E_HF_AB-(E_HF_A+E_HF_B)
 E_int_F12 = E_F12_AB-(E_F12_A+E_F12_B)
 
 
 show,E_int_HF,E_int_F12

 Variables initialized (889), CPU time= 0.00 sec
 Commands  initialized (702), CPU time= 0.01 sec, 572 directives.
 Default parameters read. Elapsed time= 0.07 sec

 Checking input...
 Passed
1


                                         ***  PROGRAM SYSTEM MOLPRO  ***
                                       Copyright, TTI GmbH Stuttgart, 2015
                                    Version 2015.1 linked Jul  2 2018 15:03:07


 **********************************************************************************************************************************
 LABEL *                                                                                 
  64 bit serial version                                                                  DATE: 17-Jan-19          TIME: 14:52:55  
 **********************************************************************************************************************************

 SHA1:             
 **********************************************************************************************************************************
 SETTING ZSYMEL         =    NOSYM
 ZSYMEL=NOSYM
 ZUNIT=ANG
 

Geometry recognized as XYZ


 Variable memory set to 3000000000 words,  buffer space   230000 words

 SETTING BASIS          =    VTZ-F12

 THRESHOLDS:

 ZERO    =  1.00D-12  ONEINT  =  1.00D-12  TWOINT  =  1.00D-19  PREFAC  =  1.00D-14  LOCALI  =  1.00D-09  EORDER  =  1.00D-04
 ENERGY  =  1.00D-08  ETEST   =  0.00D+00  EDENS   =  0.00D+00  THRDEDEF=  1.00D-06  GRADIENT=  1.00D-02  STEP    =  1.00D-03
 ORBITAL =  1.00D-08  CIVEC   =  1.00D-05  COEFF   =  1.00D-04  PRINTCI =  5.00D-02  PUNCHCI =  9.90D+01  OPTGRAD =  3.00D-04
 OPTENERG=  1.00D-06  OPTSTEP =  3.00D-04  THRGRAD =  1.00D-10  COMPRESS=  1.00D-11  VARMIN  =  1.00D-07  VARMAX  =  1.00D-03
 THRDOUB =  0.00D+00  THRDIV  =  1.00D-05  THRRED  =  1.00D-07  THRPSP  =  1.00D+00  THRDC   =  1.00D-10  THRCS   =  1.00D-10
 THRNRM  =  1.00D-08  THREQ   =  0.00D+00  THRDE   =  1.00D+00  THRREF  =  1.00D-05  SPARFAC =  1.00D+00  THRDLP  =  1.00D-07
 THRDIA  =  1.00D-10  THRDLS  =  1.00D-07  THRGPS  =  0.00D+00  THRKEX  =  0.00D+00  THRDIS  =  2.00D-01  THRVAR  =  1.00D-10
 THRLOC  =  1.00D-06  THRGAP  =  1.00D-06  THRLOCT = -1.00D+00  THRGAPT = -1.00D+00  THRORB  =  1.00D-06  THRMLTP =  0.00D+00
 THRCPQCI=  1.00D-10  KEXTA   =  0.00D+00  THRCOARS=  0.00D+00  SYMTOL  =  1.00D-06  GRADTOL =  1.00D-06  THROVL  =  1.00D-08
 THRORTH =  1.00D-08  GRID    =  1.00D-06  GRIDMAX =  1.00D-03  DTMAX   =  0.00D+00  THROCCDE=  1.00D-01  THROCCDE=  1.00D-01


 SETTING NKERNA         =         1.00000000                                  
 SETTING NKERNB         =         1.00000000                                  
 SETTING NKERNAB        =         2.00000000                                  


 Recomputing integrals since basis changed


 Using spherical harmonics

 Library entry C      S cc-pVTZ-F12          selected for orbital group  1
 Library entry C      P cc-pVTZ-F12          selected for orbital group  1
 Library entry C      D cc-pVTZ-F12          selected for orbital group  1
 Library entry C      F cc-pVTZ-F12          selected for orbital group  1
 Library entry H      S cc-pVTZ-F12          selected for orbital group  2
 Library entry H      P cc-pVTZ-F12          selected for orbital group  2
 Library entry H      D cc-pVTZ-F12          selected for orbital group  2
 Library entry O      S cc-pVTZ-F12          selected for orbital group  3
 Library entry O      P cc-pVTZ-F12          selected for orbital group  3
 Library entry O      D cc-pVTZ-F12          selected for orbital group  3
 Library entry O      F cc-pVTZ-F12          selected for orbital group  3


 PROGRAM * SEWARD (Integral evaluation for generally contracted gaussian basis sets)     Author: Roland Lindh, 1990

 Geometry written to block  1 of record 700


 Point group  C1  



 ATOMIC COORDINATES

 NR  ATOM    CHARGE       X              Y              Z

   1  C1      6.00   -6.193010455    2.801518980    2.403542658
   2  H1      1.00   -4.656285171    1.699997622    3.119937832
   3  H2      1.00   -5.973046335    4.726205038    2.982932688
   4  H3      1.00   -7.940251230    2.077186956    3.118237078
   5  H4      1.00   -6.176569838    2.685300823    0.384937212
   6  O1      8.00    0.000000000    0.000000000    0.000000000
   7  H5      1.00    0.000000000    0.000000000    1.842293999
   8  H6      1.00    0.000000000    1.780688927   -0.493596464

 Bond lengths in Bohr (Angstrom)

 1-2  2.021904040  1-3  2.022002335  1-4  2.021953343  1-5  2.022015060  6-7  1.842293999
     ( 1.069945541)     ( 1.069997556)     ( 1.069971630)     ( 1.070004290)     ( 0.974900000)

 6-8  1.847834009
     ( 0.977831647)

 Bond angles

  2-1-3  109.53398059   2-1-4  109.65604535   2-1-5  108.43490854   3-1-4  109.49436728

  3-1-5  109.86987750   4-1-5  109.83468330   7-6-8  105.49305961

 NUCLEAR CHARGE:                   20
 NUMBER OF PRIMITIVE AOS:         270
 NUMBER OF SYMMETRY AOS:          246
 NUMBER OF CONTRACTIONS:          214   ( 214A   )
 NUMBER OF CORE ORBITALS:           2   (   2A   )
 NUMBER OF VALENCE ORBITALS:       14   (  14A   )


 NUCLEAR REPULSION ENERGY   36.71209306


 Eigenvalues of metric

         1 0.735E-04 0.210E-03 0.307E-03 0.322E-03 0.334E-03 0.449E-03 0.548E-03 0.559E-03


 Contracted 2-electron integrals neglected if value below      1.0D-19
 AO integral compression algorithm  1   Integral accuracy      1.0D-19

     2109.211 MB (compressed) written to integral file ( 86.6%)


 NUMBER OF SORTED TWO-ELECTRON INTEGRALS:  264626515.     BUFFER LENGTH:  32768
 NUMBER OF SEGMENTS:  17  SEGMENT LENGTH:   15999762      RECORD LENGTH: 524288

 Memory used in sort:      16.56 MW

 SORT1 READ   304636334. AND WROTE   246844109. INTEGRALS IN    717 RECORDS. CPU TIME:     3.22 SEC, REAL TIME:     7.47 SEC
 SORT2 READ   246844109. AND WROTE   264626515. INTEGRALS IN   8046 RECORDS. CPU TIME:     3.11 SEC, REAL TIME:     7.43 SEC

 FILE SIZES:   FILE 1:  2130.9 MBYTE,  FILE 4:  3007.3 MBYTE,   TOTAL:   5138.3 MBYTE

 OPERATOR DM      FOR CENTER  0  COORDINATES:    0.000000    0.000000    0.000000


 **********************************************************************************************************************************
 DATASETS  * FILE   NREC   LENGTH (MB)   RECORD NAMES
              1      19     1879.49       500      610      700      900      950      970     1000      129      960     1100   
                                          VAR    BASINP    GEOM    SYMINP    ZMAT    AOBASIS   BASIS     P2S    ABASIS      S 
                                         1400     1410     1200     1210     1080     1600     1650     1300     1700   
                                           T        V       H0       H01     AOSYM     SMH    MOLCAS    ERIS     OPER   

 PROGRAMS   *        TOTAL       INT
 CPU TIMES  *        15.60     15.48
 REAL TIME  *        29.70 SEC
 DISK USED  *         5.14 GB      
 **********************************************************************************************************************************


 PROGRAM * RHF-SCF (CLOSED SHELL)       Authors: W. Meyer, H.-J. Werner


 NUMBER OF ELECTRONS:      10+   10-    SPACE SYMMETRY=1    SPIN SYMMETRY: Singlet 
 CONVERGENCE THRESHOLDS:    1.00E-04 (Density)    1.00E-09 (Energy)
 MAX. NUMBER OF ITERATIONS:       60
 INTERPOLATION TYPE:            DIIS
 INTERPOLATION STEPS:              2 (START)      1 (STEP)
 LEVEL SHIFTS:                  0.00 (CLOSED)  0.00 (OPEN) 



 Orbital guess generated from atomic densities. Full valence occupancy:   16

 Molecular orbital dump at record        2100.2

 Initial occupancy:  10

 ITERATION    DDIFF          GRAD             ENERGY        2-EL.EN.            DIPOLE MOMENTS         DIIS   ORB.
    1      0.000D+00      0.000D+00      -116.21991211    158.816420    0.00385    0.91130    0.68800    0    start
    2      0.000D+00      0.548D-02      -116.26402284    154.004797   -0.03192    0.51600    0.38143    1    diag
    3      0.564D-02      0.319D-02      -116.27743680    156.018634   -0.02149    0.61647    0.45924    2    diag
    4      0.182D-02      0.478D-03      -116.27809556    155.905442   -0.02036    0.60777    0.45324    3    diag
    5      0.422D-03      0.139D-03      -116.27816399    155.900398   -0.02091    0.60734    0.45316    4    diag
    6      0.158D-03      0.338D-04      -116.27816780    155.906060   -0.02102    0.60662    0.45278    5    diag
    7      0.418D-04      0.678D-05      -116.27816802    155.904355   -0.02104    0.60661    0.45282    6    diag
    8      0.112D-04      0.171D-05      -116.27816804    155.904535   -0.02106    0.60654    0.45279    7    diag
    9      0.322D-05      0.406D-06      -116.27816804    155.904508   -0.02107    0.60652    0.45278    8    diag
   10      0.693D-06      0.493D-07      -116.27816804    155.904510   -0.02107    0.60652    0.45278    0    orth

 Final occupancy:  10

 !RHF STATE 1.1 Energy               -116.278168041901
 Nuclear energy                        36.71209306
 One-electron energy                 -230.94251601
 Two-electron energy                   77.95225490
 Virial quotient                       -1.00060964
 !RHF STATE 1.1 Dipole moment          -0.02106774     0.60652144     0.45277531
 Dipole moment /Debye                  -0.05354535     1.54152275     1.15076468

 Orbital energies:

         1.1          2.1          3.1          4.1          5.1          6.1          7.1          8.1          9.1         10.1
    -20.567110   -11.199445    -1.342254    -0.953991    -0.709035    -0.579639    -0.555433    -0.553382    -0.551221    -0.507493

        11.1         12.1
      0.055329     0.069973

 HOMO     10.1    -0.507493 =     -13.8096eV
 LUMO     11.1     0.055329 =       1.5056eV
 LUMO-HOMO         0.562822 =      15.3152eV


 **********************************************************************************************************************************
 DATASETS  * FILE   NREC   LENGTH (MB)   RECORD NAMES
              1      19     1879.49       500      610      700      900      950      970     1000      129      960     1100   
                                          VAR    BASINP    GEOM    SYMINP    ZMAT    AOBASIS   BASIS     P2S    ABASIS      S 
                                         1400     1410     1200     1210     1080     1600     1650     1300     1700   
                                           T        V       H0       H01     AOSYM     SMH    MOLCAS    ERIS     OPER   

              2       4        3.81       700     1000      520     2100   
                                         GEOM     BASIS   MCVARS     RHF  

 PROGRAMS   *        TOTAL        HF       INT
 CPU TIMES  *        40.56     24.96     15.48
 REAL TIME  *        58.40 SEC
 DISK USED  *         5.14 GB      
 **********************************************************************************************************************************
 SETTING E_HF_AB        =      -116.27816804  AU                              


 PROGRAM * CCSD (Closed-shell coupled cluster)     Authors: C. Hampel, H.-J. Werner, 1991, M. Deegan, P.J. Knowles, 1992

                                  CCSD-F12 implementation by  H.-J. Werner, 2007

                   Density fitting integral evaluation by F.R. Manby, 2003,2007, G. Knizia, 2010

 Basis set CC-PVTZ/JKFIT generated.      Number of basis functions:   338 
 Basis set CC-PVTZ-F12/OPTRI generated.  Number of basis functions:   396 
 Basis set AUG-CC-PVTZ/MP2FIT generated. Number of basis functions:   488 

 Convergence thresholds:  THRVAR = 1.00D-08  THRDEN = 1.00D-08

 CCSD(T)     terms to be evaluated (factor= 1.000)


 Number of core orbitals:           2 (   2 )
 Number of closed-shell orbitals:   8 (   8 )
 Number of external orbitals:     204 ( 204 )

 Molecular orbitals read from record     2100.2  Type=RHF/CANONICAL (state 1.1)

 MP2-F12 correlation treatment (H.-J. Werner, 2006)
 ==================================================

 Using MP2-F12 with ansatz 3C(FIX)

 Using projected zeroth-order Hamiltonian (+Z)

 FOCKRIB=T FOCKRIC=T FOCKRIP=T CABSP=T CABSA=T CABSK=T CABSF=T GBC=F EBC=F DMAT=T NOFIK=T NOPAO=1 SOLVE=-1  USEPAO=0
 EXCH_A= T EXCH_B= F EXCH_C= F EXCH_P= F
 
 Geminal basis:    OPTFULL  GEM_TYPE=SLATER  BETA=1.0  NGEM=6

 Optimizing Gaussian exponents for each gem_beta

 Geminal optimization for beta= 1.0000
 Weight function:   m=0, omega= 1.4646

 Augmented Hessian optimization of geminal fit. Trust ratio= 0.40000
 Convergence reached after   2 iterations. Final gradient= 8.26D-16, Step= 4.26D-06, Delta= 1.28D-09
 
 Alpha:                 0.19532     0.81920     2.85917     9.50073    35.69989   197.79328
 Coeff:                 0.27070     0.30552     0.18297     0.10986     0.06810     0.04224
 

 All pairs explicitly correlated. Number of r12-pairs:           36

 Excluding core orbitals from MO domains
 
 AO(A)-basis ORBITAL           loaded. Number of functions:     214
 RI(R)-basis CC-PVTZ-F12/OPTRI loaded. Number of functions:     396
 DF-basis CC-PVTZ/JKFIT        loaded. Number of functions:     338

 Screening thresholds:   THRAO=  1.00D-10  THRMO=  1.00D-09  THRPROD=  1.00D-09
                         THRSW=  1.00D-05  THROV=  1.00D-12  THRAOF12=   1.00D-08

 CPU time for Fock operators                      2.79 sec
 
 Construction of ABS:
 Smallest eigenvalue of S          3.83E-04  (threshold= 1.00E-08)
 Ratio eigmin/eigmax               4.91E-05  (threshold= 1.00E-09)
 Smallest eigenvalue of S kept     3.83E-04  (threshold= 3.83E-04, 0 functions deleted, 396 kept)
 
 Construction of CABS:
 Smallest eigenvalue of S          8.35E-07  (threshold= 1.00E-08)
 Ratio eigmin/eigmax               8.35E-07  (threshold= 1.00E-09)
 Smallest eigenvalue of S kept     8.35E-07  (threshold= 8.35E-07, 0 functions deleted, 396 kept)
 
 CPU time for CABS singles                        0.11 sec

 CABS-singles contribution of  -0.00161267 patched into reference energy.
 New reference energy        -116.27978072
 
 AO(A)-basis ORBITAL           loaded. Number of functions:     214
 RI(R)-basis CC-PVTZ-F12/OPTRI loaded. Number of functions:     396
 DF-basis AUG-CC-PVTZ/MP2FIT   loaded. Number of functions:     488

 Screening thresholds:   THRAO=  1.00D-10  THRMO=  1.00D-09  THRPROD=  1.00D-09
                         THRSW=  1.00D-05  THROV=  1.00D-12  THRAOF12=   1.00D-08

 CPU time for 3-index integral evaluation         6.08 sec
 CPU time for first  half transformation          0.30 sec (17165.8 MFLOP/sec)
 CPU time for second half transformation          0.01 sec (11696.4 MFLOP/sec)
 CPU time for sorting                             0.02 sec
 CPU time for fitting                             0.06 sec (40643.2 MFLOP/sec)
 CPU time for tilde quantities                    0.09 sec (35732.2 MFLOP/sec)
 CPU time for assembly                            0.83 sec (36070.5 MFLOP/sec)
 CPU time for tranop_f12                          1.08 sec (35862.7 MFLOP/sec)
 CPU time for f12 integrals (total)               9.89 sec, Elapsed time:     11.48 sec
 CPU time for f12 matrices (total)                0.34 sec, Elapsed time:      0.42 sec

 Diagonal F12 approximation with fixed coefficients:  TSING= 0.500,  TTRIP= 0.250 (scaled by -1/beta)

 DF-MP2-F12 energy corrections:
 ==============================
 Approx.                                    Singlet             Triplet             Total
 DF-MP2-F12/3*C(DX,FIX)                -0.041442983946     -0.004156443794     -0.045599427740
 DF-MP2-F12/3*C(FIX)                   -0.039307623281     -0.003886825530     -0.043194448811
 DF-MP2-F12/3C(FIX)                    -0.039171530641     -0.003995634960     -0.043167165601

 DF-MP2-F12 correlation energies:
 ================================
 Approx.                                    Singlet             Triplet             Ecorr            Total Energy
 DF-MP2                                -0.320608445259     -0.156040493559     -0.476648938817   -116.756429654290
 DF-MP2-F12/3*C(DX,FIX)                -0.362051429204     -0.160196937353     -0.522248366557   -116.802029082030
 DF-MP2-F12/3*C(FIX)                   -0.359916068539     -0.159927319089     -0.519843387629   -116.799624103102
 DF-MP2-F12/3C(FIX)                    -0.359779975900     -0.160036128518     -0.519816104418   -116.799596819891

 SCS-DF-MP2 energies (F_SING= 1.20000  F_TRIP= 0.62222  F_PARALLEL= 0.33333):
 ============================================================================
 SCS-DF-MP2                            -0.481821996969   -116.761602712442
 SCS-DF-MP2-F12/3*C(DX,FIX)            -0.534139809398   -116.813920524871
 SCS-DF-MP2-F12/3*C(FIX)               -0.531409614125   -116.811190329598
 SCS-DF-MP2-F12/3C(FIX)                -0.531314006602   -116.811094722075
 Symmetry transformation completed.

 Number of N-1 electron functions:               8
 Number of N-2 electron functions:              36
 Number of singly external CSFs:              1632
 Number of doubly external CSFs:           1332528
 Total number of CSFs:                     1334161

 Length of J-op  integral file:             205.73 MB
 Length of K-op  integral file:             258.78 MB
 Length of 3-ext integral record:             0.00 MB

 Memory could be reduced to 93.27 Mwords without degradation in triples

 Integral transformation finished. Total CPU:   9.21 sec, npass=  1  Memory used:  48.07 MW

 Reference energy:                   -116.27978072

 Adding F12 terms to K(Cij), methodcc=6,  factor= 1.0

 ITER.      SQ.NORM     CORR.ENERGY   TOTAL ENERGY   ENERGY CHANGE        DEN1      VAR(S)    VAR(P)  DIIS     TIME  TIME/IT
   1      1.13242644    -0.49189615  -116.77167687    -0.01517266    -0.00366408  0.14D-02  0.19D-02  1  1    31.18     9.69
   2      1.14039219    -0.49246065  -116.77224136    -0.00056449    -0.00957083  0.30D-04  0.23D-03  2  2    39.84     9.95
   3      1.14340185    -0.49271347  -116.77249419    -0.00025282    -0.00213760  0.12D-04  0.13D-04  3  3    48.46     9.89
   4      1.14437548    -0.49274517  -116.77252589    -0.00003170    -0.00060533  0.60D-06  0.11D-05  4  4    57.03     9.70
   5      1.14453364    -0.49274436  -116.77252508     0.00000081    -0.00003036  0.18D-06  0.68D-07  5  5    65.62     9.60
   6      1.14456881    -0.49274210  -116.77252282     0.00000226    -0.00000659  0.15D-07  0.74D-08  6  6    74.24     9.53
   7      1.14457802    -0.49274116  -116.77252188     0.00000094    -0.00000295  0.18D-08  0.62D-09  6  1    82.82     9.47
   8      1.14457967    -0.49274127  -116.77252199    -0.00000011     0.00000022  0.28D-09  0.82D-10  6  3    91.43     9.41
   9      1.14458070    -0.49274123  -116.77252195     0.00000004    -0.00000033  0.23D-10  0.15D-10  6  2   100.06     9.39
  10      1.14458085    -0.49274124  -116.77252195    -0.00000000     0.00000005  0.28D-11  0.14D-11  6  4   108.65    10.23
  11      1.14458085    -0.49274124  -116.77252195    -0.00000000     0.00000004  0.45D-12  0.20D-12  6  5   117.25    10.12

 Norm of t1 vector:      0.04937490      S-energy:     0.00000000      T1 diagnostic:  0.00872833
                                                                       D1 diagnostic:  0.01888945

 Adding energy correction from Wij-K(Fij), methodcc=6  factor= 1.0
 
  CCSD correlation energy              -0.492741236854
  MP2-F12 correction (uncoupled)       -0.041732936411
  C*T doubles correction               -0.001134331895
  f12b correction                       0.007812098902


 Total CPU time for triples:    151.39 sec

  Ecorr(MP2)                           -0.476723496656
  Ecorr(MP2-F12)                       -0.519890662256
  Scale factor for triples energy       1.090549691600


 RESULTS
 =======

  Reference energy                   -116.278168041902
  F12 singles correction               -0.001612673571

 F12 singles corrections added to reference energy

  New reference energy               -116.279780715473

  F12a singlet correction              -0.038993689830
  F12a triplet correction              -0.003873578476
  F12a total correction                -0.042867268306

 F12a corrections for ansatz F12/3C(FIX) added to CCSD energy
 
  CCSD-F12a singlet pair energy        -0.388932067904
  CCSD-F12a triplet pair energy        -0.146676440179
  CCSD-F12a correlation energy         -0.535608505160

  Triples (T) contribution (scaled)    -0.016887351879
  Total correlation energy             -0.552495857038

  CCSD-F12a total energy             -116.815389220632
  CCSD[T]-F12a energy                -116.832859682723
  CCSD-T-F12a energy                 -116.832053438108
 !CCSD(T)-F12a total energy          -116.832276572511

 F12b corrections for ansatz F12/3C(FIX) added to CCSD(T)-F12a energy

  CCSD-F12b singlet pair energy        -0.381586521088
  CCSD-F12b triplet pair energy        -0.146209888093
  CCSD-F12b correlation energy         -0.527796406258

  Triples (T) contribution (scaled)    -0.016887351879
  Total correlation energy             -0.544683758137

  CCSD-F12b total energy             -116.807577121731
  CCSD[T]-F12b energy                -116.825047583821
  CCSD-T-F12b energy                 -116.824241339206
 !CCSD(T)-F12b total energy          -116.824464473610

 Timing summary (sec):

 STEP                 CPU(USER)    SYS     CPU(TOT)    WALL
 Transformation          9.32      1.83     11.15     11.72
 CCSD iterations        94.59      7.14    101.73    114.76
 Triples               151.39      2.43    153.82    153.86
 MP2-F12                13.35      1.33     14.68     23.24
 F12b energy             6.86      0.28      7.14     11.88

 Program statistics:

 Available memory in ccsd:              2999999464
 Min. memory needed in ccsd:               3963025
 Max. memory used in ccsd:                 5096465
 Max. memory used in cckext:               3666031 (12 integral passes)



 **********************************************************************************************************************************
 DATASETS  * FILE   NREC   LENGTH (MB)   RECORD NAMES
              1      20     2173.04       500      610      700      900      950      970     1000      129      960     1100   
                                          VAR    BASINP    GEOM    SYMINP    ZMAT    AOBASIS   BASIS     P2S    ABASIS      S 
                                         1400     1410     1200     1210     1080     1600     1650     1300     1700     1380   
                                           T        V       H0       H01     AOSYM     SMH    MOLCAS    ERIS     OPER     JKOP   

              2       6        4.74       700     1000      520     2100     7360     7350   
                                         GEOM     BASIS   MCVARS     RHF    F12ABS    EF12   

 PROGRAMS   *        TOTAL   CCSD(T)        HF       INT
 CPU TIMES  *       316.12    275.56     24.96     15.48
 REAL TIME  *       374.96 SEC
 DISK USED  *         5.14 GB      
 **********************************************************************************************************************************
 SETTING E_F12_AB(1)    =      -116.83227657  AU                              
 SETTING E_F12_AB(2)    =      -116.82446447  AU                              

 Dummy atoms: O1  H5  H6


 Recomputing one-electron integrals since nuclear charges changed


 PROGRAM * SEWARD (Integral evaluation for generally contracted gaussian basis sets)     Author: Roland Lindh, 1990

 Geometry written to block  1 of record 700


 Point group  C1  



 ATOMIC COORDINATES

 NR  ATOM    CHARGE       X              Y              Z

   1  C1      6.00   -6.193010455    2.801518980    2.403542658
   2  H1      1.00   -4.656285171    1.699997622    3.119937832
   3  H2      1.00   -5.973046335    4.726205038    2.982932688
   4  H3      1.00   -7.940251230    2.077186956    3.118237078
   5  H4      1.00   -6.176569838    2.685300823    0.384937212
   6  O1      0.00    0.000000000    0.000000000    0.000000000
   7  H5      0.00    0.000000000    0.000000000    1.842293999
   8  H6      0.00    0.000000000    1.780688927   -0.493596464

 Bond lengths in Bohr (Angstrom)

 1-2  2.021904040  1-3  2.022002335  1-4  2.021953343  1-5  2.022015060  6-7  1.842293999
     ( 1.069945541)     ( 1.069997556)     ( 1.069971630)     ( 1.070004290)     ( 0.974900000)

 6-8  1.847834009
     ( 0.977831647)

 Bond angles

  2-1-3  109.53398059   2-1-4  109.65604535   2-1-5  108.43490854   3-1-4  109.49436728

  3-1-5  109.86987750   4-1-5  109.83468330   7-6-8  105.49305961

 NUCLEAR CHARGE:                   10
 NUMBER OF PRIMITIVE AOS:         270
 NUMBER OF SYMMETRY AOS:          246
 NUMBER OF CONTRACTIONS:          214   ( 214A   )
 NUMBER OF CORE ORBITALS:           1   (   1A   )
 NUMBER OF VALENCE ORBITALS:        8   (   8A   )

 MOLECULE CHANGED: INITIALIZING OCCUPATION AND DUMP RECORDS


 NUCLEAR REPULSION ENERGY   13.68681606


 Eigenvalues of metric

         1 0.735E-04 0.210E-03 0.307E-03 0.322E-03 0.334E-03 0.449E-03 0.548E-03 0.559E-03


 Contracted 2-electron integrals neglected if value below      1.0D-19

 OPERATOR DM      FOR CENTER  0  COORDINATES:    0.000000    0.000000    0.000000


 **********************************************************************************************************************************
 DATASETS  * FILE   NREC   LENGTH (MB)   RECORD NAMES
              1      19     1879.49       500      610      700      900      950      970     1000      129      960     1100   
                                          VAR    BASINP    GEOM    SYMINP    ZMAT    AOBASIS   BASIS     P2S    ABASIS      S 
                                         1400     1410     1200     1210     1080     1600     1650     1300     1700   
                                           T        V       H0       H01     AOSYM     SMH    MOLCAS    ERIS     OPER   

              2       6        4.74       700     1000      520     2100     7360     7350   
                                         GEOM     BASIS   MCVARS     RHF    F12ABS    EF12   

 PROGRAMS   *        TOTAL       INT   CCSD(T)        HF       INT
 CPU TIMES  *       316.18      0.06    275.56     24.96     15.48
 REAL TIME  *       375.39 SEC
 DISK USED  *         5.14 GB      
 **********************************************************************************************************************************


 PROGRAM * RHF-SCF (CLOSED SHELL)       Authors: W. Meyer, H.-J. Werner


 NUMBER OF ELECTRONS:       5+    5-    SPACE SYMMETRY=1    SPIN SYMMETRY: Singlet 
 CONVERGENCE THRESHOLDS:    1.00E-04 (Density)    1.00E-09 (Energy)
 MAX. NUMBER OF ITERATIONS:       60
 INTERPOLATION TYPE:            DIIS
 INTERPOLATION STEPS:              2 (START)      1 (STEP)
 LEVEL SHIFTS:                  0.00 (CLOSED)  0.00 (OPEN) 



 Orbital guess generated from atomic densities. Full valence occupancy:    9

 Molecular orbital dump at record        2101.2

 Initial occupancy:   5

 ITERATION    DDIFF          GRAD             ENERGY        2-EL.EN.            DIPOLE MOMENTS         DIIS   ORB.
    1      0.000D+00      0.000D+00       -40.19565414     53.501362    0.00412   -0.00280   -0.00137    0    start
    2      0.000D+00      0.368D-02       -40.21289896     52.216646    0.00127   -0.00090   -0.00045    1    diag
    3      0.318D-02      0.143D-02       -40.21516778     52.670306    0.00180   -0.00125   -0.00062    2    diag
    4      0.856D-03      0.357D-03       -40.21548600     52.615358    0.00159   -0.00111   -0.00055    3    diag
    5      0.328D-03      0.463D-04       -40.21549147     52.617512    0.00156   -0.00109   -0.00054    4    diag
    6      0.574D-04      0.375D-05       -40.21549151     52.617657    0.00156   -0.00109   -0.00054    5    diag
    7      0.876D-05      0.302D-06       -40.21549151     52.617617    0.00156   -0.00109   -0.00054    6    diag
    8      0.980D-06      0.229D-07       -40.21549151     52.617618    0.00156   -0.00109   -0.00054    0    orth

 Final occupancy:   5

 !RHF STATE 1.1 Energy                -40.215491510138
 Nuclear energy                        13.68681606
 One-electron energy                  -80.21111680
 Two-electron energy                   26.30880923
 Virial quotient                       -0.99832334
 !RHF STATE 1.1 Dipole moment           0.00155656    -0.00109209    -0.00054417
 Dipole moment /Debye                   0.00395611    -0.00277562    -0.00138304

 Orbital energies:

         1.1          2.1          3.1          4.1          5.1          6.1          7.1
    -11.196270    -0.950712    -0.551939    -0.550004    -0.547824     0.055683     0.068844

 HOMO      5.1    -0.547824 =     -14.9071eV
 LUMO      6.1     0.055683 =       1.5152eV
 LUMO-HOMO         0.603507 =      16.4223eV


 **********************************************************************************************************************************
 DATASETS  * FILE   NREC   LENGTH (MB)   RECORD NAMES
              1      19     1879.49       500      610      700      900      950      970     1000      129      960     1100   
                                          VAR    BASINP    GEOM    SYMINP    ZMAT    AOBASIS   BASIS     P2S    ABASIS      S 
                                         1400     1410     1200     1210     1080     1600     1650     1300     1700   
                                           T        V       H0       H01     AOSYM     SMH    MOLCAS    ERIS     OPER   

              2       7        8.14       700     1000      520     2100     7360     7350     2101   
                                         GEOM     BASIS   MCVARS     RHF    F12ABS    EF12      RHF  

 PROGRAMS   *        TOTAL        HF       INT   CCSD(T)        HF       INT
 CPU TIMES  *       336.53     20.35      0.06    275.56     24.96     15.48
 REAL TIME  *       410.16 SEC
 DISK USED  *         5.14 GB      
 **********************************************************************************************************************************
 SETTING E_HF_A         =       -40.21549151  AU                              


 PROGRAM * CCSD (Closed-shell coupled cluster)     Authors: C. Hampel, H.-J. Werner, 1991, M. Deegan, P.J. Knowles, 1992

                                  CCSD-F12 implementation by  H.-J. Werner, 2007

                   Density fitting integral evaluation by F.R. Manby, 2003,2007, G. Knizia, 2010

 Basis set CC-PVTZ/JKFIT generated.      Number of basis functions:   338 
 Basis set CC-PVTZ-F12/OPTRI generated.  Number of basis functions:   396 
 Basis set AUG-CC-PVTZ/MP2FIT generated. Number of basis functions:   488 

 Convergence thresholds:  THRVAR = 1.00D-08  THRDEN = 1.00D-08

 CCSD(T)     terms to be evaluated (factor= 1.000)


 Number of core orbitals:           1 (   1 )
 Number of closed-shell orbitals:   4 (   4 )
 Number of external orbitals:     209 ( 209 )

 Molecular orbitals read from record     2101.2  Type=RHF/CANONICAL (state 1.1)

 MP2-F12 correlation treatment (H.-J. Werner, 2006)
 ==================================================

 Using MP2-F12 with ansatz 3C(FIX)

 Using projected zeroth-order Hamiltonian (+Z)

 FOCKRIB=T FOCKRIC=T FOCKRIP=T CABSP=T CABSA=T CABSK=T CABSF=T GBC=F EBC=F DMAT=T NOFIK=T NOPAO=1 SOLVE=-1  USEPAO=0
 EXCH_A= T EXCH_B= F EXCH_C= F EXCH_P= F
 
 Geminal basis:    OPTFULL  GEM_TYPE=SLATER  BETA=1.0  NGEM=6

 Optimizing Gaussian exponents for each gem_beta

 Geminal optimization for beta= 1.0000
 Weight function:   m=0, omega= 1.4646

 Augmented Hessian optimization of geminal fit. Trust ratio= 0.40000
 Convergence reached after   2 iterations. Final gradient= 8.26D-16, Step= 4.26D-06, Delta= 1.28D-09
 
 Alpha:                 0.19532     0.81920     2.85917     9.50073    35.69989   197.79328
 Coeff:                 0.27070     0.30552     0.18297     0.10986     0.06810     0.04224
 

 All pairs explicitly correlated. Number of r12-pairs:           10

 Excluding core orbitals from MO domains
 
 AO(A)-basis ORBITAL           loaded. Number of functions:     214
 RI(R)-basis CC-PVTZ-F12/OPTRI loaded. Number of functions:     396
 DF-basis CC-PVTZ/JKFIT        loaded. Number of functions:     338

 Screening thresholds:   THRAO=  1.00D-10  THRMO=  1.00D-09  THRPROD=  1.00D-09
                         THRSW=  1.00D-05  THROV=  1.00D-12  THRAOF12=   1.00D-08

 CPU time for Fock operators                      2.68 sec
 
 Construction of ABS:
 Smallest eigenvalue of S          3.83E-04  (threshold= 1.00E-08)
 Ratio eigmin/eigmax               4.91E-05  (threshold= 1.00E-09)
 Smallest eigenvalue of S kept     3.83E-04  (threshold= 3.83E-04, 0 functions deleted, 396 kept)
 
 Construction of CABS:
 Smallest eigenvalue of S          8.35E-07  (threshold= 1.00E-08)
 Ratio eigmin/eigmax               8.35E-07  (threshold= 1.00E-09)
 Smallest eigenvalue of S kept     8.35E-07  (threshold= 8.35E-07, 0 functions deleted, 396 kept)
 
 CPU time for CABS singles                        0.11 sec

 CABS-singles contribution of  -0.00063650 patched into reference energy.
 New reference energy         -40.21612801
 
 AO(A)-basis ORBITAL           loaded. Number of functions:     214
 RI(R)-basis CC-PVTZ-F12/OPTRI loaded. Number of functions:     396
 DF-basis AUG-CC-PVTZ/MP2FIT   loaded. Number of functions:     488

 Screening thresholds:   THRAO=  1.00D-10  THRMO=  1.00D-09  THRPROD=  1.00D-09
                         THRSW=  1.00D-05  THROV=  1.00D-12  THRAOF12=   1.00D-08

 CPU time for 3-index integral evaluation         5.98 sec
 CPU time for first  half transformation          0.35 sec ( 7356.8 MFLOP/sec)
 CPU time for second half transformation          0.01 sec ( 2924.1 MFLOP/sec)
 CPU time for fitting                             0.03 sec (39690.7 MFLOP/sec)
 CPU time for tilde quantities                    0.04 sec (39722.4 MFLOP/sec)
 CPU time for assembly                            0.22 sec (36254.9 MFLOP/sec)
 CPU time for tranop_f12                          0.26 sec (36852.4 MFLOP/sec)
 CPU time for f12 integrals (total)               7.36 sec, Elapsed time:      7.83 sec
 CPU time for f12 matrices (total)                0.08 sec, Elapsed time:     11.66 sec

 Diagonal F12 approximation with fixed coefficients:  TSING= 0.500,  TTRIP= 0.250 (scaled by -1/beta)

 DF-MP2-F12 energy corrections:
 ==============================
 Approx.                                    Singlet             Triplet             Total
 DF-MP2-F12/3*C(DX,FIX)                -0.016286314754     -0.001139819303     -0.017426134057
 DF-MP2-F12/3*C(FIX)                   -0.015925353534     -0.001149664286     -0.017075017820
 DF-MP2-F12/3C(FIX)                    -0.015857355845     -0.001156869744     -0.017014225589

 DF-MP2-F12 correlation energies:
 ================================
 Approx.                                    Singlet             Triplet             Ecorr            Total Energy
 DF-MP2                                -0.145616007455     -0.055805382020     -0.201421389475    -40.417549402213
 DF-MP2-F12/3*C(DX,FIX)                -0.161902322209     -0.056945201324     -0.218847523533    -40.434975536270
 DF-MP2-F12/3*C(FIX)                   -0.161541360989     -0.056955046306     -0.218496407295    -40.434624420033
 DF-MP2-F12/3C(FIX)                    -0.161473363300     -0.056962251764     -0.218435615064    -40.434563627802

 SCS-DF-MP2 energies (F_SING= 1.20000  F_TRIP= 0.62222  F_PARALLEL= 0.33333):
 ============================================================================
 SCS-DF-MP2                            -0.209462557759    -40.425590570496
 SCS-DF-MP2-F12/3*C(DX,FIX)            -0.229715356363    -40.445843369101
 SCS-DF-MP2-F12/3*C(FIX)               -0.229288328666    -40.445416341404
 SCS-DF-MP2-F12/3C(FIX)                -0.229211214836    -40.445339227573
 Symmetry transformation completed.

 Number of N-1 electron functions:               4
 Number of N-2 electron functions:              10
 Number of singly external CSFs:               836
 Number of doubly external CSFs:            349866
 Total number of CSFs:                      350703

 Length of J-op  integral file:              53.89 MB
 Length of K-op  integral file:              87.81 MB
 Length of 3-ext integral record:             0.00 MB

 Memory could be reduced to 60.96 Mwords without degradation in triples

 Integral transformation finished. Total CPU:   5.51 sec, npass=  1  Memory used:  26.32 MW

 Reference energy:                    -40.21612801

 Adding F12 terms to K(Cij), methodcc=6,  factor= 1.0

 ITER.      SQ.NORM     CORR.ENERGY   TOTAL ENERGY   ENERGY CHANGE        DEN1      VAR(S)    VAR(P)  DIIS     TIME  TIME/IT
   1      1.06960625    -0.21652443   -40.43265244    -0.01506836    -0.00954296  0.62D-03  0.94D-03  1  1    19.55     9.30
   2      1.07446104    -0.21734056   -40.43346857    -0.00081613    -0.00516262  0.14D-04  0.90D-04  2  2    23.39    12.74
   3      1.07598268    -0.21745196   -40.43357997    -0.00011140    -0.00108966  0.20D-05  0.57D-05  3  3    27.23     9.98
   4      1.07635203    -0.21746648   -40.43359450    -0.00001453    -0.00020087  0.13D-06  0.31D-06  4  4    31.07     9.80
   5      1.07640391    -0.21746611   -40.43359413     0.00000037    -0.00000933  0.77D-08  0.15D-07  5  5    34.88     8.66
   6      1.07641021    -0.21746486   -40.43359288     0.00000125    -0.00000294  0.32D-09  0.88D-09  6  6    38.71     7.94
   7      1.07641096    -0.21746479   -40.43359280     0.00000008    -0.00000043  0.22D-10  0.73D-10  6  1    42.52     7.40
   8      1.07641105    -0.21746481   -40.43359283    -0.00000003     0.00000001  0.29D-11  0.63D-11  6  2    46.34     6.99
   9      1.07641105    -0.21746482   -40.43359283    -0.00000001     0.00000003  0.21D-12  0.36D-12  6  3    50.17     6.67
  10      1.07641104    -0.21746482   -40.43359283    -0.00000000     0.00000001  0.24D-13  0.34D-13  6  4    53.95     6.42

 Norm of t1 vector:      0.03261049      S-energy:    -0.00000000      T1 diagnostic:  0.00815262
                                                                       D1 diagnostic:  0.01307001

 Adding energy correction from Wij-K(Fij), methodcc=6  factor= 1.0
 
  CCSD correlation energy              -0.217464819931
  MP2-F12 correction (uncoupled)       -0.016714299134
  C*T doubles correction               -0.000290970484
  f12b correction                       0.003525388746


 Total CPU time for triples:     21.44 sec

  Ecorr(MP2)                           -0.201456076721
  Ecorr(MP2-F12)                       -0.218470302310
  Scale factor for triples energy       1.084456254017


 RESULTS
 =======

  Reference energy                    -40.215491510138
  F12 singles correction               -0.000636502600

 F12 singles corrections added to reference energy

  New reference energy                -40.216128012737

  F12a singlet correction              -0.015860962398
  F12a triplet correction              -0.001144307220
  F12a total correction                -0.017005269618

 F12a corrections for ansatz F12/3C(FIX) added to CCSD energy
 
  CCSD-F12a singlet pair energy        -0.179253416845
  CCSD-F12a triplet pair energy        -0.055216672271
  CCSD-F12a correlation energy         -0.234470089549

  Triples (T) contribution (scaled)    -0.006988787847
  Total correlation energy             -0.241458877396

  CCSD-F12a total energy              -40.450598102287
  CCSD[T]-F12a energy                 -40.457828345925
  CCSD-T-F12a energy                  -40.457513518846
 !CCSD(T)-F12a total energy           -40.457586890134

 F12b corrections for ansatz F12/3C(FIX) added to CCSD(T)-F12a energy

  CCSD-F12b singlet pair energy        -0.175882827988
  CCSD-F12b triplet pair energy        -0.055061872383
  CCSD-F12b correlation energy         -0.230944700804

  Triples (T) contribution (scaled)    -0.006988787847
  Total correlation energy             -0.237933488651

  CCSD-F12b total energy              -40.447072713541
  CCSD[T]-F12b energy                 -40.454302957180
  CCSD-T-F12b energy                  -40.453988130100
 !CCSD(T)-F12b total energy           -40.454061501388

 Timing summary (sec):

 STEP                 CPU(USER)    SYS     CPU(TOT)    WALL
 Transformation          5.54      0.68      6.22      7.99
 CCSD iterations        38.01      3.11     41.12     64.30
 Triples                21.44      0.35     21.79     21.79
 MP2-F12                10.41      0.46     10.87     24.48
 F12b energy             3.36      0.24      3.60      3.64

 Program statistics:

 Available memory in ccsd:              2999999786
 Min. memory needed in ccsd:               1609972
 Max. memory used in ccsd:                 1864434
 Max. memory used in cckext:               1252381 (11 integral passes)



 **********************************************************************************************************************************
 DATASETS  * FILE   NREC   LENGTH (MB)   RECORD NAMES
              1      20     2032.50       500      610      700      900      950      970     1000      129      960     1100   
                                          VAR    BASINP    GEOM    SYMINP    ZMAT    AOBASIS   BASIS     P2S    ABASIS      S 
                                         1400     1410     1200     1210     1080     1600     1650     1300     1700     1380   
                                           T        V       H0       H01     AOSYM     SMH    MOLCAS    ERIS     OPER     JKOP   

              2       7        8.14       700     1000      520     2100     7360     7350     2101   
                                         GEOM     BASIS   MCVARS     RHF    F12ABS    EF12      RHF  

 PROGRAMS   *        TOTAL   CCSD(T)        HF       INT   CCSD(T)        HF       INT
 CPU TIMES  *       415.33     78.80     20.35      0.06    275.56     24.96     15.48
 REAL TIME  *       535.48 SEC
 DISK USED  *         5.14 GB      
 **********************************************************************************************************************************
 SETTING E_F12_A(1)     =       -40.45758689  AU                              
 SETTING E_F12_A(2)     =       -40.45406150  AU                              

 Dummy atoms: C1  H1  H2  H3  H4


 Recomputing one-electron integrals since nuclear charges changed


 PROGRAM * SEWARD (Integral evaluation for generally contracted gaussian basis sets)     Author: Roland Lindh, 1990

 Geometry written to block  1 of record 700


 Point group  C1  



 ATOMIC COORDINATES

 NR  ATOM    CHARGE       X              Y              Z

   1  C1      0.00   -6.193010455    2.801518980    2.403542658
   2  H1      0.00   -4.656285171    1.699997622    3.119937832
   3  H2      0.00   -5.973046335    4.726205038    2.982932688
   4  H3      0.00   -7.940251230    2.077186956    3.118237078
   5  H4      0.00   -6.176569838    2.685300823    0.384937212
   6  O1      8.00    0.000000000    0.000000000    0.000000000
   7  H5      1.00    0.000000000    0.000000000    1.842293999
   8  H6      1.00    0.000000000    1.780688927   -0.493596464

 Bond lengths in Bohr (Angstrom)

 1-2  2.021904040  1-3  2.022002335  1-4  2.021953343  1-5  2.022015060  6-7  1.842293999
     ( 1.069945541)     ( 1.069997556)     ( 1.069971630)     ( 1.070004290)     ( 0.974900000)

 6-8  1.847834009
     ( 0.977831647)

 Bond angles

  2-1-3  109.53398059   2-1-4  109.65604535   2-1-5  108.43490854   3-1-4  109.49436728

  3-1-5  109.86987750   4-1-5  109.83468330   7-6-8  105.49305961

 NUCLEAR CHARGE:                   10
 NUMBER OF PRIMITIVE AOS:         270
 NUMBER OF SYMMETRY AOS:          246
 NUMBER OF CONTRACTIONS:          214   ( 214A   )
 NUMBER OF CORE ORBITALS:           1   (   1A   )
 NUMBER OF VALENCE ORBITALS:        6   (   6A   )

 MOLECULE CHANGED: INITIALIZING OCCUPATION AND DUMP RECORDS


 NUCLEAR REPULSION ENERGY    9.01226390


 Eigenvalues of metric

         1 0.735E-04 0.210E-03 0.307E-03 0.322E-03 0.334E-03 0.449E-03 0.548E-03 0.559E-03


 Contracted 2-electron integrals neglected if value below      1.0D-19

 OPERATOR DM      FOR CENTER  0  COORDINATES:    0.000000    0.000000    0.000000


 **********************************************************************************************************************************
 DATASETS  * FILE   NREC   LENGTH (MB)   RECORD NAMES
              1      19     1879.49       500      610      700      900      950      970     1000      129      960     1100   
                                          VAR    BASINP    GEOM    SYMINP    ZMAT    AOBASIS   BASIS     P2S    ABASIS      S 
                                         1400     1410     1200     1210     1080     1600     1650     1300     1700   
                                           T        V       H0       H01     AOSYM     SMH    MOLCAS    ERIS     OPER   

              2       7        8.14       700     1000      520     2100     7360     7350     2101   
                                         GEOM     BASIS   MCVARS     RHF    F12ABS    EF12      RHF  

 PROGRAMS   *        TOTAL       INT   CCSD(T)        HF       INT   CCSD(T)        HF       INT
 CPU TIMES  *       415.40      0.06     78.80     20.35      0.06    275.56     24.96     15.48
 REAL TIME  *       535.69 SEC
 DISK USED  *         5.14 GB      
 **********************************************************************************************************************************


 PROGRAM * RHF-SCF (CLOSED SHELL)       Authors: W. Meyer, H.-J. Werner


 NUMBER OF ELECTRONS:       5+    5-    SPACE SYMMETRY=1    SPIN SYMMETRY: Singlet 
 CONVERGENCE THRESHOLDS:    1.00E-04 (Density)    1.00E-09 (Energy)
 MAX. NUMBER OF ITERATIONS:       60
 INTERPOLATION TYPE:            DIIS
 INTERPOLATION STEPS:              2 (START)      1 (STEP)
 LEVEL SHIFTS:                  0.00 (CLOSED)  0.00 (OPEN) 



 Orbital guess generated from atomic densities. Full valence occupancy:    7

 Molecular orbital dump at record        2102.2

 Initial occupancy:   5

 ITERATION    DDIFF          GRAD             ENERGY        2-EL.EN.            DIPOLE MOMENTS         DIIS   ORB.
    1      0.000D+00      0.000D+00       -76.02481527     77.424939   -0.00027    0.91471    0.69153    0    start
    2      0.000D+00      0.671D-02       -76.05159196     73.781976    0.00024    0.53443    0.40508    1    diag
    3      0.465D-02      0.426D-02       -76.06306015     75.398059    0.00002    0.62879    0.47641    2    diag
    4      0.162D-02      0.400D-03       -76.06325385     75.305757    0.00003    0.62494    0.47372    3    diag
    5      0.233D-03      0.112D-03       -76.06327448     75.320183    0.00003    0.62352    0.47274    4    diag
    6      0.824D-04      0.221D-04       -76.06327581     75.319135    0.00002    0.62317    0.47251    5    diag
    7      0.243D-04      0.446D-05       -76.06327587     75.319287    0.00002    0.62305    0.47243    6    diag
    8      0.570D-05      0.865D-06       -76.06327587     75.319275    0.00002    0.62302    0.47240    7    diag
    9      0.103D-05      0.115D-06       -76.06327587     75.319266    0.00002    0.62301    0.47240    8    diag
   10      0.188D-06      0.253D-07       -76.06327587     75.319271    0.00002    0.62301    0.47240    0    orth

 Final occupancy:   5

 !RHF STATE 1.1 Energy                -76.063275874437
 Nuclear energy                         9.01226390
 One-electron energy                 -122.73517511
 Two-electron energy                   37.65963534
 Virial quotient                       -1.00188574
 !RHF STATE 1.1 Dipole moment           0.00002129     0.62301286     0.47240089
 Dipole moment /Debye                   0.00005410     1.58343703     1.20064466

 Orbital energies:

         1.1          2.1          3.1          4.1          5.1          6.1          7.1
    -20.567787    -1.342632    -0.709369    -0.579473    -0.508691     0.037328     0.062460

 HOMO      5.1    -0.508691 =     -13.8422eV
 LUMO      6.1     0.037328 =       1.0158eV
 LUMO-HOMO         0.546019 =      14.8579eV


 **********************************************************************************************************************************
 DATASETS  * FILE   NREC   LENGTH (MB)   RECORD NAMES
              1      19     1879.49       500      610      700      900      950      970     1000      129      960     1100   
                                          VAR    BASINP    GEOM    SYMINP    ZMAT    AOBASIS   BASIS     P2S    ABASIS      S 
                                         1400     1410     1200     1210     1080     1600     1650     1300     1700   
                                           T        V       H0       H01     AOSYM     SMH    MOLCAS    ERIS     OPER   

              2       8       12.47       700     1000      520     2100     7360     7350     2101     2102   
                                         GEOM     BASIS   MCVARS     RHF    F12ABS    EF12      RHF      RHF  

 PROGRAMS   *        TOTAL        HF       INT   CCSD(T)        HF       INT   CCSD(T)        HF       INT
 CPU TIMES  *       440.37     24.97      0.06     78.80     20.35      0.06    275.56     24.96     15.48
 REAL TIME  *       577.63 SEC
 DISK USED  *         5.14 GB      
 **********************************************************************************************************************************
 SETTING E_HF_B         =       -76.06327587  AU                              


 PROGRAM * CCSD (Closed-shell coupled cluster)     Authors: C. Hampel, H.-J. Werner, 1991, M. Deegan, P.J. Knowles, 1992

                                  CCSD-F12 implementation by  H.-J. Werner, 2007

                   Density fitting integral evaluation by F.R. Manby, 2003,2007, G. Knizia, 2010

 Basis set CC-PVTZ/JKFIT generated.      Number of basis functions:   338 
 Basis set CC-PVTZ-F12/OPTRI generated.  Number of basis functions:   396 
 Basis set AUG-CC-PVTZ/MP2FIT generated. Number of basis functions:   488 

 Convergence thresholds:  THRVAR = 1.00D-08  THRDEN = 1.00D-08

 CCSD(T)     terms to be evaluated (factor= 1.000)


 Number of core orbitals:           1 (   1 )
 Number of closed-shell orbitals:   4 (   4 )
 Number of external orbitals:     209 ( 209 )

 Molecular orbitals read from record     2102.2  Type=RHF/CANONICAL (state 1.1)

 MP2-F12 correlation treatment (H.-J. Werner, 2006)
 ==================================================

 Using MP2-F12 with ansatz 3C(FIX)

 Using projected zeroth-order Hamiltonian (+Z)

 FOCKRIB=T FOCKRIC=T FOCKRIP=T CABSP=T CABSA=T CABSK=T CABSF=T GBC=F EBC=F DMAT=T NOFIK=T NOPAO=1 SOLVE=-1  USEPAO=0
 EXCH_A= T EXCH_B= F EXCH_C= F EXCH_P= F
 
 Geminal basis:    OPTFULL  GEM_TYPE=SLATER  BETA=1.0  NGEM=6

 Optimizing Gaussian exponents for each gem_beta

 Geminal optimization for beta= 1.0000
 Weight function:   m=0, omega= 1.4646

 Augmented Hessian optimization of geminal fit. Trust ratio= 0.40000
 Convergence reached after   2 iterations. Final gradient= 8.26D-16, Step= 4.26D-06, Delta= 1.28D-09
 
 Alpha:                 0.19532     0.81920     2.85917     9.50073    35.69989   197.79328
 Coeff:                 0.27070     0.30552     0.18297     0.10986     0.06810     0.04224
 

 All pairs explicitly correlated. Number of r12-pairs:           10

 Excluding core orbitals from MO domains
 
 AO(A)-basis ORBITAL           loaded. Number of functions:     214
 RI(R)-basis CC-PVTZ-F12/OPTRI loaded. Number of functions:     396
 DF-basis CC-PVTZ/JKFIT        loaded. Number of functions:     338

 Screening thresholds:   THRAO=  1.00D-10  THRMO=  1.00D-09  THRPROD=  1.00D-09
                         THRSW=  1.00D-05  THROV=  1.00D-12  THRAOF12=   1.00D-08

 CPU time for Fock operators                      2.68 sec
 
 Construction of ABS:
 Smallest eigenvalue of S          3.83E-04  (threshold= 1.00E-08)
 Ratio eigmin/eigmax               4.91E-05  (threshold= 1.00E-09)
 Smallest eigenvalue of S kept     3.83E-04  (threshold= 3.83E-04, 0 functions deleted, 396 kept)
 
 Construction of CABS:
 Smallest eigenvalue of S          8.35E-07  (threshold= 1.00E-08)
 Ratio eigmin/eigmax               8.35E-07  (threshold= 1.00E-09)
 Smallest eigenvalue of S kept     8.35E-07  (threshold= 8.35E-07, 0 functions deleted, 396 kept)
 
 CPU time for CABS singles                        0.11 sec

 CABS-singles contribution of  -0.00097551 patched into reference energy.
 New reference energy         -76.06425138
 
 AO(A)-basis ORBITAL           loaded. Number of functions:     214
 RI(R)-basis CC-PVTZ-F12/OPTRI loaded. Number of functions:     396
 DF-basis AUG-CC-PVTZ/MP2FIT   loaded. Number of functions:     488

 Screening thresholds:   THRAO=  1.00D-10  THRMO=  1.00D-09  THRPROD=  1.00D-09
                         THRSW=  1.00D-05  THROV=  1.00D-12  THRAOF12=   1.00D-08

 CPU time for 3-index integral evaluation         5.94 sec
 CPU time for first  half transformation          0.39 sec ( 6602.2 MFLOP/sec)
 CPU time for second half transformation          0.01 sec ( 2924.1 MFLOP/sec)
 CPU time for fitting                             0.04 sec (29768.0 MFLOP/sec)
 CPU time for tilde quantities                    0.04 sec (39722.4 MFLOP/sec)
 CPU time for assembly                            0.22 sec (36254.9 MFLOP/sec)
 CPU time for tranop_f12                          0.25 sec (38326.5 MFLOP/sec)
 CPU time for f12 integrals (total)               7.36 sec, Elapsed time:     17.85 sec
 CPU time for f12 matrices (total)                0.07 sec, Elapsed time:      0.09 sec

 Diagonal F12 approximation with fixed coefficients:  TSING= 0.500,  TTRIP= 0.250 (scaled by -1/beta)

 DF-MP2-F12 energy corrections:
 ==============================
 Approx.                                    Singlet             Triplet             Total
 DF-MP2-F12/3*C(DX,FIX)                -0.025128207151     -0.002998693562     -0.028126900713
 DF-MP2-F12/3*C(FIX)                   -0.023353352740     -0.002712025845     -0.026065378584
 DF-MP2-F12/3C(FIX)                    -0.023282488769     -0.002809325074     -0.026091813842

 DF-MP2-F12 correlation energies:
 ================================
 Approx.                                    Singlet             Triplet             Ecorr            Total Energy
 DF-MP2                                -0.174809437476     -0.099695886576     -0.274505324052    -76.338756706919
 DF-MP2-F12/3*C(DX,FIX)                -0.199937644627     -0.102694580138     -0.302632224765    -76.366883607632
 DF-MP2-F12/3*C(FIX)                   -0.198162790216     -0.102407912421     -0.300570702636    -76.364822085504
 DF-MP2-F12/3C(FIX)                    -0.198091926244     -0.102505211649     -0.300597137894    -76.364848520761

 SCS-DF-MP2 energies (F_SING= 1.20000  F_TRIP= 0.62222  F_PARALLEL= 0.33333):
 ============================================================================
 SCS-DF-MP2                            -0.271804321063    -76.336055703930
 SCS-DF-MP2-F12/3*C(DX,FIX)            -0.303824023416    -76.368075406284
 SCS-DF-MP2-F12/3*C(FIX)               -0.301515827098    -76.365767209966
 SCS-DF-MP2-F12/3C(FIX)                -0.301491332075    -76.365742714943
 Symmetry transformation completed.

 Number of N-1 electron functions:               4
 Number of N-2 electron functions:              10
 Number of singly external CSFs:               836
 Number of doubly external CSFs:            349866
 Total number of CSFs:                      350703

 Length of J-op  integral file:              53.89 MB
 Length of K-op  integral file:              87.81 MB
 Length of 3-ext integral record:             0.00 MB

 Memory could be reduced to 60.96 Mwords without degradation in triples

 Integral transformation finished. Total CPU:   5.52 sec, npass=  1  Memory used:  26.32 MW

 Reference energy:                    -76.06425138

 Adding F12 terms to K(Cij), methodcc=6,  factor= 1.0

 ITER.      SQ.NORM     CORR.ENERGY   TOTAL ENERGY   ENERGY CHANGE        DEN1      VAR(S)    VAR(P)  DIIS     TIME  TIME/IT
   1      1.06254978    -0.27465550   -76.33890688    -0.00011005     0.00586129  0.76D-03  0.10D-02  1  1    19.49     4.17
   2      1.06593144    -0.27440442   -76.33865581     0.00025108    -0.00466680  0.14D-04  0.11D-03  2  2    23.30     4.16
   3      1.06714091    -0.27453864   -76.33879003    -0.00013422    -0.00081762  0.94D-05  0.72D-05  3  3    27.12     7.01
   4      1.06769643    -0.27456089   -76.33881227    -0.00002225    -0.00036122  0.47D-06  0.60D-06  4  4    30.92     6.32
   5      1.06779240    -0.27455938   -76.33881077     0.00000151    -0.00002186  0.15D-06  0.43D-07  5  5    34.73     5.88
   6      1.06781953    -0.27455799   -76.33880938     0.00000139    -0.00000416  0.15D-07  0.44D-08  6  6    38.54     5.59
   7      1.06782728    -0.27455758   -76.33880896     0.00000042    -0.00000170  0.13D-08  0.61D-09  6  1    42.33     5.38
   8      1.06782895    -0.27455757   -76.33880895     0.00000000    -0.00000013  0.20D-09  0.72D-10  6  2    46.12     5.23
   9      1.06782952    -0.27455758   -76.33880896    -0.00000001     0.00000005  0.17D-10  0.93D-11  6  3    49.94     5.11

 Norm of t1 vector:      0.03632735      S-energy:    -0.00000005      T1 diagnostic:  0.00908184
                                                                       D1 diagnostic:  0.01831304

 Adding energy correction from Wij-K(Fij), methodcc=6  factor= 1.0
 
  CCSD correlation energy              -0.274557580684
  MP2-F12 correction (uncoupled)       -0.024969874527
  C*T doubles correction               -0.000835785496
  f12b correction                       0.004278363677

 Total CPU time for triples:     21.43 sec

  Ecorr(MP2)                           -0.274545452322
  Ecorr(MP2-F12)                       -0.300637266164
  Scale factor for triples energy       1.095036408803


 RESULTS
 =======

  Reference energy                    -76.063275874437
  F12 singles correction               -0.000975508431

 F12 singles corrections added to reference energy

  New reference energy                -76.064251382868

  F12a singlet correction              -0.023103206008
  F12a triplet correction              -0.002702454016
  F12a total correction                -0.025805660024

 F12a corrections for ansatz F12/3C(FIX) added to CCSD energy
 
  CCSD-F12a singlet pair energy        -0.209522782560
  CCSD-F12a triplet pair energy        -0.090840406884
  CCSD-F12a correlation energy         -0.300363240708

  Triples (T) contribution (scaled)    -0.009753156233
  Total correlation energy             -0.310116396941

  CCSD-F12a total energy              -76.364614623576
  CCSD[T]-F12a energy                 -76.374704755507
  CCSD-T-F12a energy                  -76.374220889117
 !CCSD(T)-F12a total energy           -76.374367779809

 F12b corrections for ansatz F12/3C(FIX) added to CCSD(T)-F12a energy

  CCSD-F12b singlet pair energy        -0.205554690136
  CCSD-F12b triplet pair energy        -0.090530135631
  CCSD-F12b correlation energy         -0.296084877031

  Triples (T) contribution (scaled)    -0.009753156233
  Total correlation energy             -0.305838033264

  CCSD-F12b total energy              -76.360336259899
  CCSD[T]-F12b energy                 -76.370426391830
  CCSD-T-F12b energy                  -76.369942525440
 !CCSD(T)-F12b total energy           -76.370089416132

 Timing summary (sec):

 STEP                 CPU(USER)    SYS     CPU(TOT)    WALL
 Transformation          5.55      0.67      6.22      6.25
 CCSD iterations        34.01      2.98     36.99     46.11
 Triples                21.43      0.35     21.78     21.78
 MP2-F12                10.38      0.46     10.84     21.11
 F12b energy             3.32      0.27      3.59      3.66

 Program statistics:

 Available memory in ccsd:              2999999786
 Min. memory needed in ccsd:               1609972
 Max. memory used in ccsd:                 1864434
 Max. memory used in cckext:               1252381 (10 integral passes)



 **********************************************************************************************************************************
 DATASETS  * FILE   NREC   LENGTH (MB)   RECORD NAMES
              1      20     2032.50       500      610      700      900      950      970     1000      129      960     1100   
                                          VAR    BASINP    GEOM    SYMINP    ZMAT    AOBASIS   BASIS     P2S    ABASIS      S 
                                         1400     1410     1200     1210     1080     1600     1650     1300     1700     1380   
                                           T        V       H0       H01     AOSYM     SMH    MOLCAS    ERIS     OPER     JKOP   

              2       8       12.47       700     1000      520     2100     7360     7350     2101     2102   
                                         GEOM     BASIS   MCVARS     RHF    F12ABS    EF12      RHF      RHF  

 PROGRAMS   *        TOTAL   CCSD(T)        HF       INT   CCSD(T)        HF       INT   CCSD(T)        HF       INT
 CPU TIMES  *       515.11     74.74     24.97      0.06     78.80     20.35      0.06    275.56     24.96     15.48
 REAL TIME  *       677.10 SEC
 DISK USED  *         5.14 GB      
 **********************************************************************************************************************************
 SETTING E_F12_B(1)     =       -76.37436778  AU                              
 SETTING E_F12_B(2)     =       -76.37008942  AU                              
 SETTING E_INT_HF       =         0.00059934  AU                              
 SETTING E_INT_F12(1)   =        -0.00032190  AU                              
 SETTING E_INT_F12(2)   =        -0.00031356  AU                              
 E_INT_HF         =         0.00059934 AU
 E_INT_F12(1:2)   = [      -0.00032190    -0.00031356] AU

 CCSD(T)-F12/cc-pVTZ-F12 energy=    -76.370089416132

     CCSD(T)-F12        HF-SCF       CCSD(T)-F12        HF-SCF       CCSD(T)-F12        HF-SCF  
    -76.37008942    -76.06327587    -40.45406150    -40.21549151   -116.82446447   -116.27816804
 **********************************************************************************************************************************
 Molpro calculation terminated
 Variable memory released
