
 Primary working directories    : /net/scratch/people/plgsirous
 Secondary working directories  : /net/scratch/people/plgsirous
 Wavefunction directory         : /net/people/plgsirous/wfu/
 Main file repository           : /net/scratch/people/plgsirous/

 SHA1      : 
 NAME      : 
 ARCHNAME  : linux/x86_64
 FC        : /net/software/local/intel/impi/2018.1.163/bin64/mpiifort
 BLASLIB   : -L/net/software/local/intel/compilers_and_libraries_2018.1.163/linux/mkl/lib/intel64 -lmkl_scalapack_ilp64 -lmkl_intel_ilp64 -lmkl_intel_thread -lmkl_core -lmkl_blacs_intelmpi_ilp64 -liomp5 -lpthread -lm -ldl
 id        : pl

 Nodes     nprocs
 p1492        1

 Using customized tuning parameters: mindgm=7; mindgv=20; mindgc=1; mindgr=1; noblas=0; minvec=7
 default implementation of scratch files=df  

 memory,3000,m
 zsymel=nosym
 angstrom
 geometry={
 C1        -3.2772    1.4825     1.2719
 H1        -2.4640    0.8996     1.6510
 H2        -3.1608    2.5010     1.5785
 H3        -4.2018    1.0992     1.6501
 H4        -3.2685    1.4210     0.2037
 O1        -0.0699    -0.2262     2.8727
 H5        0.6354    -0.8159     3.1689
 H6        -0.9185    -0.7213     3.0725
 }
 basis=vtz-f12
 gthresh,orbital=1d-8,energy=1d-8,twoint=1.d-19
 
 
 nkerna=1
 nkernb=1
 nkernab=$nkerna+$nkernb
 
                                                                                 ! AB Dimer
 {hf,accu=1.d-8}
 E_HF_AB=energy
 core,$nkernab
 {ccsd(t)-f12,scale_trip=1,THRF12=1.d-12}
 E_F12_AB=energy
 
                                                                                 ! Monomer A Part
 
 dummy,6,7,8;
 {hf,accu=1.d-8}
 E_HF_A=energy
 core,$nkerna
 {ccsd(t)-f12,scale_trip=1,THRF12=1.d-12}
 E_F12_A=energy
 
                                                                                 ! Monomer B Part
 
 dummy,1,2,3,4,5;
 {hf,accu=1.d-8}
 E_HF_B=energy
 core,$nkernb
 {ccsd(t)-f12,scale_trip=1,THRF12=1.d-12}
 E_F12_B=energy
 
 E_int_HF = E_HF_AB-(E_HF_A+E_HF_B)
 E_int_F12 = E_F12_AB-(E_F12_A+E_F12_B)
 
 
 show,E_int_HF,E_int_F12

 Variables initialized (889), CPU time= 0.01 sec
 Commands  initialized (702), CPU time= 0.01 sec, 572 directives.
 Default parameters read. Elapsed time= 0.07 sec

 Checking input...
 Passed
1


                                         ***  PROGRAM SYSTEM MOLPRO  ***
                                       Copyright, TTI GmbH Stuttgart, 2015
                                    Version 2015.1 linked Jul  2 2018 15:03:07


 **********************************************************************************************************************************
 LABEL *                                                                                 
  64 bit serial version                                                                  DATE: 17-Jan-19          TIME: 14:53:01  
 **********************************************************************************************************************************

 SHA1:             
 **********************************************************************************************************************************
 SETTING ZSYMEL         =    NOSYM
 ZSYMEL=NOSYM
 ZUNIT=ANG
 

Geometry recognized as XYZ


 Variable memory set to 3000000000 words,  buffer space   230000 words

 SETTING BASIS          =    VTZ-F12

 THRESHOLDS:

 ZERO    =  1.00D-12  ONEINT  =  1.00D-12  TWOINT  =  1.00D-19  PREFAC  =  1.00D-14  LOCALI  =  1.00D-09  EORDER  =  1.00D-04
 ENERGY  =  1.00D-08  ETEST   =  0.00D+00  EDENS   =  0.00D+00  THRDEDEF=  1.00D-06  GRADIENT=  1.00D-02  STEP    =  1.00D-03
 ORBITAL =  1.00D-08  CIVEC   =  1.00D-05  COEFF   =  1.00D-04  PRINTCI =  5.00D-02  PUNCHCI =  9.90D+01  OPTGRAD =  3.00D-04
 OPTENERG=  1.00D-06  OPTSTEP =  3.00D-04  THRGRAD =  1.00D-10  COMPRESS=  1.00D-11  VARMIN  =  1.00D-07  VARMAX  =  1.00D-03
 THRDOUB =  0.00D+00  THRDIV  =  1.00D-05  THRRED  =  1.00D-07  THRPSP  =  1.00D+00  THRDC   =  1.00D-10  THRCS   =  1.00D-10
 THRNRM  =  1.00D-08  THREQ   =  0.00D+00  THRDE   =  1.00D+00  THRREF  =  1.00D-05  SPARFAC =  1.00D+00  THRDLP  =  1.00D-07
 THRDIA  =  1.00D-10  THRDLS  =  1.00D-07  THRGPS  =  0.00D+00  THRKEX  =  0.00D+00  THRDIS  =  2.00D-01  THRVAR  =  1.00D-10
 THRLOC  =  1.00D-06  THRGAP  =  1.00D-06  THRLOCT = -1.00D+00  THRGAPT = -1.00D+00  THRORB  =  1.00D-06  THRMLTP =  0.00D+00
 THRCPQCI=  1.00D-10  KEXTA   =  0.00D+00  THRCOARS=  0.00D+00  SYMTOL  =  1.00D-06  GRADTOL =  1.00D-06  THROVL  =  1.00D-08
 THRORTH =  1.00D-08  GRID    =  1.00D-06  GRIDMAX =  1.00D-03  DTMAX   =  0.00D+00  THROCCDE=  1.00D-01  THROCCDE=  1.00D-01


 SETTING NKERNA         =         1.00000000                                  
 SETTING NKERNB         =         1.00000000                                  
 SETTING NKERNAB        =         2.00000000                                  


 Recomputing integrals since basis changed


 Using spherical harmonics

 Library entry C      S cc-pVTZ-F12          selected for orbital group  1
 Library entry C      P cc-pVTZ-F12          selected for orbital group  1
 Library entry C      D cc-pVTZ-F12          selected for orbital group  1
 Library entry C      F cc-pVTZ-F12          selected for orbital group  1
 Library entry H      S cc-pVTZ-F12          selected for orbital group  2
 Library entry H      P cc-pVTZ-F12          selected for orbital group  2
 Library entry H      D cc-pVTZ-F12          selected for orbital group  2
 Library entry O      S cc-pVTZ-F12          selected for orbital group  3
 Library entry O      P cc-pVTZ-F12          selected for orbital group  3
 Library entry O      D cc-pVTZ-F12          selected for orbital group  3
 Library entry O      F cc-pVTZ-F12          selected for orbital group  3


 PROGRAM * SEWARD (Integral evaluation for generally contracted gaussian basis sets)     Author: Roland Lindh, 1990

 Geometry written to block  1 of record 700


 Point group  C1  



 ATOMIC COORDINATES

 NR  ATOM    CHARGE       X              Y              Z

   1  C1      6.00   -6.193010455    2.801518980    2.403542658
   2  H1      1.00   -4.656285171    1.699997622    3.119937832
   3  H2      1.00   -5.973046335    4.726205038    2.982932688
   4  H3      1.00   -7.940251230    2.077186956    3.118237078
   5  H4      1.00   -6.176569838    2.685300823    0.384937212
   6  O1      8.00   -0.132091856   -0.427456049    5.428616238
   7  H5      1.00    1.200731980   -1.541827545    5.988353116
   8  H6      1.00   -1.735713445   -1.363059454    5.806183518

 Bond lengths in Bohr (Angstrom)

 1-2  2.021904040  1-3  2.022002335  1-4  2.021953343  1-5  2.022015060  6-7  1.825253018
     ( 1.069945541)     ( 1.069997556)     ( 1.069971630)     ( 1.070004290)     ( 0.965882301)

 6-8  1.894601009
     ( 1.002579678)

 Bond angles

  2-1-3  109.53398059   2-1-4  109.65604535   2-1-5  108.43490854   3-1-4  109.49436728

  3-1-5  109.86987750   4-1-5  109.83468330   7-6-8  104.80057086

 NUCLEAR CHARGE:                   20
 NUMBER OF PRIMITIVE AOS:         270
 NUMBER OF SYMMETRY AOS:          246
 NUMBER OF CONTRACTIONS:          214   ( 214A   )
 NUMBER OF CORE ORBITALS:           2   (   2A   )
 NUMBER OF VALENCE ORBITALS:       14   (  14A   )


 NUCLEAR REPULSION ENERGY   35.86337232


 Eigenvalues of metric

         1 0.731E-04 0.176E-03 0.272E-03 0.333E-03 0.337E-03 0.417E-03 0.545E-03 0.553E-03


 Contracted 2-electron integrals neglected if value below      1.0D-19
 AO integral compression algorithm  1   Integral accuracy      1.0D-19

     2037.383 MB (compressed) written to integral file ( 83.6%)


 NUMBER OF SORTED TWO-ELECTRON INTEGRALS:  264626515.     BUFFER LENGTH:  32768
 NUMBER OF SEGMENTS:  17  SEGMENT LENGTH:   15999762      RECORD LENGTH: 524288

 Memory used in sort:      16.56 MW

 SORT1 READ   304636334. AND WROTE   243951560. INTEGRALS IN    707 RECORDS. CPU TIME:     3.22 SEC, REAL TIME:     9.22 SEC
 SORT2 READ   243951560. AND WROTE   264626515. INTEGRALS IN   7772 RECORDS. CPU TIME:     3.19 SEC, REAL TIME:     7.20 SEC

 FILE SIZES:   FILE 1:  2059.1 MBYTE,  FILE 4:  2965.4 MBYTE,   TOTAL:   5024.5 MBYTE

 OPERATOR DM      FOR CENTER  0  COORDINATES:    0.000000    0.000000    0.000000


 **********************************************************************************************************************************
 DATASETS  * FILE   NREC   LENGTH (MB)   RECORD NAMES
              1      19     1806.88       500      610      700      900      950      970     1000      129      960     1100   
                                          VAR    BASINP    GEOM    SYMINP    ZMAT    AOBASIS   BASIS     P2S    ABASIS      S 
                                         1400     1410     1200     1210     1080     1600     1650     1300     1700   
                                           T        V       H0       H01     AOSYM     SMH    MOLCAS    ERIS     OPER   

 PROGRAMS   *        TOTAL       INT
 CPU TIMES  *        15.64     15.51
 REAL TIME  *        43.88 SEC
 DISK USED  *         5.02 GB      
 **********************************************************************************************************************************


 PROGRAM * RHF-SCF (CLOSED SHELL)       Authors: W. Meyer, H.-J. Werner


 NUMBER OF ELECTRONS:      10+   10-    SPACE SYMMETRY=1    SPIN SYMMETRY: Singlet 
 CONVERGENCE THRESHOLDS:    1.00E-04 (Density)    1.00E-09 (Energy)
 MAX. NUMBER OF ITERATIONS:       60
 INTERPOLATION TYPE:            DIIS
 INTERPOLATION STEPS:              2 (START)      1 (STEP)
 LEVEL SHIFTS:                  0.00 (CLOSED)  0.00 (OPEN) 



 Orbital guess generated from atomic densities. Full valence occupancy:   16

 Molecular orbital dump at record        2100.2

 Initial occupancy:  10

 ITERATION    DDIFF          GRAD             ENERGY        2-EL.EN.            DIPOLE MOMENTS         DIIS   ORB.
    1      0.000D+00      0.000D+00      -116.21821753    157.395467   -0.14394   -1.05407    0.47949    0    start
    2      0.000D+00      0.548D-02      -116.26233433    152.395154   -0.02394   -0.59898    0.28085    1    diag
    3      0.562D-02      0.323D-02      -116.27604339    154.477679   -0.05307   -0.71572    0.33097    2    diag
    4      0.184D-02      0.480D-03      -116.27670877    154.362960   -0.05041   -0.70591    0.32613    3    diag
    5      0.422D-03      0.142D-03      -116.27677932    154.358990   -0.04955   -0.70536    0.32588    4    diag
    6      0.159D-03      0.343D-04      -116.27678329    154.364610   -0.04927   -0.70456    0.32547    5    diag
    7      0.407D-04      0.701D-05      -116.27678353    154.362978   -0.04923   -0.70453    0.32545    6    diag
    8      0.107D-04      0.179D-05      -116.27678355    154.363169   -0.04919   -0.70445    0.32541    7    diag
    9      0.298D-05      0.423D-06      -116.27678355    154.363140   -0.04917   -0.70443    0.32540    8    diag
   10      0.660D-06      0.490D-07      -116.27678355    154.363141   -0.04917   -0.70443    0.32540    9    orth
   11      0.120D-06      0.111D-07      -116.27678355    154.363143   -0.04917   -0.70443    0.32540    0    orth

 Final occupancy:  10

 !RHF STATE 1.1 Energy               -116.276783550861
 Nuclear energy                        35.86337232
 One-electron energy                 -229.32172744
 Two-electron energy                   77.18157157
 Virial quotient                       -1.00082511
 !RHF STATE 1.1 Dipole moment          -0.04917214    -0.70442575     0.32540051
 Dipole moment /Debye                  -0.12497493    -1.79035439     0.82703142

 Orbital energies:

         1.1          2.1          3.1          4.1          5.1          6.1          7.1          8.1          9.1         10.1
    -20.570412   -11.191304    -1.340824    -0.945942    -0.705624    -0.580724    -0.547059    -0.545421    -0.542530    -0.509451

        11.1         12.1
      0.058194     0.069226

 HOMO     10.1    -0.509451 =     -13.8629eV
 LUMO     11.1     0.058194 =       1.5835eV
 LUMO-HOMO         0.567645 =      15.4464eV


 **********************************************************************************************************************************
 DATASETS  * FILE   NREC   LENGTH (MB)   RECORD NAMES
              1      19     1806.88       500      610      700      900      950      970     1000      129      960     1100   
                                          VAR    BASINP    GEOM    SYMINP    ZMAT    AOBASIS   BASIS     P2S    ABASIS      S 
                                         1400     1410     1200     1210     1080     1600     1650     1300     1700   
                                           T        V       H0       H01     AOSYM     SMH    MOLCAS    ERIS     OPER   

              2       4        3.81       700     1000      520     2100   
                                         GEOM     BASIS   MCVARS     RHF  

 PROGRAMS   *        TOTAL        HF       INT
 CPU TIMES  *        42.87     27.23     15.51
 REAL TIME  *        75.19 SEC
 DISK USED  *         5.02 GB      
 **********************************************************************************************************************************
 SETTING E_HF_AB        =      -116.27678355  AU                              


 PROGRAM * CCSD (Closed-shell coupled cluster)     Authors: C. Hampel, H.-J. Werner, 1991, M. Deegan, P.J. Knowles, 1992

                                  CCSD-F12 implementation by  H.-J. Werner, 2007

                   Density fitting integral evaluation by F.R. Manby, 2003,2007, G. Knizia, 2010

 Basis set CC-PVTZ/JKFIT generated.      Number of basis functions:   338 
 Basis set CC-PVTZ-F12/OPTRI generated.  Number of basis functions:   396 
 Basis set AUG-CC-PVTZ/MP2FIT generated. Number of basis functions:   488 

 Convergence thresholds:  THRVAR = 1.00D-08  THRDEN = 1.00D-08

 CCSD(T)     terms to be evaluated (factor= 1.000)


 Number of core orbitals:           2 (   2 )
 Number of closed-shell orbitals:   8 (   8 )
 Number of external orbitals:     204 ( 204 )

 Molecular orbitals read from record     2100.2  Type=RHF/CANONICAL (state 1.1)

 MP2-F12 correlation treatment (H.-J. Werner, 2006)
 ==================================================

 Using MP2-F12 with ansatz 3C(FIX)

 Using projected zeroth-order Hamiltonian (+Z)

 FOCKRIB=T FOCKRIC=T FOCKRIP=T CABSP=T CABSA=T CABSK=T CABSF=T GBC=F EBC=F DMAT=T NOFIK=T NOPAO=1 SOLVE=-1  USEPAO=0
 EXCH_A= T EXCH_B= F EXCH_C= F EXCH_P= F
 
 Geminal basis:    OPTFULL  GEM_TYPE=SLATER  BETA=1.0  NGEM=6

 Optimizing Gaussian exponents for each gem_beta

 Geminal optimization for beta= 1.0000
 Weight function:   m=0, omega= 1.4646

 Augmented Hessian optimization of geminal fit. Trust ratio= 0.40000
 Convergence reached after   2 iterations. Final gradient= 8.26D-16, Step= 4.26D-06, Delta= 1.28D-09
 
 Alpha:                 0.19532     0.81920     2.85917     9.50073    35.69989   197.79328
 Coeff:                 0.27070     0.30552     0.18297     0.10986     0.06810     0.04224
 

 All pairs explicitly correlated. Number of r12-pairs:           36

 Excluding core orbitals from MO domains
 
 AO(A)-basis ORBITAL           loaded. Number of functions:     214
 RI(R)-basis CC-PVTZ-F12/OPTRI loaded. Number of functions:     396
 DF-basis CC-PVTZ/JKFIT        loaded. Number of functions:     338

 Screening thresholds:   THRAO=  1.00D-10  THRMO=  1.00D-09  THRPROD=  1.00D-09
                         THRSW=  1.00D-05  THROV=  1.00D-12  THRAOF12=   1.00D-08

 CPU time for Fock operators                      2.82 sec
 
 Construction of ABS:
 Smallest eigenvalue of S          3.25E-04  (threshold= 1.00E-08)
 Ratio eigmin/eigmax               4.18E-05  (threshold= 1.00E-09)
 Smallest eigenvalue of S kept     3.25E-04  (threshold= 3.25E-04, 0 functions deleted, 396 kept)
 
 Construction of CABS:
 Smallest eigenvalue of S          7.81E-07  (threshold= 1.00E-08)
 Ratio eigmin/eigmax               7.81E-07  (threshold= 1.00E-09)
 Smallest eigenvalue of S kept     7.81E-07  (threshold= 7.81E-07, 0 functions deleted, 396 kept)
 
 CPU time for CABS singles                        0.11 sec

 CABS-singles contribution of  -0.00159604 patched into reference energy.
 New reference energy        -116.27837959
 
 AO(A)-basis ORBITAL           loaded. Number of functions:     214
 RI(R)-basis CC-PVTZ-F12/OPTRI loaded. Number of functions:     396
 DF-basis AUG-CC-PVTZ/MP2FIT   loaded. Number of functions:     488

 Screening thresholds:   THRAO=  1.00D-10  THRMO=  1.00D-09  THRPROD=  1.00D-09
                         THRSW=  1.00D-05  THROV=  1.00D-12  THRAOF12=   1.00D-08

 CPU time for 3-index integral evaluation         5.68 sec
 CPU time for first  half transformation          0.50 sec (10299.5 MFLOP/sec)
 CPU time for sorting                             0.02 sec
 CPU time for fitting                             0.06 sec (40643.2 MFLOP/sec)
 CPU time for tilde quantities                    0.09 sec (35732.2 MFLOP/sec)
 CPU time for assembly                            0.83 sec (36070.5 MFLOP/sec)
 CPU time for tranop_f12                          1.10 sec (35210.7 MFLOP/sec)
 CPU time for f12 integrals (total)               9.69 sec, Elapsed time:    110.08 sec
 CPU time for f12 matrices (total)                0.34 sec, Elapsed time:      0.41 sec

 Diagonal F12 approximation with fixed coefficients:  TSING= 0.500,  TTRIP= 0.250 (scaled by -1/beta)

 DF-MP2-F12 energy corrections:
 ==============================
 Approx.                                    Singlet             Triplet             Total
 DF-MP2-F12/3*C(DX,FIX)                -0.041395253704     -0.004142785999     -0.045538039703
 DF-MP2-F12/3*C(FIX)                   -0.039270220342     -0.003871965225     -0.043142185568
 DF-MP2-F12/3C(FIX)                    -0.039130310896     -0.003978797130     -0.043109108026

 DF-MP2-F12 correlation energies:
 ================================
 Approx.                                    Singlet             Triplet             Ecorr            Total Energy
 DF-MP2                                -0.321035062465     -0.156225448140     -0.477260510605   -116.755640097403
 DF-MP2-F12/3*C(DX,FIX)                -0.362430316169     -0.160368234139     -0.522798550308   -116.801178137107
 DF-MP2-F12/3*C(FIX)                   -0.360305282807     -0.160097413365     -0.520402696172   -116.798782282971
 DF-MP2-F12/3C(FIX)                    -0.360165373361     -0.160204245270     -0.520369618631   -116.798749205430

 SCS-DF-MP2 energies (F_SING= 1.20000  F_TRIP= 0.62222  F_PARALLEL= 0.33333):
 ============================================================================
 SCS-DF-MP2                            -0.482449020467   -116.760828607266
 SCS-DF-MP2-F12/3*C(DX,FIX)            -0.534701058423   -116.813080645221
 SCS-DF-MP2-F12/3*C(FIX)               -0.531982507685   -116.810362094484
 SCS-DF-MP2-F12/3C(FIX)                -0.531881089535   -116.810260676334
 Symmetry transformation completed.

 Number of N-1 electron functions:               8
 Number of N-2 electron functions:              36
 Number of singly external CSFs:              1632
 Number of doubly external CSFs:           1332528
 Total number of CSFs:                     1334161

 Length of J-op  integral file:             205.73 MB
 Length of K-op  integral file:             258.78 MB
 Length of 3-ext integral record:             0.00 MB

 Memory could be reduced to 93.27 Mwords without degradation in triples

 Integral transformation finished. Total CPU:   9.30 sec, npass=  1  Memory used:  48.07 MW

 Reference energy:                   -116.27837959

 Adding F12 terms to K(Cij), methodcc=6,  factor= 1.0

 ITER.      SQ.NORM     CORR.ENERGY   TOTAL ENERGY   ENERGY CHANGE        DEN1      VAR(S)    VAR(P)  DIIS     TIME  TIME/IT
   1      1.13290201    -0.49237774  -116.77075733    -0.01504073    -0.00344717  0.14D-02  0.20D-02  1  1    31.07     9.50
   2      1.14093282    -0.49294309  -116.77132268    -0.00056535    -0.00963819  0.29D-04  0.23D-03  2  2    39.70     9.30
   3      1.14397155    -0.49319970  -116.77157928    -0.00025660    -0.00215522  0.12D-04  0.14D-04  3  3    48.31     9.22
   4      1.14495729    -0.49323293  -116.77161252    -0.00003323    -0.00061188  0.60D-06  0.11D-05  4  4    56.91     9.19
   5      1.14511615    -0.49323217  -116.77161176     0.00000076    -0.00003026  0.16D-06  0.64D-07  5  5    65.47     9.16
   6      1.14515054    -0.49323000  -116.77160959     0.00000217    -0.00000675  0.14D-07  0.68D-08  6  6    74.10     9.17
   7      1.14515845    -0.49322934  -116.77160893     0.00000066    -0.00000235  0.21D-08  0.60D-09  6  2    82.71     9.16
   8      1.14516127    -0.49322921  -116.77160880     0.00000013    -0.00000057  0.19D-09  0.60D-10  6  1    91.35     9.15
   9      1.14516188    -0.49322922  -116.77160881    -0.00000001    -0.00000001  0.15D-10  0.11D-10  6  3    99.97     9.14
  10      1.14516197    -0.49322923  -116.77160882    -0.00000001     0.00000009  0.21D-11  0.13D-11  6  4   108.55     9.13
  11      1.14516195    -0.49322924  -116.77160882    -0.00000000     0.00000007  0.32D-12  0.15D-12  6  5   117.17     9.13
  12      1.14516192    -0.49322924  -116.77160882    -0.00000000     0.00000002  0.66D-13  0.19D-13  6  6   125.82     9.13

 Norm of t1 vector:      0.04929607      S-energy:     0.00000001      T1 diagnostic:  0.00871440
                                                                       D1 diagnostic:  0.01867081

 Adding energy correction from Wij-K(Fij), methodcc=6  factor= 1.0
 
  CCSD correlation energy              -0.493229237895
  MP2-F12 correction (uncoupled)       -0.041688002881
  C*T doubles correction               -0.001125168808
  f12b correction                       0.007814830650


 Total CPU time for triples:    153.14 sec

  Ecorr(MP2)                           -0.477337010127
  Ecorr(MP2-F12)                       -0.520446118153
  Scale factor for triples energy       1.090311681499


 RESULTS
 =======

  Reference energy                   -116.276783550862
  F12 singles correction               -0.001596035937

 F12 singles corrections added to reference energy

  New reference energy               -116.278379586799

  F12a singlet correction              -0.038955271074
  F12a triplet correction              -0.003857900614
  F12a total correction                -0.042813171689

 F12a corrections for ansatz F12/3C(FIX) added to CCSD energy
 
  CCSD-F12a singlet pair energy        -0.389403496104
  CCSD-F12a triplet pair energy        -0.146638919589
  CCSD-F12a correlation energy         -0.536042409584

  Triples (T) contribution (scaled)    -0.016944718498
  Total correlation energy             -0.552987128082

  CCSD-F12a total energy             -116.814421996382
  CCSD[T]-F12a energy                -116.831953448322
  CCSD-T-F12a energy                 -116.831141319064
 !CCSD(T)-F12a total energy          -116.831366714881

 F12b corrections for ansatz F12/3C(FIX) added to CCSD(T)-F12a energy

  CCSD-F12b singlet pair energy        -0.382054811463
  CCSD-F12b triplet pair energy        -0.146172773581
  CCSD-F12b correlation energy         -0.528227578934

  Triples (T) contribution (scaled)    -0.016944718498
  Total correlation energy             -0.545172297432

  CCSD-F12b total energy             -116.806607165732
  CCSD[T]-F12b energy                -116.824138617672
  CCSD-T-F12b energy                 -116.823326488415
 !CCSD(T)-F12b total energy          -116.823551884231

 Timing summary (sec):

 STEP                 CPU(USER)    SYS     CPU(TOT)    WALL
 Transformation          9.41      1.06     10.47     10.70
 CCSD iterations       103.27      6.00    109.27    109.66
 Triples               153.14      2.51    155.65    155.70
 MP2-F12                13.16      1.36     14.52    118.87
 F12b energy             6.89      0.29      7.18      7.20

 Program statistics:

 Available memory in ccsd:              2999999464
 Min. memory needed in ccsd:               3963025
 Max. memory used in ccsd:                 5096465
 Max. memory used in cckext:               3666031 (13 integral passes)



 **********************************************************************************************************************************
 DATASETS  * FILE   NREC   LENGTH (MB)   RECORD NAMES
              1      20     2100.44       500      610      700      900      950      970     1000      129      960     1100   
                                          VAR    BASINP    GEOM    SYMINP    ZMAT    AOBASIS   BASIS     P2S    ABASIS      S 
                                         1400     1410     1200     1210     1080     1600     1650     1300     1700     1380   
                                           T        V       H0       H01     AOSYM     SMH    MOLCAS    ERIS     OPER     JKOP   

              2       6        4.74       700     1000      520     2100     7360     7350   
                                         GEOM     BASIS   MCVARS     RHF    F12ABS    EF12   

 PROGRAMS   *        TOTAL   CCSD(T)        HF       INT
 CPU TIMES  *       328.78    285.91     27.23     15.51
 REAL TIME  *       477.47 SEC
 DISK USED  *         5.02 GB      
 **********************************************************************************************************************************
 SETTING E_F12_AB(1)    =      -116.83136671  AU                              
 SETTING E_F12_AB(2)    =      -116.82355188  AU                              

 Dummy atoms: O1  H5  H6


 Recomputing one-electron integrals since nuclear charges changed


 PROGRAM * SEWARD (Integral evaluation for generally contracted gaussian basis sets)     Author: Roland Lindh, 1990

 Geometry written to block  1 of record 700


 Point group  C1  



 ATOMIC COORDINATES

 NR  ATOM    CHARGE       X              Y              Z

   1  C1      6.00   -6.193010455    2.801518980    2.403542658
   2  H1      1.00   -4.656285171    1.699997622    3.119937832
   3  H2      1.00   -5.973046335    4.726205038    2.982932688
   4  H3      1.00   -7.940251230    2.077186956    3.118237078
   5  H4      1.00   -6.176569838    2.685300823    0.384937212
   6  O1      0.00   -0.132091856   -0.427456049    5.428616238
   7  H5      0.00    1.200731980   -1.541827545    5.988353116
   8  H6      0.00   -1.735713445   -1.363059454    5.806183518

 Bond lengths in Bohr (Angstrom)

 1-2  2.021904040  1-3  2.022002335  1-4  2.021953343  1-5  2.022015060  6-7  1.825253018
     ( 1.069945541)     ( 1.069997556)     ( 1.069971630)     ( 1.070004290)     ( 0.965882301)

 6-8  1.894601009
     ( 1.002579678)

 Bond angles

  2-1-3  109.53398059   2-1-4  109.65604535   2-1-5  108.43490854   3-1-4  109.49436728

  3-1-5  109.86987750   4-1-5  109.83468330   7-6-8  104.80057086

 NUCLEAR CHARGE:                   10
 NUMBER OF PRIMITIVE AOS:         270
 NUMBER OF SYMMETRY AOS:          246
 NUMBER OF CONTRACTIONS:          214   ( 214A   )
 NUMBER OF CORE ORBITALS:           1   (   1A   )
 NUMBER OF VALENCE ORBITALS:        8   (   8A   )

 MOLECULE CHANGED: INITIALIZING OCCUPATION AND DUMP RECORDS


 NUCLEAR REPULSION ENERGY   13.68681606


 Eigenvalues of metric

         1 0.731E-04 0.176E-03 0.272E-03 0.333E-03 0.337E-03 0.417E-03 0.545E-03 0.553E-03


 Contracted 2-electron integrals neglected if value below      1.0D-19

 OPERATOR DM      FOR CENTER  0  COORDINATES:    0.000000    0.000000    0.000000


 **********************************************************************************************************************************
 DATASETS  * FILE   NREC   LENGTH (MB)   RECORD NAMES
              1      19     1806.88       500      610      700      900      950      970     1000      129      960     1100   
                                          VAR    BASINP    GEOM    SYMINP    ZMAT    AOBASIS   BASIS     P2S    ABASIS      S 
                                         1400     1410     1200     1210     1080     1600     1650     1300     1700   
                                           T        V       H0       H01     AOSYM     SMH    MOLCAS    ERIS     OPER   

              2       6        4.74       700     1000      520     2100     7360     7350   
                                         GEOM     BASIS   MCVARS     RHF    F12ABS    EF12   

 PROGRAMS   *        TOTAL       INT   CCSD(T)        HF       INT
 CPU TIMES  *       328.85      0.06    285.91     27.23     15.51
 REAL TIME  *       494.45 SEC
 DISK USED  *         5.02 GB      
 **********************************************************************************************************************************


 PROGRAM * RHF-SCF (CLOSED SHELL)       Authors: W. Meyer, H.-J. Werner


 NUMBER OF ELECTRONS:       5+    5-    SPACE SYMMETRY=1    SPIN SYMMETRY: Singlet 
 CONVERGENCE THRESHOLDS:    1.00E-04 (Density)    1.00E-09 (Energy)
 MAX. NUMBER OF ITERATIONS:       60
 INTERPOLATION TYPE:            DIIS
 INTERPOLATION STEPS:              2 (START)      1 (STEP)
 LEVEL SHIFTS:                  0.00 (CLOSED)  0.00 (OPEN) 



 Orbital guess generated from atomic densities. Full valence occupancy:    9

 Molecular orbital dump at record        2101.2

 Initial occupancy:   5

 ITERATION    DDIFF          GRAD             ENERGY        2-EL.EN.            DIPOLE MOMENTS         DIIS   ORB.
    1      0.000D+00      0.000D+00       -40.19565467     53.501369    0.00405   -0.00267   -0.00128    0    start
    2      0.000D+00      0.368D-02       -40.21289968     52.216630    0.00122   -0.00076   -0.00034    1    diag
    3      0.319D-02      0.143D-02       -40.21516856     52.670295    0.00175   -0.00111   -0.00050    2    diag
    4      0.859D-03      0.357D-03       -40.21548679     52.615348    0.00155   -0.00097   -0.00043    3    diag
    5      0.333D-03      0.463D-04       -40.21549226     52.617502    0.00152   -0.00095   -0.00041    4    diag
    6      0.588D-04      0.375D-05       -40.21549230     52.617647    0.00152   -0.00094   -0.00041    5    diag
    7      0.864D-05      0.303D-06       -40.21549230     52.617607    0.00152   -0.00094   -0.00041    6    diag
    8      0.924D-06      0.229D-07       -40.21549230     52.617608    0.00152   -0.00094   -0.00041    0    orth

 Final occupancy:   5

 !RHF STATE 1.1 Energy                -40.215492301911
 Nuclear energy                        13.68681606
 One-electron energy                  -80.21111241
 Two-electron energy                   26.30880405
 Virial quotient                       -0.99832354
 !RHF STATE 1.1 Dipole moment           0.00151568    -0.00094362    -0.00041352
 Dipole moment /Debye                   0.00385223    -0.00239829    -0.00105098

 Orbital energies:

         1.1          2.1          3.1          4.1          5.1          6.1          7.1
    -11.196271    -0.950713    -0.551938    -0.550004    -0.547827     0.052339     0.066534

 HOMO      5.1    -0.547827 =     -14.9071eV
 LUMO      6.1     0.052339 =       1.4242eV
 LUMO-HOMO         0.600166 =      16.3313eV


 **********************************************************************************************************************************
 DATASETS  * FILE   NREC   LENGTH (MB)   RECORD NAMES
              1      19     1806.88       500      610      700      900      950      970     1000      129      960     1100   
                                          VAR    BASINP    GEOM    SYMINP    ZMAT    AOBASIS   BASIS     P2S    ABASIS      S 
                                         1400     1410     1200     1210     1080     1600     1650     1300     1700   
                                           T        V       H0       H01     AOSYM     SMH    MOLCAS    ERIS     OPER   

              2       7        8.14       700     1000      520     2100     7360     7350     2101   
                                         GEOM     BASIS   MCVARS     RHF    F12ABS    EF12      RHF  

 PROGRAMS   *        TOTAL        HF       INT   CCSD(T)        HF       INT
 CPU TIMES  *       349.27     20.42      0.06    285.91     27.23     15.51
 REAL TIME  *       523.48 SEC
 DISK USED  *         5.02 GB      
 **********************************************************************************************************************************
 SETTING E_HF_A         =       -40.21549230  AU                              


 PROGRAM * CCSD (Closed-shell coupled cluster)     Authors: C. Hampel, H.-J. Werner, 1991, M. Deegan, P.J. Knowles, 1992

                                  CCSD-F12 implementation by  H.-J. Werner, 2007

                   Density fitting integral evaluation by F.R. Manby, 2003,2007, G. Knizia, 2010

 Basis set CC-PVTZ/JKFIT generated.      Number of basis functions:   338 
 Basis set CC-PVTZ-F12/OPTRI generated.  Number of basis functions:   396 
 Basis set AUG-CC-PVTZ/MP2FIT generated. Number of basis functions:   488 

 Convergence thresholds:  THRVAR = 1.00D-08  THRDEN = 1.00D-08

 CCSD(T)     terms to be evaluated (factor= 1.000)


 Number of core orbitals:           1 (   1 )
 Number of closed-shell orbitals:   4 (   4 )
 Number of external orbitals:     209 ( 209 )

 Molecular orbitals read from record     2101.2  Type=RHF/CANONICAL (state 1.1)

 MP2-F12 correlation treatment (H.-J. Werner, 2006)
 ==================================================

 Using MP2-F12 with ansatz 3C(FIX)

 Using projected zeroth-order Hamiltonian (+Z)

 FOCKRIB=T FOCKRIC=T FOCKRIP=T CABSP=T CABSA=T CABSK=T CABSF=T GBC=F EBC=F DMAT=T NOFIK=T NOPAO=1 SOLVE=-1  USEPAO=0
 EXCH_A= T EXCH_B= F EXCH_C= F EXCH_P= F
 
 Geminal basis:    OPTFULL  GEM_TYPE=SLATER  BETA=1.0  NGEM=6

 Optimizing Gaussian exponents for each gem_beta

 Geminal optimization for beta= 1.0000
 Weight function:   m=0, omega= 1.4646

 Augmented Hessian optimization of geminal fit. Trust ratio= 0.40000
 Convergence reached after   2 iterations. Final gradient= 8.26D-16, Step= 4.26D-06, Delta= 1.28D-09
 
 Alpha:                 0.19532     0.81920     2.85917     9.50073    35.69989   197.79328
 Coeff:                 0.27070     0.30552     0.18297     0.10986     0.06810     0.04224
 

 All pairs explicitly correlated. Number of r12-pairs:           10

 Excluding core orbitals from MO domains
 
 AO(A)-basis ORBITAL           loaded. Number of functions:     214
 RI(R)-basis CC-PVTZ-F12/OPTRI loaded. Number of functions:     396
 DF-basis CC-PVTZ/JKFIT        loaded. Number of functions:     338

 Screening thresholds:   THRAO=  1.00D-10  THRMO=  1.00D-09  THRPROD=  1.00D-09
                         THRSW=  1.00D-05  THROV=  1.00D-12  THRAOF12=   1.00D-08

 CPU time for Fock operators                      2.70 sec
 
 Construction of ABS:
 Smallest eigenvalue of S          3.25E-04  (threshold= 1.00E-08)
 Ratio eigmin/eigmax               4.18E-05  (threshold= 1.00E-09)
 Smallest eigenvalue of S kept     3.25E-04  (threshold= 3.25E-04, 0 functions deleted, 396 kept)
 
 Construction of CABS:
 Smallest eigenvalue of S          7.81E-07  (threshold= 1.00E-08)
 Ratio eigmin/eigmax               7.81E-07  (threshold= 1.00E-09)
 Smallest eigenvalue of S kept     7.81E-07  (threshold= 7.81E-07, 0 functions deleted, 396 kept)
 
 CPU time for CABS singles                        0.11 sec

 CABS-singles contribution of  -0.00063576 patched into reference energy.
 New reference energy         -40.21612806
 
 AO(A)-basis ORBITAL           loaded. Number of functions:     214
 RI(R)-basis CC-PVTZ-F12/OPTRI loaded. Number of functions:     396
 DF-basis AUG-CC-PVTZ/MP2FIT   loaded. Number of functions:     488

 Screening thresholds:   THRAO=  1.00D-10  THRMO=  1.00D-09  THRPROD=  1.00D-09
                         THRSW=  1.00D-05  THROV=  1.00D-12  THRAOF12=   1.00D-08

 CPU time for 3-index integral evaluation         5.73 sec
 CPU time for first  half transformation          0.43 sec ( 5988.1 MFLOP/sec)
 CPU time for second half transformation          0.03 sec (  974.7 MFLOP/sec)
 CPU time for fitting                             0.03 sec (39690.7 MFLOP/sec)
 CPU time for tilde quantities                    0.04 sec (39722.4 MFLOP/sec)
 CPU time for assembly                            0.22 sec (36254.9 MFLOP/sec)
 CPU time for tranop_f12                          0.26 sec (36852.4 MFLOP/sec)
 CPU time for f12 integrals (total)               7.20 sec, Elapsed time:      7.67 sec
 CPU time for f12 matrices (total)                0.07 sec, Elapsed time:      0.09 sec

 Diagonal F12 approximation with fixed coefficients:  TSING= 0.500,  TTRIP= 0.250 (scaled by -1/beta)

 DF-MP2-F12 energy corrections:
 ==============================
 Approx.                                    Singlet             Triplet             Total
 DF-MP2-F12/3*C(DX,FIX)                -0.016287078661     -0.001139757441     -0.017426836102
 DF-MP2-F12/3*C(FIX)                   -0.015926009236     -0.001149571131     -0.017075580367
 DF-MP2-F12/3C(FIX)                    -0.015857340274     -0.001156635783     -0.017013976057

 DF-MP2-F12 correlation energies:
 ================================
 Approx.                                    Singlet             Triplet             Ecorr            Total Energy
 DF-MP2                                -0.145615898459     -0.055805284410     -0.201421182869    -40.417549243493
 DF-MP2-F12/3*C(DX,FIX)                -0.161902977121     -0.056945041851     -0.218848018971    -40.434976079595
 DF-MP2-F12/3*C(FIX)                   -0.161541907695     -0.056954855541     -0.218496763236    -40.434624823860
 DF-MP2-F12/3C(FIX)                    -0.161473238733     -0.056961920193     -0.218435158926    -40.434563219550

 SCS-DF-MP2 energies (F_SING= 1.20000  F_TRIP= 0.62222  F_PARALLEL= 0.33333):
 ============================================================================
 SCS-DF-MP2                            -0.209462366229    -40.425590426852
 SCS-DF-MP2-F12/3*C(DX,FIX)            -0.229716043029    -40.445844103653
 SCS-DF-MP2-F12/3*C(FIX)               -0.229288866015    -40.445416926639
 SCS-DF-MP2-F12/3C(FIX)                -0.229210859044    -40.445338919668
 Symmetry transformation completed.

 Number of N-1 electron functions:               4
 Number of N-2 electron functions:              10
 Number of singly external CSFs:               836
 Number of doubly external CSFs:            349866
 Total number of CSFs:                      350703

 Length of J-op  integral file:              53.89 MB
 Length of K-op  integral file:              87.81 MB
 Length of 3-ext integral record:             0.00 MB

 Memory could be reduced to 60.96 Mwords without degradation in triples

 Integral transformation finished. Total CPU:   5.53 sec, npass=  1  Memory used:  26.32 MW

 Reference energy:                    -40.21612806

 Adding F12 terms to K(Cij), methodcc=6,  factor= 1.0

 ITER.      SQ.NORM     CORR.ENERGY   TOTAL ENERGY   ENERGY CHANGE        DEN1      VAR(S)    VAR(P)  DIIS     TIME  TIME/IT
   1      1.06960504    -0.21652247   -40.43265053    -0.01506667    -0.00954158  0.62D-03  0.94D-03  1  1    19.47     3.84
   2      1.07445986    -0.21733903   -40.43346709    -0.00081656    -0.00516282  0.14D-04  0.90D-04  2  2    23.28     4.00
   3      1.07598144    -0.21745040   -40.43357846    -0.00011137    -0.00108964  0.20D-05  0.57D-05  3  3    27.09     4.04
   4      1.07635072    -0.21746493   -40.43359299    -0.00001453    -0.00020078  0.12D-06  0.31D-06  4  4    30.91     4.07
   5      1.07640260    -0.21746456   -40.43359262     0.00000037    -0.00000934  0.77D-08  0.15D-07  5  5    34.75     4.08
   6      1.07640890    -0.21746331   -40.43359137     0.00000125    -0.00000294  0.32D-09  0.86D-09  6  6    38.60     4.09
   7      1.07640965    -0.21746323   -40.43359129     0.00000007    -0.00000042  0.21D-10  0.68D-10  6  1    42.43     4.57
   8      1.07640973    -0.21746326   -40.43359132    -0.00000003     0.00000002  0.28D-11  0.60D-11  6  2    46.26     4.52
   9      1.07640973    -0.21746327   -40.43359133    -0.00000001     0.00000003  0.21D-12  0.35D-12  6  3    50.06     5.22
  10      1.07640973    -0.21746327   -40.43359133    -0.00000000     0.00000001  0.24D-13  0.33D-13  6  4    53.88     5.11

 Norm of t1 vector:      0.03261006      S-energy:    -0.00000000      T1 diagnostic:  0.00815251
                                                                       D1 diagnostic:  0.01307441

 Adding energy correction from Wij-K(Fij), methodcc=6  factor= 1.0
 
  CCSD correlation energy              -0.217463265668
  MP2-F12 correction (uncoupled)       -0.016716621602
  C*T doubles correction               -0.000289594502
  f12b correction                       0.003525371686


 Total CPU time for triples:     21.74 sec

  Ecorr(MP2)                           -0.201455796828
  Ecorr(MP2-F12)                       -0.218469772884
  Scale factor for triples energy       1.084455132712


 RESULTS
 =======

  Reference energy                    -40.215492301911
  F12 singles correction               -0.000635758712

 F12 singles corrections added to reference energy

  New reference energy                -40.216128060624

  F12a singlet correction              -0.015861983306
  F12a triplet correction              -0.001144232799
  F12a total correction                -0.017006216105

 F12a corrections for ansatz F12/3C(FIX) added to CCSD energy
 
  CCSD-F12a singlet pair energy        -0.179253398701
  CCSD-F12a triplet pair energy        -0.055216082684
  CCSD-F12a correlation energy         -0.234469481773

  Triples (T) contribution (scaled)    -0.006988650698
  Total correlation energy             -0.241458132471

  CCSD-F12a total energy              -40.450597542397
  CCSD[T]-F12a energy                 -40.457827643121
  CCSD-T-F12a energy                  -40.457512827197
 !CCSD(T)-F12a total energy           -40.457586193095

 F12b corrections for ansatz F12/3C(FIX) added to CCSD(T)-F12a energy

  CCSD-F12b singlet pair energy        -0.175882823359
  CCSD-F12b triplet pair energy        -0.055061286340
  CCSD-F12b correlation energy         -0.230944110087

  Triples (T) contribution (scaled)    -0.006988650698
  Total correlation energy             -0.237932760786

  CCSD-F12b total energy              -40.447072170711
  CCSD[T]-F12b energy                 -40.454302271435
  CCSD-T-F12b energy                  -40.453987455512
 !CCSD(T)-F12b total energy           -40.454060821409

 Timing summary (sec):

 STEP                 CPU(USER)    SYS     CPU(TOT)    WALL
 Transformation          5.57      0.67      6.24     27.27
 CCSD iterations        38.08      3.16     41.24     51.20
 Triples                21.74      0.35     22.09     22.09
 MP2-F12                10.24      0.43     10.67     20.87
 F12b energy             3.33      0.28      3.61      3.64

 Program statistics:

 Available memory in ccsd:              2999999786
 Min. memory needed in ccsd:               1609972
 Max. memory used in ccsd:                 1864434
 Max. memory used in cckext:               1252381 (11 integral passes)



 **********************************************************************************************************************************
 DATASETS  * FILE   NREC   LENGTH (MB)   RECORD NAMES
              1      20     1959.89       500      610      700      900      950      970     1000      129      960     1100   
                                          VAR    BASINP    GEOM    SYMINP    ZMAT    AOBASIS   BASIS     P2S    ABASIS      S 
                                         1400     1410     1200     1210     1080     1600     1650     1300     1700     1380   
                                           T        V       H0       H01     AOSYM     SMH    MOLCAS    ERIS     OPER     JKOP   

              2       7        8.14       700     1000      520     2100     7360     7350     2101   
                                         GEOM     BASIS   MCVARS     RHF    F12ABS    EF12      RHF  

 PROGRAMS   *        TOTAL   CCSD(T)        HF       INT   CCSD(T)        HF       INT
 CPU TIMES  *       428.26     78.99     20.42      0.06    285.91     27.23     15.51
 REAL TIME  *       648.69 SEC
 DISK USED  *         5.02 GB      
 **********************************************************************************************************************************
 SETTING E_F12_A(1)     =       -40.45758619  AU                              
 SETTING E_F12_A(2)     =       -40.45406082  AU                              

 Dummy atoms: C1  H1  H2  H3  H4


 Recomputing one-electron integrals since nuclear charges changed


 PROGRAM * SEWARD (Integral evaluation for generally contracted gaussian basis sets)     Author: Roland Lindh, 1990

 Geometry written to block  1 of record 700


 Point group  C1  



 ATOMIC COORDINATES

 NR  ATOM    CHARGE       X              Y              Z

   1  C1      0.00   -6.193010455    2.801518980    2.403542658
   2  H1      0.00   -4.656285171    1.699997622    3.119937832
   3  H2      0.00   -5.973046335    4.726205038    2.982932688
   4  H3      0.00   -7.940251230    2.077186956    3.118237078
   5  H4      0.00   -6.176569838    2.685300823    0.384937212
   6  O1      8.00   -0.132091856   -0.427456049    5.428616238
   7  H5      1.00    1.200731980   -1.541827545    5.988353116
   8  H6      1.00   -1.735713445   -1.363059454    5.806183518

 Bond lengths in Bohr (Angstrom)

 1-2  2.021904040  1-3  2.022002335  1-4  2.021953343  1-5  2.022015060  6-7  1.825253018
     ( 1.069945541)     ( 1.069997556)     ( 1.069971630)     ( 1.070004290)     ( 0.965882301)

 6-8  1.894601009
     ( 1.002579678)

 Bond angles

  2-1-3  109.53398059   2-1-4  109.65604535   2-1-5  108.43490854   3-1-4  109.49436728

  3-1-5  109.86987750   4-1-5  109.83468330   7-6-8  104.80057086

 NUCLEAR CHARGE:                   10
 NUMBER OF PRIMITIVE AOS:         270
 NUMBER OF SYMMETRY AOS:          246
 NUMBER OF CONTRACTIONS:          214   ( 214A   )
 NUMBER OF CORE ORBITALS:           1   (   1A   )
 NUMBER OF VALENCE ORBITALS:        6   (   6A   )

 MOLECULE CHANGED: INITIALIZING OCCUPATION AND DUMP RECORDS


 NUCLEAR REPULSION ENERGY    8.94474756


 Eigenvalues of metric

         1 0.731E-04 0.176E-03 0.272E-03 0.333E-03 0.337E-03 0.417E-03 0.545E-03 0.553E-03


 Contracted 2-electron integrals neglected if value below      1.0D-19

 OPERATOR DM      FOR CENTER  0  COORDINATES:    0.000000    0.000000    0.000000


 **********************************************************************************************************************************
 DATASETS  * FILE   NREC   LENGTH (MB)   RECORD NAMES
              1      19     1806.88       500      610      700      900      950      970     1000      129      960     1100   
                                          VAR    BASINP    GEOM    SYMINP    ZMAT    AOBASIS   BASIS     P2S    ABASIS      S 
                                         1400     1410     1200     1210     1080     1600     1650     1300     1700   
                                           T        V       H0       H01     AOSYM     SMH    MOLCAS    ERIS     OPER   

              2       7        8.14       700     1000      520     2100     7360     7350     2101   
                                         GEOM     BASIS   MCVARS     RHF    F12ABS    EF12      RHF  

 PROGRAMS   *        TOTAL       INT   CCSD(T)        HF       INT   CCSD(T)        HF       INT
 CPU TIMES  *       428.33      0.06     78.99     20.42      0.06    285.91     27.23     15.51
 REAL TIME  *       649.02 SEC
 DISK USED  *         5.02 GB      
 **********************************************************************************************************************************


 PROGRAM * RHF-SCF (CLOSED SHELL)       Authors: W. Meyer, H.-J. Werner


 NUMBER OF ELECTRONS:       5+    5-    SPACE SYMMETRY=1    SPIN SYMMETRY: Singlet 
 CONVERGENCE THRESHOLDS:    1.00E-04 (Density)    1.00E-09 (Energy)
 MAX. NUMBER OF ITERATIONS:       60
 INTERPOLATION TYPE:            DIIS
 INTERPOLATION STEPS:              2 (START)      1 (STEP)
 LEVEL SHIFTS:                  0.00 (CLOSED)  0.00 (OPEN) 



 Orbital guess generated from atomic densities. Full valence occupancy:    7

 Molecular orbital dump at record        2102.2

 Initial occupancy:   5

 ITERATION    DDIFF          GRAD             ENERGY        2-EL.EN.            DIPOLE MOMENTS         DIIS   ORB.
    1      0.000D+00      0.000D+00       -76.02261496     77.328817   -0.15154   -1.05145    0.48020    0    start
    2      0.000D+00      0.672D-02       -76.04950547     73.652629   -0.07711   -0.61134    0.27957    1    diag
    3      0.463D-02      0.431D-02       -76.06128546     75.290002   -0.09321   -0.72119    0.32975    2    diag
    4      0.164D-02      0.404D-03       -76.06148613     75.197138   -0.09029   -0.71662    0.32773    3    diag
    5      0.231D-03      0.115D-03       -76.06150863     75.212013   -0.08907   -0.71491    0.32697    4    diag
    6      0.815D-04      0.233D-04       -76.06151014     75.210860   -0.08867   -0.71445    0.32677    5    diag
    7      0.229D-04      0.478D-05       -76.06151022     75.211015   -0.08856   -0.71431    0.32670    6    diag
    8      0.518D-05      0.893D-06       -76.06151022     75.211000   -0.08854   -0.71426    0.32669    7    diag
    9      0.950D-06      0.120D-06       -76.06151022     75.210991   -0.08854   -0.71426    0.32668    8    diag
   10      0.151D-06      0.282D-07       -76.06151022     75.210995   -0.08854   -0.71426    0.32668    0    orth

 Final occupancy:   5

 !RHF STATE 1.1 Energy                -76.061510222494
 Nuclear energy                         8.94474756
 One-electron energy                 -122.61175549
 Two-electron energy                   37.60549771
 Virial quotient                       -1.00219323
 !RHF STATE 1.1 Dipole moment          -0.08854211    -0.71426009     0.32668357
 Dipole moment /Debye                  -0.22503685    -1.81534916     0.83029243

 Orbital energies:

         1.1          2.1          3.1          4.1          5.1          6.1          7.1
    -20.569338    -1.339559    -0.704011    -0.579156    -0.508316     0.042820     0.062814

 HOMO      5.1    -0.508316 =     -13.8320eV
 LUMO      6.1     0.042820 =       1.1652eV
 LUMO-HOMO         0.551136 =      14.9972eV


 **********************************************************************************************************************************
 DATASETS  * FILE   NREC   LENGTH (MB)   RECORD NAMES
              1      19     1806.88       500      610      700      900      950      970     1000      129      960     1100   
                                          VAR    BASINP    GEOM    SYMINP    ZMAT    AOBASIS   BASIS     P2S    ABASIS      S 
                                         1400     1410     1200     1210     1080     1600     1650     1300     1700   
                                           T        V       H0       H01     AOSYM     SMH    MOLCAS    ERIS     OPER   

              2       8       12.47       700     1000      520     2100     7360     7350     2101     2102   
                                         GEOM     BASIS   MCVARS     RHF    F12ABS    EF12      RHF      RHF  

 PROGRAMS   *        TOTAL        HF       INT   CCSD(T)        HF       INT   CCSD(T)        HF       INT
 CPU TIMES  *       453.28     24.95      0.06     78.99     20.42      0.06    285.91     27.23     15.51
 REAL TIME  *       685.85 SEC
 DISK USED  *         5.02 GB      
 **********************************************************************************************************************************
 SETTING E_HF_B         =       -76.06151022  AU                              


 PROGRAM * CCSD (Closed-shell coupled cluster)     Authors: C. Hampel, H.-J. Werner, 1991, M. Deegan, P.J. Knowles, 1992

                                  CCSD-F12 implementation by  H.-J. Werner, 2007

                   Density fitting integral evaluation by F.R. Manby, 2003,2007, G. Knizia, 2010

 Basis set CC-PVTZ/JKFIT generated.      Number of basis functions:   338 
 Basis set CC-PVTZ-F12/OPTRI generated.  Number of basis functions:   396 
 Basis set AUG-CC-PVTZ/MP2FIT generated. Number of basis functions:   488 

 Convergence thresholds:  THRVAR = 1.00D-08  THRDEN = 1.00D-08

 CCSD(T)     terms to be evaluated (factor= 1.000)


 Number of core orbitals:           1 (   1 )
 Number of closed-shell orbitals:   4 (   4 )
 Number of external orbitals:     209 ( 209 )

 Molecular orbitals read from record     2102.2  Type=RHF/CANONICAL (state 1.1)

 MP2-F12 correlation treatment (H.-J. Werner, 2006)
 ==================================================

 Using MP2-F12 with ansatz 3C(FIX)

 Using projected zeroth-order Hamiltonian (+Z)

 FOCKRIB=T FOCKRIC=T FOCKRIP=T CABSP=T CABSA=T CABSK=T CABSF=T GBC=F EBC=F DMAT=T NOFIK=T NOPAO=1 SOLVE=-1  USEPAO=0
 EXCH_A= T EXCH_B= F EXCH_C= F EXCH_P= F
 
 Geminal basis:    OPTFULL  GEM_TYPE=SLATER  BETA=1.0  NGEM=6

 Optimizing Gaussian exponents for each gem_beta

 Geminal optimization for beta= 1.0000
 Weight function:   m=0, omega= 1.4646

 Augmented Hessian optimization of geminal fit. Trust ratio= 0.40000
 Convergence reached after   2 iterations. Final gradient= 8.26D-16, Step= 4.26D-06, Delta= 1.28D-09
 
 Alpha:                 0.19532     0.81920     2.85917     9.50073    35.69989   197.79328
 Coeff:                 0.27070     0.30552     0.18297     0.10986     0.06810     0.04224
 

 All pairs explicitly correlated. Number of r12-pairs:           10

 Excluding core orbitals from MO domains
 
 AO(A)-basis ORBITAL           loaded. Number of functions:     214
 RI(R)-basis CC-PVTZ-F12/OPTRI loaded. Number of functions:     396
 DF-basis CC-PVTZ/JKFIT        loaded. Number of functions:     338

 Screening thresholds:   THRAO=  1.00D-10  THRMO=  1.00D-09  THRPROD=  1.00D-09
                         THRSW=  1.00D-05  THROV=  1.00D-12  THRAOF12=   1.00D-08

 CPU time for Fock operators                      2.68 sec
 
 Construction of ABS:
 Smallest eigenvalue of S          3.25E-04  (threshold= 1.00E-08)
 Ratio eigmin/eigmax               4.18E-05  (threshold= 1.00E-09)
 Smallest eigenvalue of S kept     3.25E-04  (threshold= 3.25E-04, 0 functions deleted, 396 kept)
 
 Construction of CABS:
 Smallest eigenvalue of S          7.81E-07  (threshold= 1.00E-08)
 Ratio eigmin/eigmax               7.81E-07  (threshold= 1.00E-09)
 Smallest eigenvalue of S kept     7.81E-07  (threshold= 7.81E-07, 0 functions deleted, 396 kept)
 
 CPU time for CABS singles                        0.11 sec

 CABS-singles contribution of  -0.00095829 patched into reference energy.
 New reference energy         -76.06246852
 
 AO(A)-basis ORBITAL           loaded. Number of functions:     214
 RI(R)-basis CC-PVTZ-F12/OPTRI loaded. Number of functions:     396
 DF-basis AUG-CC-PVTZ/MP2FIT   loaded. Number of functions:     488

 Screening thresholds:   THRAO=  1.00D-10  THRMO=  1.00D-09  THRPROD=  1.00D-09
                         THRSW=  1.00D-05  THROV=  1.00D-12  THRAOF12=   1.00D-08

 CPU time for 3-index integral evaluation         5.80 sec
 CPU time for first  half transformation          0.35 sec ( 7356.8 MFLOP/sec)
 CPU time for sorting                             0.01 sec
 CPU time for fitting                             0.04 sec (29768.0 MFLOP/sec)
 CPU time for tilde quantities                    0.04 sec (39722.4 MFLOP/sec)
 CPU time for assembly                            0.21 sec (37981.3 MFLOP/sec)
 CPU time for tranop_f12                          0.25 sec (38326.5 MFLOP/sec)
 CPU time for f12 integrals (total)               7.19 sec, Elapsed time:      8.50 sec
 CPU time for f12 matrices (total)                0.08 sec, Elapsed time:      0.11 sec

 Diagonal F12 approximation with fixed coefficients:  TSING= 0.500,  TTRIP= 0.250 (scaled by -1/beta)

 DF-MP2-F12 energy corrections:
 ==============================
 Approx.                                    Singlet             Triplet             Total
 DF-MP2-F12/3*C(DX,FIX)                -0.025088013266     -0.002992045125     -0.028080058391
 DF-MP2-F12/3*C(FIX)                   -0.023323936236     -0.002707539709     -0.026031475945
 DF-MP2-F12/3C(FIX)                    -0.023250908593     -0.002804422022     -0.026055330614

 DF-MP2-F12 correlation energies:
 ================================
 Approx.                                    Singlet             Triplet             Ecorr            Total Energy
 DF-MP2                                -0.175260302893     -0.099913681484     -0.275173984378    -76.337642499463
 DF-MP2-F12/3*C(DX,FIX)                -0.200348316160     -0.102905726609     -0.303254042769    -76.365722557855
 DF-MP2-F12/3*C(FIX)                   -0.198584239129     -0.102621221193     -0.301205460322    -76.363673975408
 DF-MP2-F12/3C(FIX)                    -0.198511211486     -0.102718103506     -0.301229314992    -76.363697830078

 SCS-DF-MP2 energies (F_SING= 1.20000  F_TRIP= 0.62222  F_PARALLEL= 0.33333):
 ============================================================================
 SCS-DF-MP2                            -0.272480876396    -76.334949391481
 SCS-DF-MP2-F12/3*C(DX,FIX)            -0.304448209282    -76.366916724368
 SCS-DF-MP2-F12/3*C(FIX)               -0.302154291253    -76.364622806339
 SCS-DF-MP2-F12/3C(FIX)                -0.302126940409    -76.364595455495
 Symmetry transformation completed.

 Number of N-1 electron functions:               4
 Number of N-2 electron functions:              10
 Number of singly external CSFs:               836
 Number of doubly external CSFs:            349866
 Total number of CSFs:                      350703

 Length of J-op  integral file:              53.89 MB
 Length of K-op  integral file:              87.81 MB
 Length of 3-ext integral record:             0.00 MB

 Memory could be reduced to 60.96 Mwords without degradation in triples

 Integral transformation finished. Total CPU:   5.55 sec, npass=  1  Memory used:  26.32 MW

 Reference energy:                    -76.06246852

 Adding F12 terms to K(Cij), methodcc=6,  factor= 1.0

 ITER.      SQ.NORM     CORR.ENERGY   TOTAL ENERGY   ENERGY CHANGE        DEN1      VAR(S)    VAR(P)  DIIS     TIME  TIME/IT
   1      1.06307627    -0.27524204   -76.33771055    -0.00002604     0.00604418  0.78D-03  0.10D-02  1  1    19.42     3.85
   2      1.06654342    -0.27499801   -76.33746653     0.00024403    -0.00474336  0.14D-04  0.11D-03  2  2    23.28     4.00
   3      1.06779955    -0.27513727   -76.33760579    -0.00013926    -0.00084077  0.95D-05  0.75D-05  3  3    27.11     4.05
   4      1.06837806    -0.27516022   -76.33762874    -0.00002295    -0.00037307  0.46D-06  0.60D-06  4  4    30.96     4.08
   5      1.06847678    -0.27515864   -76.33762715     0.00000158    -0.00002191  0.14D-06  0.38D-07  5  5    34.79     4.10
   6      1.06850373    -0.27515727   -76.33762579     0.00000137    -0.00000449  0.12D-07  0.39D-08  6  6    38.65     8.85
   7      1.06851068    -0.27515688   -76.33762539     0.00000040    -0.00000157  0.11D-08  0.33D-09  6  1    42.50     8.18
   8      1.06851223    -0.27515693   -76.33762545    -0.00000006    -0.00000002  0.11D-09  0.42D-10  6  2    46.33     8.65
   9      1.06851261    -0.27515693   -76.33762545    -0.00000000     0.00000006  0.85D-11  0.74D-11  6  4    50.14     8.16
  10      1.06851272    -0.27515693   -76.33762545     0.00000000    -0.00000000  0.16D-11  0.58D-12  6  3    53.97     8.29

 Norm of t1 vector:      0.03673447      S-energy:     0.00000001      T1 diagnostic:  0.00918362
                                                                       D1 diagnostic:  0.01845313

 Adding energy correction from Wij-K(Fij), methodcc=6  factor= 1.0
 
  CCSD correlation energy              -0.275156930329
  MP2-F12 correction (uncoupled)       -0.024939856278
  C*T doubles correction               -0.000830693215
  f12b correction                       0.004281839558

 Total CPU time for triples:     21.70 sec

  Ecorr(MP2)                           -0.275215996097
  Ecorr(MP2-F12)                       -0.301271326712
  Scale factor for triples energy       1.094672297337


 RESULTS
 =======

  Reference energy                    -76.061510222493
  F12 singles correction               -0.000958292592

 F12 singles corrections added to reference energy

  New reference energy                -76.062468515086

  F12a singlet correction              -0.023072799120
  F12a triplet correction              -0.002697750373
  F12a total correction                -0.025770549493

 F12a corrections for ansatz F12/3C(FIX) added to CCSD energy
 
  CCSD-F12a singlet pair energy        -0.210044361569
  CCSD-F12a triplet pair energy        -0.090883125660
  CCSD-F12a correlation energy         -0.300927479822

  Triples (T) contribution (scaled)    -0.009839558802
  Total correlation energy             -0.310767038624

  CCSD-F12a total energy              -76.363395994908
  CCSD[T]-F12a energy                 -76.373579157786
  CCSD-T-F12a energy                  -76.373084791321
 !CCSD(T)-F12a total energy           -76.373235553709

 F12b corrections for ansatz F12/3C(FIX) added to CCSD(T)-F12a energy

  CCSD-F12b singlet pair energy        -0.206072428220
  CCSD-F12b triplet pair energy        -0.090573219452
  CCSD-F12b correlation energy         -0.296645640264

  Triples (T) contribution (scaled)    -0.009839558802
  Total correlation energy             -0.306485199065

  CCSD-F12b total energy              -76.359114155349
  CCSD[T]-F12b energy                 -76.369297318228
  CCSD-T-F12b energy                  -76.368802951762
 !CCSD(T)-F12b total energy           -76.368953714151

 Timing summary (sec):

 STEP                 CPU(USER)    SYS     CPU(TOT)    WALL
 Transformation          5.58      0.63      6.21      6.25
 CCSD iterations        38.19      3.15     41.34     83.69
 Triples                21.70      0.35     22.05     22.05
 MP2-F12                10.21      0.44     10.65     11.78
 F12b energy             3.32      0.27      3.59      4.63

 Program statistics:

 Available memory in ccsd:              2999999786
 Min. memory needed in ccsd:               1609972
 Max. memory used in ccsd:                 1864434
 Max. memory used in cckext:               1252381 (11 integral passes)



 **********************************************************************************************************************************
 DATASETS  * FILE   NREC   LENGTH (MB)   RECORD NAMES
              1      20     1959.89       500      610      700      900      950      970     1000      129      960     1100   
                                          VAR    BASINP    GEOM    SYMINP    ZMAT    AOBASIS   BASIS     P2S    ABASIS      S 
                                         1400     1410     1200     1210     1080     1600     1650     1300     1700     1380   
                                           T        V       H0       H01     AOSYM     SMH    MOLCAS    ERIS     OPER     JKOP   

              2       8       12.47       700     1000      520     2100     7360     7350     2101     2102   
                                         GEOM     BASIS   MCVARS     RHF    F12ABS    EF12      RHF      RHF  

 PROGRAMS   *        TOTAL   CCSD(T)        HF       INT   CCSD(T)        HF       INT   CCSD(T)        HF       INT
 CPU TIMES  *       532.32     79.04     24.95      0.06     78.99     20.42      0.06    285.91     27.23     15.51
 REAL TIME  *       824.78 SEC
 DISK USED  *         5.02 GB      
 **********************************************************************************************************************************
 SETTING E_F12_B(1)     =       -76.37323555  AU                              
 SETTING E_F12_B(2)     =       -76.36895371  AU                              
 SETTING E_INT_HF       =         0.00021897  AU                              
 SETTING E_INT_F12(1)   =        -0.00054497  AU                              
 SETTING E_INT_F12(2)   =        -0.00053735  AU                              
 E_INT_HF         =         0.00021897 AU
 E_INT_F12(1:2)   = [      -0.00054497    -0.00053735] AU

 CCSD(T)-F12/cc-pVTZ-F12 energy=    -76.368953714151

     CCSD(T)-F12        HF-SCF       CCSD(T)-F12        HF-SCF       CCSD(T)-F12        HF-SCF  
    -76.36895371    -76.06151022    -40.45406082    -40.21549230   -116.82355188   -116.27678355
 **********************************************************************************************************************************
 Molpro calculation terminated
 Variable memory released
