
 Primary working directories    : /net/scratch/people/plgsirous
 Secondary working directories  : /net/scratch/people/plgsirous
 Wavefunction directory         : /net/people/plgsirous/wfu/
 Main file repository           : /net/scratch/people/plgsirous/

 SHA1      : 
 NAME      : 
 ARCHNAME  : linux/x86_64
 FC        : /net/software/local/intel/impi/2018.1.163/bin64/mpiifort
 BLASLIB   : -L/net/software/local/intel/compilers_and_libraries_2018.1.163/linux/mkl/lib/intel64 -lmkl_scalapack_ilp64 -lmkl_intel_ilp64 -lmkl_intel_thread -lmkl_core -lmkl_blacs_intelmpi_ilp64 -liomp5 -lpthread -lm -ldl
 id        : pl

 Nodes     nprocs
 p1491        1

 Using customized tuning parameters: mindgm=7; mindgv=20; mindgc=1; mindgr=1; noblas=0; minvec=7
 default implementation of scratch files=df  

 memory,3000,m
 zsymel=nosym
 angstrom
 geometry={
 C1        -3.2772    1.4825     1.2719
 H1        -2.4640    0.8996     1.6510
 H2        -3.1608    2.5010     1.5785
 H3        -4.2018    1.0992     1.6501
 H4        -3.2685    1.4210     0.2037
 O1        -0.1517    2.6972     -0.8448
 H5        0.5334    2.9981     -1.4549
 H6        -1.0032    2.7706     -1.3576
 }
 basis=vtz-f12
 gthresh,orbital=1d-8,energy=1d-8,twoint=1.d-19
 
 
 nkerna=1
 nkernb=1
 nkernab=$nkerna+$nkernb
 
                                                                                 ! AB Dimer
 {hf,accu=1.d-8}
 E_HF_AB=energy
 core,$nkernab
 {ccsd(t)-f12,scale_trip=1,THRF12=1.d-12}
 E_F12_AB=energy
 
                                                                                 ! Monomer A Part
 
 dummy,6,7,8;
 {hf,accu=1.d-8}
 E_HF_A=energy
 core,$nkerna
 {ccsd(t)-f12,scale_trip=1,THRF12=1.d-12}
 E_F12_A=energy
 
                                                                                 ! Monomer B Part
 
 dummy,1,2,3,4,5;
 {hf,accu=1.d-8}
 E_HF_B=energy
 core,$nkernb
 {ccsd(t)-f12,scale_trip=1,THRF12=1.d-12}
 E_F12_B=energy
 
 E_int_HF = E_HF_AB-(E_HF_A+E_HF_B)
 E_int_F12 = E_F12_AB-(E_F12_A+E_F12_B)
 
 
 show,E_int_HF,E_int_F12

 Variables initialized (889), CPU time= 0.00 sec
 Commands  initialized (702), CPU time= 0.01 sec, 572 directives.
 Default parameters read. Elapsed time= 0.07 sec

 Checking input...
 Passed
1


                                         ***  PROGRAM SYSTEM MOLPRO  ***
                                       Copyright, TTI GmbH Stuttgart, 2015
                                    Version 2015.1 linked Jul  2 2018 15:03:07


 **********************************************************************************************************************************
 LABEL *                                                                                 
  64 bit serial version                                                                  DATE: 17-Jan-19          TIME: 14:52:56  
 **********************************************************************************************************************************

 SHA1:             
 **********************************************************************************************************************************
 SETTING ZSYMEL         =    NOSYM
 ZSYMEL=NOSYM
 ZUNIT=ANG
 

Geometry recognized as XYZ


 Variable memory set to 3000000000 words,  buffer space   230000 words

 SETTING BASIS          =    VTZ-F12

 THRESHOLDS:

 ZERO    =  1.00D-12  ONEINT  =  1.00D-12  TWOINT  =  1.00D-19  PREFAC  =  1.00D-14  LOCALI  =  1.00D-09  EORDER  =  1.00D-04
 ENERGY  =  1.00D-08  ETEST   =  0.00D+00  EDENS   =  0.00D+00  THRDEDEF=  1.00D-06  GRADIENT=  1.00D-02  STEP    =  1.00D-03
 ORBITAL =  1.00D-08  CIVEC   =  1.00D-05  COEFF   =  1.00D-04  PRINTCI =  5.00D-02  PUNCHCI =  9.90D+01  OPTGRAD =  3.00D-04
 OPTENERG=  1.00D-06  OPTSTEP =  3.00D-04  THRGRAD =  1.00D-10  COMPRESS=  1.00D-11  VARMIN  =  1.00D-07  VARMAX  =  1.00D-03
 THRDOUB =  0.00D+00  THRDIV  =  1.00D-05  THRRED  =  1.00D-07  THRPSP  =  1.00D+00  THRDC   =  1.00D-10  THRCS   =  1.00D-10
 THRNRM  =  1.00D-08  THREQ   =  0.00D+00  THRDE   =  1.00D+00  THRREF  =  1.00D-05  SPARFAC =  1.00D+00  THRDLP  =  1.00D-07
 THRDIA  =  1.00D-10  THRDLS  =  1.00D-07  THRGPS  =  0.00D+00  THRKEX  =  0.00D+00  THRDIS  =  2.00D-01  THRVAR  =  1.00D-10
 THRLOC  =  1.00D-06  THRGAP  =  1.00D-06  THRLOCT = -1.00D+00  THRGAPT = -1.00D+00  THRORB  =  1.00D-06  THRMLTP =  0.00D+00
 THRCPQCI=  1.00D-10  KEXTA   =  0.00D+00  THRCOARS=  0.00D+00  SYMTOL  =  1.00D-06  GRADTOL =  1.00D-06  THROVL  =  1.00D-08
 THRORTH =  1.00D-08  GRID    =  1.00D-06  GRIDMAX =  1.00D-03  DTMAX   =  0.00D+00  THROCCDE=  1.00D-01  THROCCDE=  1.00D-01


 SETTING NKERNA         =         1.00000000                                  
 SETTING NKERNB         =         1.00000000                                  
 SETTING NKERNAB        =         2.00000000                                  


 Recomputing integrals since basis changed


 Using spherical harmonics

 Library entry C      S cc-pVTZ-F12          selected for orbital group  1
 Library entry C      P cc-pVTZ-F12          selected for orbital group  1
 Library entry C      D cc-pVTZ-F12          selected for orbital group  1
 Library entry C      F cc-pVTZ-F12          selected for orbital group  1
 Library entry H      S cc-pVTZ-F12          selected for orbital group  2
 Library entry H      P cc-pVTZ-F12          selected for orbital group  2
 Library entry H      D cc-pVTZ-F12          selected for orbital group  2
 Library entry O      S cc-pVTZ-F12          selected for orbital group  3
 Library entry O      P cc-pVTZ-F12          selected for orbital group  3
 Library entry O      D cc-pVTZ-F12          selected for orbital group  3
 Library entry O      F cc-pVTZ-F12          selected for orbital group  3


 PROGRAM * SEWARD (Integral evaluation for generally contracted gaussian basis sets)     Author: Roland Lindh, 1990

 Geometry written to block  1 of record 700


 Point group  C1  



 ATOMIC COORDINATES

 NR  ATOM    CHARGE       X              Y              Z

   1  C1      6.00   -6.193010455    2.801518980    2.403542658
   2  H1      1.00   -4.656285171    1.699997622    3.119937832
   3  H2      1.00   -5.973046335    4.726205038    2.982932688
   4  H3      1.00   -7.940251230    2.077186956    3.118237078
   5  H4      1.00   -6.176569838    2.685300823    0.384937212
   6  O1      8.00   -0.286671453    5.096969303   -1.596440630
   7  H5      1.00    1.007979915    5.665587894   -2.749362539
   8  H6      1.00   -1.895773248    5.235675201   -2.565492187

 Bond lengths in Bohr (Angstrom)

 1-2  2.021904040  1-3  2.022002335  1-4  2.021953343  1-5  2.022015060  6-7  1.824466550
     ( 1.069945541)     ( 1.069997556)     ( 1.069971630)     ( 1.070004290)     ( 0.965466121)

 6-8  1.883483165
     ( 0.996696368)

 Bond angles

  2-1-3  109.53398059   2-1-4  109.65604535   2-1-5  108.43490854   3-1-4  109.49436728

  3-1-5  109.86987750   4-1-5  109.83468330   7-6-8  104.96066383

 NUCLEAR CHARGE:                   20
 NUMBER OF PRIMITIVE AOS:         270
 NUMBER OF SYMMETRY AOS:          246
 NUMBER OF CONTRACTIONS:          214   ( 214A   )
 NUMBER OF CORE ORBITALS:           2   (   2A   )
 NUMBER OF VALENCE ORBITALS:       14   (  14A   )


 NUCLEAR REPULSION ENERGY   35.80046073


 Eigenvalues of metric

         1 0.728E-04 0.186E-03 0.278E-03 0.331E-03 0.336E-03 0.441E-03 0.545E-03 0.564E-03


 Contracted 2-electron integrals neglected if value below      1.0D-19
 AO integral compression algorithm  1   Integral accuracy      1.0D-19

     2041.053 MB (compressed) written to integral file ( 83.7%)


 NUMBER OF SORTED TWO-ELECTRON INTEGRALS:  264626515.     BUFFER LENGTH:  32768
 NUMBER OF SEGMENTS:  17  SEGMENT LENGTH:   15999762      RECORD LENGTH: 524288

 Memory used in sort:      16.56 MW

 SORT1 READ   304635709. AND WROTE   244229145. INTEGRALS IN    708 RECORDS. CPU TIME:     3.20 SEC, REAL TIME:     7.22 SEC
 SORT2 READ   244229145. AND WROTE   264626515. INTEGRALS IN   7786 RECORDS. CPU TIME:     3.25 SEC, REAL TIME:     8.06 SEC

 FILE SIZES:   FILE 1:  2062.8 MBYTE,  FILE 4:  2969.6 MBYTE,   TOTAL:   5032.4 MBYTE

 OPERATOR DM      FOR CENTER  0  COORDINATES:    0.000000    0.000000    0.000000


 **********************************************************************************************************************************
 DATASETS  * FILE   NREC   LENGTH (MB)   RECORD NAMES
              1      19     1809.98       500      610      700      900      950      970     1000      129      960     1100   
                                          VAR    BASINP    GEOM    SYMINP    ZMAT    AOBASIS   BASIS     P2S    ABASIS      S 
                                         1400     1410     1200     1210     1080     1600     1650     1300     1700   
                                           T        V       H0       H01     AOSYM     SMH    MOLCAS    ERIS     OPER   

 PROGRAMS   *        TOTAL       INT
 CPU TIMES  *        15.71     15.60
 REAL TIME  *        48.05 SEC
 DISK USED  *         5.03 GB      
 **********************************************************************************************************************************


 PROGRAM * RHF-SCF (CLOSED SHELL)       Authors: W. Meyer, H.-J. Werner


 NUMBER OF ELECTRONS:      10+   10-    SPACE SYMMETRY=1    SPIN SYMMETRY: Singlet 
 CONVERGENCE THRESHOLDS:    1.00E-04 (Density)    1.00E-09 (Energy)
 MAX. NUMBER OF ITERATIONS:       60
 INTERPOLATION TYPE:            DIIS
 INTERPOLATION STEPS:              2 (START)      1 (STEP)
 LEVEL SHIFTS:                  0.00 (CLOSED)  0.00 (OPEN) 



 Orbital guess generated from atomic densities. Full valence occupancy:   16

 Molecular orbital dump at record        2100.2

 Initial occupancy:  10

 ITERATION    DDIFF          GRAD             ENERGY        2-EL.EN.            DIPOLE MOMENTS         DIIS   ORB.
    1      0.000D+00      0.000D+00      -116.21857854    157.317303   -0.16767    0.35835   -1.08859    0    start
    2      0.000D+00      0.549D-02      -116.26293535    152.267340   -0.05065    0.21015   -0.61314    1    diag
    3      0.564D-02      0.324D-02      -116.27676240    154.363021   -0.07923    0.24817   -0.73351    2    diag
    4      0.184D-02      0.478D-03      -116.27742383    154.248617   -0.07650    0.24491   -0.72313    3    diag
    5      0.417D-03      0.141D-03      -116.27749322    154.243827   -0.07566    0.24495   -0.72260    4    diag
    6      0.155D-03      0.340D-04      -116.27749706    154.249405   -0.07528    0.24472   -0.72184    5    diag
    7      0.394D-04      0.684D-05      -116.27749728    154.247729   -0.07523    0.24473   -0.72184    6    diag
    8      0.104D-04      0.175D-05      -116.27749730    154.247908   -0.07518    0.24471   -0.72177    7    diag
    9      0.298D-05      0.411D-06      -116.27749730    154.247881   -0.07517    0.24470   -0.72175    8    diag
   10      0.648D-06      0.472D-07      -116.27749730    154.247883   -0.07517    0.24470   -0.72175    0    orth

 Final occupancy:  10

 !RHF STATE 1.1 Energy               -116.277497304048
 Nuclear energy                        35.80046073
 One-electron energy                 -229.20189954
 Two-electron energy                   77.12394151
 Virial quotient                       -1.00076139
 !RHF STATE 1.1 Dipole moment          -0.07516903     0.24470275    -0.72175226
 Dipole moment /Debye                  -0.19104811     0.62193161    -1.83439111

 Orbital energies:

         1.1          2.1          3.1          4.1          5.1          6.1          7.1          8.1          9.1         10.1
    -20.568503   -11.191952    -1.340666    -0.946212    -0.705753    -0.579316    -0.547676    -0.545393    -0.543290    -0.508247

        11.1         12.1
      0.056165     0.068006

 HOMO     10.1    -0.508247 =     -13.8301eV
 LUMO     11.1     0.056165 =       1.5283eV
 LUMO-HOMO         0.564412 =      15.3584eV


 **********************************************************************************************************************************
 DATASETS  * FILE   NREC   LENGTH (MB)   RECORD NAMES
              1      19     1809.98       500      610      700      900      950      970     1000      129      960     1100   
                                          VAR    BASINP    GEOM    SYMINP    ZMAT    AOBASIS   BASIS     P2S    ABASIS      S 
                                         1400     1410     1200     1210     1080     1600     1650     1300     1700   
                                           T        V       H0       H01     AOSYM     SMH    MOLCAS    ERIS     OPER   

              2       4        3.81       700     1000      520     2100   
                                         GEOM     BASIS   MCVARS     RHF  

 PROGRAMS   *        TOTAL        HF       INT
 CPU TIMES  *        40.93     25.22     15.60
 REAL TIME  *        77.57 SEC
 DISK USED  *         5.03 GB      
 **********************************************************************************************************************************
 SETTING E_HF_AB        =      -116.27749730  AU                              


 PROGRAM * CCSD (Closed-shell coupled cluster)     Authors: C. Hampel, H.-J. Werner, 1991, M. Deegan, P.J. Knowles, 1992

                                  CCSD-F12 implementation by  H.-J. Werner, 2007

                   Density fitting integral evaluation by F.R. Manby, 2003,2007, G. Knizia, 2010

 Basis set CC-PVTZ/JKFIT generated.      Number of basis functions:   338 
 Basis set CC-PVTZ-F12/OPTRI generated.  Number of basis functions:   396 
 Basis set AUG-CC-PVTZ/MP2FIT generated. Number of basis functions:   488 

 Convergence thresholds:  THRVAR = 1.00D-08  THRDEN = 1.00D-08

 CCSD(T)     terms to be evaluated (factor= 1.000)


 Number of core orbitals:           2 (   2 )
 Number of closed-shell orbitals:   8 (   8 )
 Number of external orbitals:     204 ( 204 )

 Molecular orbitals read from record     2100.2  Type=RHF/CANONICAL (state 1.1)

 MP2-F12 correlation treatment (H.-J. Werner, 2006)
 ==================================================

 Using MP2-F12 with ansatz 3C(FIX)

 Using projected zeroth-order Hamiltonian (+Z)

 FOCKRIB=T FOCKRIC=T FOCKRIP=T CABSP=T CABSA=T CABSK=T CABSF=T GBC=F EBC=F DMAT=T NOFIK=T NOPAO=1 SOLVE=-1  USEPAO=0
 EXCH_A= T EXCH_B= F EXCH_C= F EXCH_P= F
 
 Geminal basis:    OPTFULL  GEM_TYPE=SLATER  BETA=1.0  NGEM=6

 Optimizing Gaussian exponents for each gem_beta

 Geminal optimization for beta= 1.0000
 Weight function:   m=0, omega= 1.4646

 Augmented Hessian optimization of geminal fit. Trust ratio= 0.40000
 Convergence reached after   2 iterations. Final gradient= 8.26D-16, Step= 4.26D-06, Delta= 1.28D-09
 
 Alpha:                 0.19532     0.81920     2.85917     9.50073    35.69989   197.79328
 Coeff:                 0.27070     0.30552     0.18297     0.10986     0.06810     0.04224
 

 All pairs explicitly correlated. Number of r12-pairs:           36

 Excluding core orbitals from MO domains
 
 AO(A)-basis ORBITAL           loaded. Number of functions:     214
 RI(R)-basis CC-PVTZ-F12/OPTRI loaded. Number of functions:     396
 DF-basis CC-PVTZ/JKFIT        loaded. Number of functions:     338

 Screening thresholds:   THRAO=  1.00D-10  THRMO=  1.00D-09  THRPROD=  1.00D-09
                         THRSW=  1.00D-05  THROV=  1.00D-12  THRAOF12=   1.00D-08

 CPU time for Fock operators                      2.77 sec
 
 Construction of ABS:
 Smallest eigenvalue of S          4.13E-04  (threshold= 1.00E-08)
 Ratio eigmin/eigmax               5.31E-05  (threshold= 1.00E-09)
 Smallest eigenvalue of S kept     4.13E-04  (threshold= 4.13E-04, 0 functions deleted, 396 kept)
 
 Construction of CABS:
 Smallest eigenvalue of S          8.30E-07  (threshold= 1.00E-08)
 Ratio eigmin/eigmax               8.30E-07  (threshold= 1.00E-09)
 Smallest eigenvalue of S kept     8.30E-07  (threshold= 8.30E-07, 0 functions deleted, 396 kept)
 
 CPU time for CABS singles                        0.10 sec

 CABS-singles contribution of  -0.00160007 patched into reference energy.
 New reference energy        -116.27909738
 
 AO(A)-basis ORBITAL           loaded. Number of functions:     214
 RI(R)-basis CC-PVTZ-F12/OPTRI loaded. Number of functions:     396
 DF-basis AUG-CC-PVTZ/MP2FIT   loaded. Number of functions:     488

 Screening thresholds:   THRAO=  1.00D-10  THRMO=  1.00D-09  THRPROD=  1.00D-09
                         THRSW=  1.00D-05  THROV=  1.00D-12  THRAOF12=   1.00D-08

 CPU time for 3-index integral evaluation         5.86 sec
 CPU time for first  half transformation          0.36 sec (14304.9 MFLOP/sec)
 CPU time for sorting                             0.01 sec
 CPU time for fitting                             0.07 sec (34837.1 MFLOP/sec)
 CPU time for tilde quantities                    0.09 sec (35732.2 MFLOP/sec)
 CPU time for assembly                            0.82 sec (36510.4 MFLOP/sec)
 CPU time for tranop_f12                          1.07 sec (36197.9 MFLOP/sec)
 CPU time for f12 integrals (total)               9.70 sec, Elapsed time:     11.77 sec
 CPU time for f12 matrices (total)                0.33 sec, Elapsed time:      0.43 sec

 Diagonal F12 approximation with fixed coefficients:  TSING= 0.500,  TTRIP= 0.250 (scaled by -1/beta)

 DF-MP2-F12 energy corrections:
 ==============================
 Approx.                                    Singlet             Triplet             Total
 DF-MP2-F12/3*C(DX,FIX)                -0.041415380859     -0.004144709891     -0.045560090750
 DF-MP2-F12/3*C(FIX)                   -0.039288367625     -0.003873569900     -0.043161937525
 DF-MP2-F12/3C(FIX)                    -0.039146871296     -0.003979423519     -0.043126294815

 DF-MP2-F12 correlation energies:
 ================================
 Approx.                                    Singlet             Triplet             Ecorr            Total Energy
 DF-MP2                                -0.320808230598     -0.155951731491     -0.476759962090   -116.755857339086
 DF-MP2-F12/3*C(DX,FIX)                -0.362223611458     -0.160096441382     -0.522320052840   -116.801417429836
 DF-MP2-F12/3*C(FIX)                   -0.360096598224     -0.159825301391     -0.519921899615   -116.799019276611
 DF-MP2-F12/3C(FIX)                    -0.359955101894     -0.159931155010     -0.519886256905   -116.798983633901

 SCS-DF-MP2 energies (F_SING= 1.20000  F_TRIP= 0.62222  F_PARALLEL= 0.33333):
 ============================================================================
 SCS-DF-MP2                            -0.482006509646   -116.761103886642
 SCS-DF-MP2-F12/3*C(DX,FIX)            -0.534283897276   -116.813381274272
 SCS-DF-MP2-F12/3*C(FIX)               -0.531562772067   -116.810660149064
 SCS-DF-MP2-F12/3C(FIX)                -0.531458840946   -116.810556217942
 Symmetry transformation completed.

 Number of N-1 electron functions:               8
 Number of N-2 electron functions:              36
 Number of singly external CSFs:              1632
 Number of doubly external CSFs:           1332528
 Total number of CSFs:                     1334161

 Length of J-op  integral file:             205.73 MB
 Length of K-op  integral file:             258.78 MB
 Length of 3-ext integral record:             0.00 MB

 Memory could be reduced to 93.27 Mwords without degradation in triples

 Integral transformation finished. Total CPU:   9.35 sec, npass=  1  Memory used:  48.07 MW

 Reference energy:                   -116.27909738

 Adding F12 terms to K(Cij), methodcc=6,  factor= 1.0

 ITER.      SQ.NORM     CORR.ENERGY   TOTAL ENERGY   ENERGY CHANGE        DEN1      VAR(S)    VAR(P)  DIIS     TIME  TIME/IT
   1      1.13264411    -0.49192753  -116.77102490    -0.01509074    -0.00352910  0.14D-02  0.20D-02  1  1    31.07     9.60
   2      1.14064727    -0.49249142  -116.77158879    -0.00056389    -0.00961352  0.30D-04  0.23D-03  2  2    39.69     9.39
   3      1.14367339    -0.49274791  -116.77184529    -0.00025650    -0.00214966  0.12D-04  0.14D-04  3  3    48.33     9.28
   4      1.14465264    -0.49278094  -116.77187832    -0.00003303    -0.00060860  0.60D-06  0.11D-05  4  4    56.93     9.22
   5      1.14481079    -0.49278010  -116.77187748     0.00000084    -0.00002999  0.16D-06  0.63D-07  5  5    65.57     9.20
   6      1.14484483    -0.49277793  -116.77187531     0.00000218    -0.00000676  0.14D-07  0.68D-08  6  6    74.19     9.18
   7      1.14485272    -0.49277726  -116.77187464     0.00000067    -0.00000235  0.21D-08  0.58D-09  6  2    82.82     9.17
   8      1.14485553    -0.49277714  -116.77187451     0.00000012    -0.00000057  0.18D-09  0.58D-10  6  1    91.46     9.16
   9      1.14485612    -0.49277714  -116.77187452    -0.00000001    -0.00000001  0.14D-10  0.11D-10  6  3   100.08     9.15
  10      1.14485620    -0.49277715  -116.77187453    -0.00000001     0.00000010  0.20D-11  0.13D-11  6  4   108.70     9.21
  11      1.14485617    -0.49277716  -116.77187454    -0.00000000     0.00000006  0.32D-12  0.15D-12  6  5   117.33     9.20
  12      1.14485614    -0.49277716  -116.77187453     0.00000000     0.00000001  0.63D-13  0.18D-13  6  6   125.96     9.19

 Norm of t1 vector:      0.04921180      S-energy:     0.00000000      T1 diagnostic:  0.00869950
                                                                       D1 diagnostic:  0.01851077

 Adding energy correction from Wij-K(Fij), methodcc=6  factor= 1.0
 
  CCSD correlation energy              -0.492777157981
  MP2-F12 correction (uncoupled)       -0.041704641717
  C*T doubles correction               -0.001127294574
  f12b correction                       0.007812447521


 Total CPU time for triples:    153.09 sec

  Ecorr(MP2)                           -0.476836789800
  Ecorr(MP2-F12)                       -0.519963084615
  Scale factor for triples energy       1.090442465299


 RESULTS
 =======

  Reference energy                   -116.277497304048
  F12 singles correction               -0.001600072948

 F12 singles corrections added to reference energy

  New reference energy               -116.279097376996

  F12a singlet correction              -0.038972684460
  F12a triplet correction              -0.003859251831
  F12a total correction                -0.042831936291

 F12a corrections for ansatz F12/3C(FIX) added to CCSD energy
 
  CCSD-F12a singlet pair energy        -0.389193686115
  CCSD-F12a triplet pair energy        -0.146415412047
  CCSD-F12a correlation energy         -0.535609094272

  Triples (T) contribution (scaled)    -0.016868173113
  Total correlation energy             -0.552477267385

  CCSD-F12a total energy             -116.814706471268
  CCSD[T]-F12a energy                -116.832158788435
  CCSD-T-F12a energy                 -116.831350943935
 !CCSD(T)-F12a total energy          -116.831574644381

 F12b corrections for ansatz F12/3C(FIX) added to CCSD(T)-F12a energy

  CCSD-F12b singlet pair energy        -0.381846988723
  CCSD-F12b triplet pair energy        -0.145949661918
  CCSD-F12b correlation energy         -0.527796646751

  Triples (T) contribution (scaled)    -0.016868173113
  Total correlation energy             -0.544664819864

  CCSD-F12b total energy             -116.806894023747
  CCSD[T]-F12b energy                -116.824346340914
  CCSD-T-F12b energy                 -116.823538496414
 !CCSD(T)-F12b total energy          -116.823762196861

 Timing summary (sec):

 STEP                 CPU(USER)    SYS     CPU(TOT)    WALL
 Transformation          9.46      1.12     10.58     11.08
 CCSD iterations       103.39      6.08    109.47    110.48
 Triples               153.09      2.53    155.62    155.67
 MP2-F12                13.13      1.34     14.47     15.52
 F12b energy             6.84      0.32      7.16      7.17

 Program statistics:

 Available memory in ccsd:              2999999464
 Min. memory needed in ccsd:               3963025
 Max. memory used in ccsd:                 5096465
 Max. memory used in cckext:               3666031 (13 integral passes)



 **********************************************************************************************************************************
 DATASETS  * FILE   NREC   LENGTH (MB)   RECORD NAMES
              1      20     2103.53       500      610      700      900      950      970     1000      129      960     1100   
                                          VAR    BASINP    GEOM    SYMINP    ZMAT    AOBASIS   BASIS     P2S    ABASIS      S 
                                         1400     1410     1200     1210     1080     1600     1650     1300     1700     1380   
                                           T        V       H0       H01     AOSYM     SMH    MOLCAS    ERIS     OPER     JKOP   

              2       6        4.74       700     1000      520     2100     7360     7350   
                                         GEOM     BASIS   MCVARS     RHF    F12ABS    EF12   

 PROGRAMS   *        TOTAL   CCSD(T)        HF       INT
 CPU TIMES  *       326.88    285.94     25.22     15.60
 REAL TIME  *       377.66 SEC
 DISK USED  *         5.03 GB      
 **********************************************************************************************************************************
 SETTING E_F12_AB(1)    =      -116.83157464  AU                              
 SETTING E_F12_AB(2)    =      -116.82376220  AU                              

 Dummy atoms: O1  H5  H6


 Recomputing one-electron integrals since nuclear charges changed


 PROGRAM * SEWARD (Integral evaluation for generally contracted gaussian basis sets)     Author: Roland Lindh, 1990

 Geometry written to block  1 of record 700


 Point group  C1  



 ATOMIC COORDINATES

 NR  ATOM    CHARGE       X              Y              Z

   1  C1      6.00   -6.193010455    2.801518980    2.403542658
   2  H1      1.00   -4.656285171    1.699997622    3.119937832
   3  H2      1.00   -5.973046335    4.726205038    2.982932688
   4  H3      1.00   -7.940251230    2.077186956    3.118237078
   5  H4      1.00   -6.176569838    2.685300823    0.384937212
   6  O1      0.00   -0.286671453    5.096969303   -1.596440630
   7  H5      0.00    1.007979915    5.665587894   -2.749362539
   8  H6      0.00   -1.895773248    5.235675201   -2.565492187

 Bond lengths in Bohr (Angstrom)

 1-2  2.021904040  1-3  2.022002335  1-4  2.021953343  1-5  2.022015060  6-7  1.824466550
     ( 1.069945541)     ( 1.069997556)     ( 1.069971630)     ( 1.070004290)     ( 0.965466121)

 6-8  1.883483165
     ( 0.996696368)

 Bond angles

  2-1-3  109.53398059   2-1-4  109.65604535   2-1-5  108.43490854   3-1-4  109.49436728

  3-1-5  109.86987750   4-1-5  109.83468330   7-6-8  104.96066383

 NUCLEAR CHARGE:                   10
 NUMBER OF PRIMITIVE AOS:         270
 NUMBER OF SYMMETRY AOS:          246
 NUMBER OF CONTRACTIONS:          214   ( 214A   )
 NUMBER OF CORE ORBITALS:           1   (   1A   )
 NUMBER OF VALENCE ORBITALS:        8   (   8A   )

 MOLECULE CHANGED: INITIALIZING OCCUPATION AND DUMP RECORDS


 NUCLEAR REPULSION ENERGY   13.68681606


 Eigenvalues of metric

         1 0.728E-04 0.186E-03 0.278E-03 0.331E-03 0.336E-03 0.441E-03 0.545E-03 0.564E-03


 Contracted 2-electron integrals neglected if value below      1.0D-19

 OPERATOR DM      FOR CENTER  0  COORDINATES:    0.000000    0.000000    0.000000


 **********************************************************************************************************************************
 DATASETS  * FILE   NREC   LENGTH (MB)   RECORD NAMES
              1      19     1809.98       500      610      700      900      950      970     1000      129      960     1100   
                                          VAR    BASINP    GEOM    SYMINP    ZMAT    AOBASIS   BASIS     P2S    ABASIS      S 
                                         1400     1410     1200     1210     1080     1600     1650     1300     1700   
                                           T        V       H0       H01     AOSYM     SMH    MOLCAS    ERIS     OPER   

              2       6        4.74       700     1000      520     2100     7360     7350   
                                         GEOM     BASIS   MCVARS     RHF    F12ABS    EF12   

 PROGRAMS   *        TOTAL       INT   CCSD(T)        HF       INT
 CPU TIMES  *       326.95      0.06    285.94     25.22     15.60
 REAL TIME  *       378.54 SEC
 DISK USED  *         5.03 GB      
 **********************************************************************************************************************************


 PROGRAM * RHF-SCF (CLOSED SHELL)       Authors: W. Meyer, H.-J. Werner


 NUMBER OF ELECTRONS:       5+    5-    SPACE SYMMETRY=1    SPIN SYMMETRY: Singlet 
 CONVERGENCE THRESHOLDS:    1.00E-04 (Density)    1.00E-09 (Energy)
 MAX. NUMBER OF ITERATIONS:       60
 INTERPOLATION TYPE:            DIIS
 INTERPOLATION STEPS:              2 (START)      1 (STEP)
 LEVEL SHIFTS:                  0.00 (CLOSED)  0.00 (OPEN) 



 Orbital guess generated from atomic densities. Full valence occupancy:    9

 Molecular orbital dump at record        2101.2

 Initial occupancy:   5

 ITERATION    DDIFF          GRAD             ENERGY        2-EL.EN.            DIPOLE MOMENTS         DIIS   ORB.
    1      0.000D+00      0.000D+00       -40.19565510     53.501367    0.00412   -0.00276   -0.00134    0    start
    2      0.000D+00      0.368D-02       -40.21290024     52.216654    0.00129   -0.00089   -0.00040    1    diag
    3      0.319D-02      0.143D-02       -40.21516913     52.670311    0.00182   -0.00125   -0.00057    2    diag
    4      0.855D-03      0.357D-03       -40.21548738     52.615364    0.00160   -0.00111   -0.00050    3    diag
    5      0.325D-03      0.463D-04       -40.21549285     52.617518    0.00157   -0.00109   -0.00049    4    diag
    6      0.557D-04      0.375D-05       -40.21549289     52.617663    0.00157   -0.00109   -0.00049    5    diag
    7      0.861D-05      0.302D-06       -40.21549289     52.617623    0.00157   -0.00109   -0.00049    6    diag
    8      0.992D-06      0.227D-07       -40.21549289     52.617624    0.00157   -0.00109   -0.00049    0    orth

 Final occupancy:   5

 !RHF STATE 1.1 Energy                -40.215492889873
 Nuclear energy                        13.68681606
 One-electron energy                  -80.21112113
 Two-electron energy                   26.30881219
 Virial quotient                       -0.99832363
 !RHF STATE 1.1 Dipole moment           0.00157051    -0.00109344    -0.00048819
 Dipole moment /Debye                   0.00399156    -0.00277906    -0.00124079

 Orbital energies:

         1.1          2.1          3.1          4.1          5.1          6.1          7.1
    -11.196271    -0.950712    -0.551937    -0.550005    -0.547823     0.050137     0.065742

 HOMO      5.1    -0.547823 =     -14.9070eV
 LUMO      6.1     0.050137 =       1.3643eV
 LUMO-HOMO         0.597961 =      16.2713eV


 **********************************************************************************************************************************
 DATASETS  * FILE   NREC   LENGTH (MB)   RECORD NAMES
              1      19     1809.98       500      610      700      900      950      970     1000      129      960     1100   
                                          VAR    BASINP    GEOM    SYMINP    ZMAT    AOBASIS   BASIS     P2S    ABASIS      S 
                                         1400     1410     1200     1210     1080     1600     1650     1300     1700   
                                           T        V       H0       H01     AOSYM     SMH    MOLCAS    ERIS     OPER   

              2       7        8.14       700     1000      520     2100     7360     7350     2101   
                                         GEOM     BASIS   MCVARS     RHF    F12ABS    EF12      RHF  

 PROGRAMS   *        TOTAL        HF       INT   CCSD(T)        HF       INT
 CPU TIMES  *       347.59     20.65      0.06    285.94     25.22     15.60
 REAL TIME  *       403.08 SEC
 DISK USED  *         5.03 GB      
 **********************************************************************************************************************************
 SETTING E_HF_A         =       -40.21549289  AU                              


 PROGRAM * CCSD (Closed-shell coupled cluster)     Authors: C. Hampel, H.-J. Werner, 1991, M. Deegan, P.J. Knowles, 1992

                                  CCSD-F12 implementation by  H.-J. Werner, 2007

                   Density fitting integral evaluation by F.R. Manby, 2003,2007, G. Knizia, 2010

 Basis set CC-PVTZ/JKFIT generated.      Number of basis functions:   338 
 Basis set CC-PVTZ-F12/OPTRI generated.  Number of basis functions:   396 
 Basis set AUG-CC-PVTZ/MP2FIT generated. Number of basis functions:   488 

 Convergence thresholds:  THRVAR = 1.00D-08  THRDEN = 1.00D-08

 CCSD(T)     terms to be evaluated (factor= 1.000)


 Number of core orbitals:           1 (   1 )
 Number of closed-shell orbitals:   4 (   4 )
 Number of external orbitals:     209 ( 209 )

 Molecular orbitals read from record     2101.2  Type=RHF/CANONICAL (state 1.1)

 MP2-F12 correlation treatment (H.-J. Werner, 2006)
 ==================================================

 Using MP2-F12 with ansatz 3C(FIX)

 Using projected zeroth-order Hamiltonian (+Z)

 FOCKRIB=T FOCKRIC=T FOCKRIP=T CABSP=T CABSA=T CABSK=T CABSF=T GBC=F EBC=F DMAT=T NOFIK=T NOPAO=1 SOLVE=-1  USEPAO=0
 EXCH_A= T EXCH_B= F EXCH_C= F EXCH_P= F
 
 Geminal basis:    OPTFULL  GEM_TYPE=SLATER  BETA=1.0  NGEM=6

 Optimizing Gaussian exponents for each gem_beta

 Geminal optimization for beta= 1.0000
 Weight function:   m=0, omega= 1.4646

 Augmented Hessian optimization of geminal fit. Trust ratio= 0.40000
 Convergence reached after   2 iterations. Final gradient= 8.26D-16, Step= 4.26D-06, Delta= 1.28D-09
 
 Alpha:                 0.19532     0.81920     2.85917     9.50073    35.69989   197.79328
 Coeff:                 0.27070     0.30552     0.18297     0.10986     0.06810     0.04224
 

 All pairs explicitly correlated. Number of r12-pairs:           10

 Excluding core orbitals from MO domains
 
 AO(A)-basis ORBITAL           loaded. Number of functions:     214
 RI(R)-basis CC-PVTZ-F12/OPTRI loaded. Number of functions:     396
 DF-basis CC-PVTZ/JKFIT        loaded. Number of functions:     338

 Screening thresholds:   THRAO=  1.00D-10  THRMO=  1.00D-09  THRPROD=  1.00D-09
                         THRSW=  1.00D-05  THROV=  1.00D-12  THRAOF12=   1.00D-08

 CPU time for Fock operators                      2.67 sec
 
 Construction of ABS:
 Smallest eigenvalue of S          4.13E-04  (threshold= 1.00E-08)
 Ratio eigmin/eigmax               5.31E-05  (threshold= 1.00E-09)
 Smallest eigenvalue of S kept     4.13E-04  (threshold= 4.13E-04, 0 functions deleted, 396 kept)
 
 Construction of CABS:
 Smallest eigenvalue of S          8.30E-07  (threshold= 1.00E-08)
 Ratio eigmin/eigmax               8.30E-07  (threshold= 1.00E-09)
 Smallest eigenvalue of S kept     8.30E-07  (threshold= 8.30E-07, 0 functions deleted, 396 kept)
 
 CPU time for CABS singles                        0.11 sec

 CABS-singles contribution of  -0.00063539 patched into reference energy.
 New reference energy         -40.21612828
 
 AO(A)-basis ORBITAL           loaded. Number of functions:     214
 RI(R)-basis CC-PVTZ-F12/OPTRI loaded. Number of functions:     396
 DF-basis AUG-CC-PVTZ/MP2FIT   loaded. Number of functions:     488

 Screening thresholds:   THRAO=  1.00D-10  THRMO=  1.00D-09  THRPROD=  1.00D-09
                         THRSW=  1.00D-05  THROV=  1.00D-12  THRAOF12=   1.00D-08

 CPU time for 3-index integral evaluation         5.76 sec
 CPU time for first  half transformation          0.40 sec ( 6437.2 MFLOP/sec)
 CPU time for second half transformation          0.03 sec (  974.7 MFLOP/sec)
 CPU time for sorting                             0.02 sec
 CPU time for fitting                             0.04 sec (29768.0 MFLOP/sec)
 CPU time for tilde quantities                    0.04 sec (39722.4 MFLOP/sec)
 CPU time for assembly                            0.21 sec (37981.3 MFLOP/sec)
 CPU time for tranop_f12                          0.26 sec (36852.4 MFLOP/sec)
 CPU time for f12 integrals (total)               7.21 sec, Elapsed time:      8.90 sec
 CPU time for f12 matrices (total)                0.08 sec, Elapsed time:      0.76 sec

 Diagonal F12 approximation with fixed coefficients:  TSING= 0.500,  TTRIP= 0.250 (scaled by -1/beta)

 DF-MP2-F12 energy corrections:
 ==============================
 Approx.                                    Singlet             Triplet             Total
 DF-MP2-F12/3*C(DX,FIX)                -0.016291321763     -0.001140390214     -0.017431711977
 DF-MP2-F12/3*C(FIX)                   -0.015930937587     -0.001150320095     -0.017081257682
 DF-MP2-F12/3C(FIX)                    -0.015861945538     -0.001157371722     -0.017019317260

 DF-MP2-F12 correlation energies:
 ================================
 Approx.                                    Singlet             Triplet             Ecorr            Total Energy
 DF-MP2                                -0.145610542138     -0.055803923454     -0.201414465593    -40.417542743659
 DF-MP2-F12/3*C(DX,FIX)                -0.161901863901     -0.056944313668     -0.218846177569    -40.434974455635
 DF-MP2-F12/3*C(FIX)                   -0.161541479725     -0.056954243550     -0.218495723274    -40.434624001340
 DF-MP2-F12/3C(FIX)                    -0.161472487677     -0.056961295176     -0.218433782853    -40.434562060919

 SCS-DF-MP2 energies (F_SING= 1.20000  F_TRIP= 0.62222  F_PARALLEL= 0.33333):
 ============================================================================
 SCS-DF-MP2                            -0.209455091826    -40.425583369892
 SCS-DF-MP2-F12/3*C(DX,FIX)            -0.229714254075    -40.445842532141
 SCS-DF-MP2-F12/3*C(FIX)               -0.229287971656    -40.445416249722
 SCS-DF-MP2-F12/3C(FIX)                -0.229209568877    -40.445337846943
 Symmetry transformation completed.

 Number of N-1 electron functions:               4
 Number of N-2 electron functions:              10
 Number of singly external CSFs:               836
 Number of doubly external CSFs:            349866
 Total number of CSFs:                      350703

 Length of J-op  integral file:              53.89 MB
 Length of K-op  integral file:              87.81 MB
 Length of 3-ext integral record:             0.00 MB

 Memory could be reduced to 60.96 Mwords without degradation in triples

 Integral transformation finished. Total CPU:   5.62 sec, npass=  1  Memory used:  26.32 MW

 Reference energy:                    -40.21612828

 Adding F12 terms to K(Cij), methodcc=6,  factor= 1.0

 ITER.      SQ.NORM     CORR.ENERGY   TOTAL ENERGY   ENERGY CHANGE        DEN1      VAR(S)    VAR(P)  DIIS     TIME  TIME/IT
   1      1.06960404    -0.21651724   -40.43264551    -0.01506797    -0.00954312  0.62D-03  0.94D-03  1  1    19.54     3.88
   2      1.07445909    -0.21733366   -40.43346194    -0.00081643    -0.00516301  0.14D-04  0.90D-04  2  2    23.39     4.03
   3      1.07598024    -0.21744504   -40.43357332    -0.00011137    -0.00108917  0.20D-05  0.57D-05  3  3    27.26     4.08
   4      1.07634948    -0.21745959   -40.43358786    -0.00001455    -0.00020072  0.12D-06  0.30D-06  4  4    31.14     6.14
   5      1.07640133    -0.21745921   -40.43358749     0.00000037    -0.00000933  0.77D-08  0.15D-07  5  5    35.00     5.75
   6      1.07640763    -0.21745795   -40.43358623     0.00000126    -0.00000296  0.31D-09  0.83D-09  6  6    38.88     5.49
   7      1.07640837    -0.21745789   -40.43358617     0.00000006    -0.00000040  0.18D-10  0.59D-10  6  1    42.72     5.30
   8      1.07640843    -0.21745792   -40.43358619    -0.00000003     0.00000003  0.24D-11  0.55D-11  6  2    46.59     5.16
   9      1.07640844    -0.21745792   -40.43358620    -0.00000000     0.00000002  0.20D-12  0.33D-12  6  3    50.45     5.05
  10      1.07640844    -0.21745792   -40.43358620     0.00000000     0.00000001  0.22D-13  0.30D-13  6  4    54.31     4.97

 Norm of t1 vector:      0.03261096      S-energy:    -0.00000000      T1 diagnostic:  0.00815274
                                                                       D1 diagnostic:  0.01306919

 Adding energy correction from Wij-K(Fij), methodcc=6  factor= 1.0
 
  CCSD correlation energy              -0.217457919689
  MP2-F12 correction (uncoupled)       -0.016721145988
  C*T doubles correction               -0.000290039461
  f12b correction                       0.003526247748


 Total CPU time for triples:     21.75 sec

  Ecorr(MP2)                           -0.201449265415
  Ecorr(MP2-F12)                       -0.218468582675
  Scale factor for triples energy       1.084484384815


 RESULTS
 =======

  Reference energy                    -40.215492889873
  F12 singles correction               -0.000635388193

 F12 singles corrections added to reference energy

  New reference energy                -40.216128278066

  F12a singlet correction              -0.015866259837
  F12a triplet correction              -0.001144925612
  F12a total correction                -0.017011185449

 F12a corrections for ansatz F12/3C(FIX) added to CCSD energy
 
  CCSD-F12a singlet pair energy        -0.179253441437
  CCSD-F12a triplet pair energy        -0.055215663377
  CCSD-F12a correlation energy         -0.234469105138

  Triples (T) contribution (scaled)    -0.006988062907
  Total correlation energy             -0.241457168045

  CCSD-F12a total energy              -40.450597383205
  CCSD[T]-F12a energy                 -40.457826912936
  CCSD-T-F12a energy                  -40.457512069647
 !CCSD(T)-F12a total energy           -40.457585446111

 F12b corrections for ansatz F12/3C(FIX) added to CCSD(T)-F12a energy

  CCSD-F12b singlet pair energy        -0.175882088925
  CCSD-F12b triplet pair energy        -0.055060768141
  CCSD-F12b correlation energy         -0.230942857390

  Triples (T) contribution (scaled)    -0.006988062907
  Total correlation energy             -0.237930920297

  CCSD-F12b total energy              -40.447071135456
  CCSD[T]-F12b energy                 -40.454300665188
  CCSD-T-F12b energy                  -40.453985821899
 !CCSD(T)-F12b total energy           -40.454059198363

 Timing summary (sec):

 STEP                 CPU(USER)    SYS     CPU(TOT)    WALL
 Transformation          5.65      0.61      6.26      6.29
 CCSD iterations        38.43      3.16     41.59     49.77
 Triples                21.75      0.34     22.09     22.09
 MP2-F12                10.24      0.43     10.67     16.50
 F12b energy             3.33      0.31      3.64      3.65

 Program statistics:

 Available memory in ccsd:              2999999786
 Min. memory needed in ccsd:               1609972
 Max. memory used in ccsd:                 1864434
 Max. memory used in cckext:               1252381 (11 integral passes)



 **********************************************************************************************************************************
 DATASETS  * FILE   NREC   LENGTH (MB)   RECORD NAMES
              1      20     1962.98       500      610      700      900      950      970     1000      129      960     1100   
                                          VAR    BASINP    GEOM    SYMINP    ZMAT    AOBASIS   BASIS     P2S    ABASIS      S 
                                         1400     1410     1200     1210     1080     1600     1650     1300     1700     1380   
                                           T        V       H0       H01     AOSYM     SMH    MOLCAS    ERIS     OPER     JKOP   

              2       7        8.14       700     1000      520     2100     7360     7350     2101   
                                         GEOM     BASIS   MCVARS     RHF    F12ABS    EF12      RHF  

 PROGRAMS   *        TOTAL   CCSD(T)        HF       INT   CCSD(T)        HF       INT
 CPU TIMES  *       427.03     79.44     20.65      0.06    285.94     25.22     15.60
 REAL TIME  *       505.52 SEC
 DISK USED  *         5.03 GB      
 **********************************************************************************************************************************
 SETTING E_F12_A(1)     =       -40.45758545  AU                              
 SETTING E_F12_A(2)     =       -40.45405920  AU                              

 Dummy atoms: C1  H1  H2  H3  H4


 Recomputing one-electron integrals since nuclear charges changed


 PROGRAM * SEWARD (Integral evaluation for generally contracted gaussian basis sets)     Author: Roland Lindh, 1990

 Geometry written to block  1 of record 700


 Point group  C1  



 ATOMIC COORDINATES

 NR  ATOM    CHARGE       X              Y              Z

   1  C1      0.00   -6.193010455    2.801518980    2.403542658
   2  H1      0.00   -4.656285171    1.699997622    3.119937832
   3  H2      0.00   -5.973046335    4.726205038    2.982932688
   4  H3      0.00   -7.940251230    2.077186956    3.118237078
   5  H4      0.00   -6.176569838    2.685300823    0.384937212
   6  O1      8.00   -0.286671453    5.096969303   -1.596440630
   7  H5      1.00    1.007979915    5.665587894   -2.749362539
   8  H6      1.00   -1.895773248    5.235675201   -2.565492187

 Bond lengths in Bohr (Angstrom)

 1-2  2.021904040  1-3  2.022002335  1-4  2.021953343  1-5  2.022015060  6-7  1.824466550
     ( 1.069945541)     ( 1.069997556)     ( 1.069971630)     ( 1.070004290)     ( 0.965466121)

 6-8  1.883483165
     ( 0.996696368)

 Bond angles

  2-1-3  109.53398059   2-1-4  109.65604535   2-1-5  108.43490854   3-1-4  109.49436728

  3-1-5  109.86987750   4-1-5  109.83468330   7-6-8  104.96066383

 NUCLEAR CHARGE:                   10
 NUMBER OF PRIMITIVE AOS:         270
 NUMBER OF SYMMETRY AOS:          246
 NUMBER OF CONTRACTIONS:          214   ( 214A   )
 NUMBER OF CORE ORBITALS:           1   (   1A   )
 NUMBER OF VALENCE ORBITALS:        6   (   6A   )

 MOLECULE CHANGED: INITIALIZING OCCUPATION AND DUMP RECORDS


 NUCLEAR REPULSION ENERGY    8.97229507


 Eigenvalues of metric

         1 0.728E-04 0.186E-03 0.278E-03 0.331E-03 0.336E-03 0.441E-03 0.545E-03 0.564E-03


 Contracted 2-electron integrals neglected if value below      1.0D-19

 OPERATOR DM      FOR CENTER  0  COORDINATES:    0.000000    0.000000    0.000000


 **********************************************************************************************************************************
 DATASETS  * FILE   NREC   LENGTH (MB)   RECORD NAMES
              1      19     1809.98       500      610      700      900      950      970     1000      129      960     1100   
                                          VAR    BASINP    GEOM    SYMINP    ZMAT    AOBASIS   BASIS     P2S    ABASIS      S 
                                         1400     1410     1200     1210     1080     1600     1650     1300     1700   
                                           T        V       H0       H01     AOSYM     SMH    MOLCAS    ERIS     OPER   

              2       7        8.14       700     1000      520     2100     7360     7350     2101   
                                         GEOM     BASIS   MCVARS     RHF    F12ABS    EF12      RHF  

 PROGRAMS   *        TOTAL       INT   CCSD(T)        HF       INT   CCSD(T)        HF       INT
 CPU TIMES  *       427.10      0.06     79.44     20.65      0.06    285.94     25.22     15.60
 REAL TIME  *       505.80 SEC
 DISK USED  *         5.03 GB      
 **********************************************************************************************************************************


 PROGRAM * RHF-SCF (CLOSED SHELL)       Authors: W. Meyer, H.-J. Werner


 NUMBER OF ELECTRONS:       5+    5-    SPACE SYMMETRY=1    SPIN SYMMETRY: Singlet 
 CONVERGENCE THRESHOLDS:    1.00E-04 (Density)    1.00E-09 (Energy)
 MAX. NUMBER OF ITERATIONS:       60
 INTERPOLATION TYPE:            DIIS
 INTERPOLATION STEPS:              2 (START)      1 (STEP)
 LEVEL SHIFTS:                  0.00 (CLOSED)  0.00 (OPEN) 



 Orbital guess generated from atomic densities. Full valence occupancy:    7

 Molecular orbital dump at record        2102.2

 Initial occupancy:   5

 ITERATION    DDIFF          GRAD             ENERGY        2-EL.EN.            DIPOLE MOMENTS         DIIS   ORB.
    1      0.000D+00      0.000D+00       -76.02341399     77.367540   -0.17184    0.36147   -1.08842    0    start
    2      0.000D+00      0.672D-02       -76.05027833     73.704413   -0.09086    0.21208   -0.63507    1    diag
    3      0.463D-02      0.429D-02       -76.06193899     75.333428   -0.10895    0.24957   -0.74803    2    diag
    4      0.163D-02      0.403D-03       -76.06213715     75.240771   -0.10632    0.24828   -0.74345    3    diag
    5      0.232D-03      0.114D-03       -76.06215898     75.255488   -0.10525    0.24781   -0.74173    4    diag
    6      0.821D-04      0.229D-04       -76.06216042     75.254372   -0.10490    0.24770   -0.74129    5    diag
    7      0.232D-04      0.466D-05       -76.06216049     75.254526   -0.10481    0.24766   -0.74114    6    diag
    8      0.515D-05      0.882D-06       -76.06216050     75.254513   -0.10479    0.24765   -0.74110    7    diag
    9      0.972D-06      0.118D-06       -76.06216050     75.254503   -0.10479    0.24765   -0.74109    8    diag
   10      0.160D-06      0.271D-07       -76.06216050     75.254508   -0.10479    0.24765   -0.74109    0    orth

 Final occupancy:   5

 !RHF STATE 1.1 Energy                -76.062160495734
 Nuclear energy                         8.97229507
 One-electron energy                 -122.66170950
 Two-electron energy                   37.62725394
 Virial quotient                       -1.00206396
 !RHF STATE 1.1 Dipole moment          -0.10478979     0.24764608    -0.74109296
 Dipole moment /Debye                  -0.26633163     0.62941233    -1.88354704

 Orbital energies:

         1.1          2.1          3.1          4.1          5.1          6.1          7.1
    -20.568760    -1.340901    -0.705944    -0.579491    -0.508505     0.042915     0.059634

 HOMO      5.1    -0.508505 =     -13.8371eV
 LUMO      6.1     0.042915 =       1.1678eV
 LUMO-HOMO         0.551420 =      15.0049eV


 **********************************************************************************************************************************
 DATASETS  * FILE   NREC   LENGTH (MB)   RECORD NAMES
              1      19     1809.98       500      610      700      900      950      970     1000      129      960     1100   
                                          VAR    BASINP    GEOM    SYMINP    ZMAT    AOBASIS   BASIS     P2S    ABASIS      S 
                                         1400     1410     1200     1210     1080     1600     1650     1300     1700   
                                           T        V       H0       H01     AOSYM     SMH    MOLCAS    ERIS     OPER   

              2       8       12.47       700     1000      520     2100     7360     7350     2101     2102   
                                         GEOM     BASIS   MCVARS     RHF    F12ABS    EF12      RHF      RHF  

 PROGRAMS   *        TOTAL        HF       INT   CCSD(T)        HF       INT   CCSD(T)        HF       INT
 CPU TIMES  *       452.27     25.17      0.06     79.44     20.65      0.06    285.94     25.22     15.60
 REAL TIME  *       602.56 SEC
 DISK USED  *         5.03 GB      
 **********************************************************************************************************************************
 SETTING E_HF_B         =       -76.06216050  AU                              


 PROGRAM * CCSD (Closed-shell coupled cluster)     Authors: C. Hampel, H.-J. Werner, 1991, M. Deegan, P.J. Knowles, 1992

                                  CCSD-F12 implementation by  H.-J. Werner, 2007

                   Density fitting integral evaluation by F.R. Manby, 2003,2007, G. Knizia, 2010

 Basis set CC-PVTZ/JKFIT generated.      Number of basis functions:   338 
 Basis set CC-PVTZ-F12/OPTRI generated.  Number of basis functions:   396 
 Basis set AUG-CC-PVTZ/MP2FIT generated. Number of basis functions:   488 

 Convergence thresholds:  THRVAR = 1.00D-08  THRDEN = 1.00D-08

 CCSD(T)     terms to be evaluated (factor= 1.000)


 Number of core orbitals:           1 (   1 )
 Number of closed-shell orbitals:   4 (   4 )
 Number of external orbitals:     209 ( 209 )

 Molecular orbitals read from record     2102.2  Type=RHF/CANONICAL (state 1.1)

 MP2-F12 correlation treatment (H.-J. Werner, 2006)
 ==================================================

 Using MP2-F12 with ansatz 3C(FIX)

 Using projected zeroth-order Hamiltonian (+Z)

 FOCKRIB=T FOCKRIC=T FOCKRIP=T CABSP=T CABSA=T CABSK=T CABSF=T GBC=F EBC=F DMAT=T NOFIK=T NOPAO=1 SOLVE=-1  USEPAO=0
 EXCH_A= T EXCH_B= F EXCH_C= F EXCH_P= F
 
 Geminal basis:    OPTFULL  GEM_TYPE=SLATER  BETA=1.0  NGEM=6

 Optimizing Gaussian exponents for each gem_beta

 Geminal optimization for beta= 1.0000
 Weight function:   m=0, omega= 1.4646

 Augmented Hessian optimization of geminal fit. Trust ratio= 0.40000
 Convergence reached after   2 iterations. Final gradient= 8.26D-16, Step= 4.26D-06, Delta= 1.28D-09
 
 Alpha:                 0.19532     0.81920     2.85917     9.50073    35.69989   197.79328
 Coeff:                 0.27070     0.30552     0.18297     0.10986     0.06810     0.04224
 

 All pairs explicitly correlated. Number of r12-pairs:           10

 Excluding core orbitals from MO domains
 
 AO(A)-basis ORBITAL           loaded. Number of functions:     214
 RI(R)-basis CC-PVTZ-F12/OPTRI loaded. Number of functions:     396
 DF-basis CC-PVTZ/JKFIT        loaded. Number of functions:     338

 Screening thresholds:   THRAO=  1.00D-10  THRMO=  1.00D-09  THRPROD=  1.00D-09
                         THRSW=  1.00D-05  THROV=  1.00D-12  THRAOF12=   1.00D-08

 CPU time for Fock operators                      2.65 sec
 
 Construction of ABS:
 Smallest eigenvalue of S          4.13E-04  (threshold= 1.00E-08)
 Ratio eigmin/eigmax               5.31E-05  (threshold= 1.00E-09)
 Smallest eigenvalue of S kept     4.13E-04  (threshold= 4.13E-04, 0 functions deleted, 396 kept)
 
 Construction of CABS:
 Smallest eigenvalue of S          8.30E-07  (threshold= 1.00E-08)
 Ratio eigmin/eigmax               8.30E-07  (threshold= 1.00E-09)
 Smallest eigenvalue of S kept     8.30E-07  (threshold= 8.30E-07, 0 functions deleted, 396 kept)
 
 CPU time for CABS singles                        0.11 sec

 CABS-singles contribution of  -0.00096505 patched into reference energy.
 New reference energy         -76.06312555
 
 AO(A)-basis ORBITAL           loaded. Number of functions:     214
 RI(R)-basis CC-PVTZ-F12/OPTRI loaded. Number of functions:     396
 DF-basis AUG-CC-PVTZ/MP2FIT   loaded. Number of functions:     488

 Screening thresholds:   THRAO=  1.00D-10  THRMO=  1.00D-09  THRPROD=  1.00D-09
                         THRSW=  1.00D-05  THROV=  1.00D-12  THRAOF12=   1.00D-08

 CPU time for 3-index integral evaluation         5.77 sec
 CPU time for first  half transformation          0.40 sec ( 6437.2 MFLOP/sec)
 CPU time for sorting                             0.01 sec
 CPU time for fitting                             0.03 sec (39690.7 MFLOP/sec)
 CPU time for tilde quantities                    0.04 sec (39722.4 MFLOP/sec)
 CPU time for assembly                            0.20 sec (39880.4 MFLOP/sec)
 CPU time for tranop_f12                          0.26 sec (36852.4 MFLOP/sec)
 CPU time for f12 integrals (total)               7.19 sec, Elapsed time:      7.77 sec
 CPU time for f12 matrices (total)                0.08 sec, Elapsed time:      0.09 sec

 Diagonal F12 approximation with fixed coefficients:  TSING= 0.500,  TTRIP= 0.250 (scaled by -1/beta)

 DF-MP2-F12 energy corrections:
 ==============================
 Approx.                                    Singlet             Triplet             Total
 DF-MP2-F12/3*C(DX,FIX)                -0.025118367169     -0.002996626648     -0.028114993817
 DF-MP2-F12/3*C(FIX)                   -0.023351224061     -0.002711584272     -0.026062808334
 DF-MP2-F12/3C(FIX)                    -0.023277363344     -0.002808230363     -0.026085593707

 DF-MP2-F12 correlation energies:
 ================================
 Approx.                                    Singlet             Triplet             Ecorr            Total Energy
 DF-MP2                                -0.175065287482     -0.099822200849     -0.274887488331    -76.338013034397
 DF-MP2-F12/3*C(DX,FIX)                -0.200183654651     -0.102818827497     -0.303002482148    -76.366128028214
 DF-MP2-F12/3*C(FIX)                   -0.198416511544     -0.102533785122     -0.300950296665    -76.364075842731
 DF-MP2-F12/3C(FIX)                    -0.198342650826     -0.102630431212     -0.300973082039    -76.364098628104

 SCS-DF-MP2 energies (F_SING= 1.20000  F_TRIP= 0.62222  F_PARALLEL= 0.33333):
 ============================================================================
 SCS-DF-MP2                            -0.272189936618    -76.335315482684
 SCS-DF-MP2-F12/3*C(DX,FIX)            -0.304196544913    -76.367322090979
 SCS-DF-MP2-F12/3*C(FIX)               -0.301898613483    -76.365024159549
 SCS-DF-MP2-F12/3C(FIX)                -0.301870115968    -76.364995662034
 Symmetry transformation completed.

 Number of N-1 electron functions:               4
 Number of N-2 electron functions:              10
 Number of singly external CSFs:               836
 Number of doubly external CSFs:            349866
 Total number of CSFs:                      350703

 Length of J-op  integral file:              53.89 MB
 Length of K-op  integral file:              87.81 MB
 Length of 3-ext integral record:             0.00 MB

 Memory could be reduced to 60.96 Mwords without degradation in triples

 Integral transformation finished. Total CPU:   5.58 sec, npass=  1  Memory used:  26.32 MW

 Reference energy:                    -76.06312555

 Adding F12 terms to K(Cij), methodcc=6,  factor= 1.0

 ITER.      SQ.NORM     CORR.ENERGY   TOTAL ENERGY   ENERGY CHANGE        DEN1      VAR(S)    VAR(P)  DIIS     TIME  TIME/IT
   1      1.06286095    -0.27499221   -76.33811776    -0.00006265     0.00596766  0.77D-03  0.10D-02  1  1    19.48     3.87
   2      1.06629135    -0.27474374   -76.33786928     0.00024848    -0.00471112  0.14D-04  0.11D-03  2  2    23.36     4.03
   3      1.06752762    -0.27488087   -76.33800642    -0.00013714    -0.00083158  0.93D-05  0.74D-05  3  3    27.20     4.08
   4      1.06809590    -0.27490352   -76.33802907    -0.00002265    -0.00036837  0.46D-06  0.59D-06  4  4    31.04     4.10
   5      1.06819281    -0.27490195   -76.33802749     0.00000158    -0.00002139  0.13D-06  0.37D-07  5  5    34.91     4.12
   6      1.06821920    -0.27490059   -76.33802614     0.00000135    -0.00000442  0.12D-07  0.38D-08  6  6    38.74     4.13
   7      1.06822600    -0.27490020   -76.33802575     0.00000039    -0.00000154  0.11D-08  0.32D-09  6  1    42.61     4.16
   8      1.06822752    -0.27490026   -76.33802581    -0.00000006    -0.00000002  0.10D-09  0.42D-10  6  2    46.47     4.16
   9      1.06822788    -0.27490026   -76.33802581    -0.00000000     0.00000006  0.81D-11  0.75D-11  6  4    50.32     4.16
  10      1.06822800    -0.27490026   -76.33802580     0.00000000    -0.00000000  0.15D-11  0.55D-12  6  3    54.15     4.16

 Norm of t1 vector:      0.03649018      S-energy:     0.00000001      T1 diagnostic:  0.00912254
                                                                       D1 diagnostic:  0.01831256

 Adding energy correction from Wij-K(Fij), methodcc=6  factor= 1.0
 
  CCSD correlation energy              -0.274900258473
  MP2-F12 correction (uncoupled)       -0.024967500126
  C*T doubles correction               -0.000834042295
  f12b correction                       0.004282263727

 Total CPU time for triples:     21.73 sec

  Ecorr(MP2)                           -0.274929558777
  Ecorr(MP2-F12)                       -0.301015152484
  Scale factor for triples energy       1.094881008151


 RESULTS
 =======

  Reference energy                    -76.062160495734
  F12 singles correction               -0.000965050332

 F12 singles corrections added to reference energy

  New reference energy                -76.063125546066

  F12a singlet correction              -0.023099798542
  F12a triplet correction              -0.002701743880
  F12a total correction                -0.025801542422

 F12a corrections for ansatz F12/3C(FIX) added to CCSD energy
 
  CCSD-F12a singlet pair energy        -0.209838807295
  CCSD-F12a triplet pair energy        -0.090863000968
  CCSD-F12a correlation energy         -0.300701800894

  Triples (T) contribution (scaled)    -0.009801095624
  Total correlation energy             -0.310502896518

  CCSD-F12a total energy              -76.363827346960
  CCSD[T]-F12a energy                 -76.373968748006
  CCSD-T-F12a energy                  -76.373479309352
 !CCSD(T)-F12a total energy           -76.373628442584

 F12b corrections for ansatz F12/3C(FIX) added to CCSD(T)-F12a energy

  CCSD-F12b singlet pair energy        -0.205866808565
  CCSD-F12b triplet pair energy        -0.090552735971
  CCSD-F12b correlation energy         -0.296419537167

  Triples (T) contribution (scaled)    -0.009801095624
  Total correlation energy             -0.306220632791

  CCSD-F12b total energy              -76.359545083233
  CCSD[T]-F12b energy                 -76.369686484279
  CCSD-T-F12b energy                  -76.369197045625
 !CCSD(T)-F12b total energy           -76.369346178857

 Timing summary (sec):

 STEP                 CPU(USER)    SYS     CPU(TOT)    WALL
 Transformation          5.63      0.65      6.28      6.69
 CCSD iterations        38.34      3.21     41.55     41.76
 Triples                21.73      0.35     22.08     22.09
 MP2-F12                10.19      0.45     10.64     18.05
 F12b energy             3.40      0.24      3.64      3.64

 Program statistics:

 Available memory in ccsd:              2999999786
 Min. memory needed in ccsd:               1609972
 Max. memory used in ccsd:                 1864434
 Max. memory used in cckext:               1252381 (11 integral passes)



 **********************************************************************************************************************************
 DATASETS  * FILE   NREC   LENGTH (MB)   RECORD NAMES
              1      20     1962.98       500      610      700      900      950      970     1000      129      960     1100   
                                          VAR    BASINP    GEOM    SYMINP    ZMAT    AOBASIS   BASIS     P2S    ABASIS      S 
                                         1400     1410     1200     1210     1080     1600     1650     1300     1700     1380   
                                           T        V       H0       H01     AOSYM     SMH    MOLCAS    ERIS     OPER     JKOP   

              2       8       12.47       700     1000      520     2100     7360     7350     2101     2102   
                                         GEOM     BASIS   MCVARS     RHF    F12ABS    EF12      RHF      RHF  

 PROGRAMS   *        TOTAL   CCSD(T)        HF       INT   CCSD(T)        HF       INT   CCSD(T)        HF       INT
 CPU TIMES  *       531.61     79.33     25.17      0.06     79.44     20.65      0.06    285.94     25.22     15.60
 REAL TIME  *       700.91 SEC
 DISK USED  *         5.03 GB      
 **********************************************************************************************************************************
 SETTING E_F12_B(1)     =       -76.37362844  AU                              
 SETTING E_F12_B(2)     =       -76.36934618  AU                              
 SETTING E_INT_HF       =         0.00015608  AU                              
 SETTING E_INT_F12(1)   =        -0.00036076  AU                              
 SETTING E_INT_F12(2)   =        -0.00035682  AU                              
 E_INT_HF         =         0.00015608 AU
 E_INT_F12(1:2)   = [      -0.00036076    -0.00035682] AU

 CCSD(T)-F12/cc-pVTZ-F12 energy=    -76.369346178857

     CCSD(T)-F12        HF-SCF       CCSD(T)-F12        HF-SCF       CCSD(T)-F12        HF-SCF  
    -76.36934618    -76.06216050    -40.45405920    -40.21549289   -116.82376220   -116.27749730
 **********************************************************************************************************************************
 Molpro calculation terminated
 Variable memory released
