
 Primary working directories    : /net/scratch/people/plgsirous
 Secondary working directories  : /net/scratch/people/plgsirous
 Wavefunction directory         : /net/people/plgsirous/wfu/
 Main file repository           : /net/scratch/people/plgsirous/

 SHA1      : 
 NAME      : 
 ARCHNAME  : linux/x86_64
 FC        : /net/software/local/intel/impi/2018.1.163/bin64/mpiifort
 BLASLIB   : -L/net/software/local/intel/compilers_and_libraries_2018.1.163/linux/mkl/lib/intel64 -lmkl_scalapack_ilp64 -lmkl_intel_ilp64 -lmkl_intel_thread -lmkl_core -lmkl_blacs_intelmpi_ilp64 -liomp5 -lpthread -lm -ldl
 id        : pl

 Nodes     nprocs
 p1486        1

 Using customized tuning parameters: mindgm=7; mindgv=20; mindgc=1; mindgr=1; noblas=0; minvec=7
 default implementation of scratch files=df  

 memory,3000,m
 zsymel=nosym
 angstrom
 geometry={
 C1        -3.2772    1.4825     1.2719
 H1        -2.4640    0.8996     1.6510
 H2        -3.1608    2.5010     1.5785
 H3        -4.2018    1.0992     1.6501
 H4        -3.2685    1.4210     0.2037
 O1        -2.1580    -1.3713     -0.9522
 H5        -2.6632    -0.7603     -1.5237
 H6        -1.3702    -0.8605     -0.6444
 }
 basis=vtz-f12
 gthresh,orbital=1d-8,energy=1d-8,twoint=1.d-19
 
 
 nkerna=1
 nkernb=1
 nkernab=$nkerna+$nkernb
 
                                                                                 ! AB Dimer
 {hf,accu=1.d-8}
 E_HF_AB=energy
 core,$nkernab
 {ccsd(t)-f12,scale_trip=1,THRF12=1.d-12}
 E_F12_AB=energy
 
                                                                                 ! Monomer A Part
 
 dummy,6,7,8;
 {hf,accu=1.d-8}
 E_HF_A=energy
 core,$nkerna
 {ccsd(t)-f12,scale_trip=1,THRF12=1.d-12}
 E_F12_A=energy
 
                                                                                 ! Monomer B Part
 
 dummy,1,2,3,4,5;
 {hf,accu=1.d-8}
 E_HF_B=energy
 core,$nkernb
 {ccsd(t)-f12,scale_trip=1,THRF12=1.d-12}
 E_F12_B=energy
 
 E_int_HF = E_HF_AB-(E_HF_A+E_HF_B)
 E_int_F12 = E_F12_AB-(E_F12_A+E_F12_B)
 
 
 show,E_int_HF,E_int_F12

 Variables initialized (889), CPU time= 0.01 sec
 Commands  initialized (702), CPU time= 0.01 sec, 572 directives.
 Default parameters read. Elapsed time= 0.08 sec

 Checking input...
 Passed
1


                                         ***  PROGRAM SYSTEM MOLPRO  ***
                                       Copyright, TTI GmbH Stuttgart, 2015
                                    Version 2015.1 linked Jul  2 2018 15:03:07


 **********************************************************************************************************************************
 LABEL *                                                                                 
  64 bit serial version                                                                  DATE: 17-Jan-19          TIME: 14:52:53  
 **********************************************************************************************************************************

 SHA1:             
 **********************************************************************************************************************************
 SETTING ZSYMEL         =    NOSYM
 ZSYMEL=NOSYM
 ZUNIT=ANG
 

Geometry recognized as XYZ


 Variable memory set to 3000000000 words,  buffer space   230000 words

 SETTING BASIS          =    VTZ-F12

 THRESHOLDS:

 ZERO    =  1.00D-12  ONEINT  =  1.00D-12  TWOINT  =  1.00D-19  PREFAC  =  1.00D-14  LOCALI  =  1.00D-09  EORDER  =  1.00D-04
 ENERGY  =  1.00D-08  ETEST   =  0.00D+00  EDENS   =  0.00D+00  THRDEDEF=  1.00D-06  GRADIENT=  1.00D-02  STEP    =  1.00D-03
 ORBITAL =  1.00D-08  CIVEC   =  1.00D-05  COEFF   =  1.00D-04  PRINTCI =  5.00D-02  PUNCHCI =  9.90D+01  OPTGRAD =  3.00D-04
 OPTENERG=  1.00D-06  OPTSTEP =  3.00D-04  THRGRAD =  1.00D-10  COMPRESS=  1.00D-11  VARMIN  =  1.00D-07  VARMAX  =  1.00D-03
 THRDOUB =  0.00D+00  THRDIV  =  1.00D-05  THRRED  =  1.00D-07  THRPSP  =  1.00D+00  THRDC   =  1.00D-10  THRCS   =  1.00D-10
 THRNRM  =  1.00D-08  THREQ   =  0.00D+00  THRDE   =  1.00D+00  THRREF  =  1.00D-05  SPARFAC =  1.00D+00  THRDLP  =  1.00D-07
 THRDIA  =  1.00D-10  THRDLS  =  1.00D-07  THRGPS  =  0.00D+00  THRKEX  =  0.00D+00  THRDIS  =  2.00D-01  THRVAR  =  1.00D-10
 THRLOC  =  1.00D-06  THRGAP  =  1.00D-06  THRLOCT = -1.00D+00  THRGAPT = -1.00D+00  THRORB  =  1.00D-06  THRMLTP =  0.00D+00
 THRCPQCI=  1.00D-10  KEXTA   =  0.00D+00  THRCOARS=  0.00D+00  SYMTOL  =  1.00D-06  GRADTOL =  1.00D-06  THROVL  =  1.00D-08
 THRORTH =  1.00D-08  GRID    =  1.00D-06  GRIDMAX =  1.00D-03  DTMAX   =  0.00D+00  THROCCDE=  1.00D-01  THROCCDE=  1.00D-01


 SETTING NKERNA         =         1.00000000                                  
 SETTING NKERNB         =         1.00000000                                  
 SETTING NKERNAB        =         2.00000000                                  


 Recomputing integrals since basis changed


 Using spherical harmonics

 Library entry C      S cc-pVTZ-F12          selected for orbital group  1
 Library entry C      P cc-pVTZ-F12          selected for orbital group  1
 Library entry C      D cc-pVTZ-F12          selected for orbital group  1
 Library entry C      F cc-pVTZ-F12          selected for orbital group  1
 Library entry H      S cc-pVTZ-F12          selected for orbital group  2
 Library entry H      P cc-pVTZ-F12          selected for orbital group  2
 Library entry H      D cc-pVTZ-F12          selected for orbital group  2
 Library entry O      S cc-pVTZ-F12          selected for orbital group  3
 Library entry O      P cc-pVTZ-F12          selected for orbital group  3
 Library entry O      D cc-pVTZ-F12          selected for orbital group  3
 Library entry O      F cc-pVTZ-F12          selected for orbital group  3


 PROGRAM * SEWARD (Integral evaluation for generally contracted gaussian basis sets)     Author: Roland Lindh, 1990

 Geometry written to block  1 of record 700


 Point group  C1  



 ATOMIC COORDINATES

 NR  ATOM    CHARGE       X              Y              Z

   1  C1      6.00   -6.193010455    2.801518980    2.403542658
   2  H1      1.00   -4.656285171    1.699997622    3.119937832
   3  H2      1.00   -5.973046335    4.726205038    2.982932688
   4  H3      1.00   -7.940251230    2.077186956    3.118237078
   5  H4      1.00   -6.176569838    2.685300823    0.384937212
   6  O1      8.00   -4.078028977   -2.591381435   -1.799397216
   7  H5      1.00   -5.032718615   -1.436758773   -2.879375696
   8  H6      1.00   -2.589302736   -1.626109330   -1.217739515

 Bond lengths in Bohr (Angstrom)

 1-2  2.021904040  1-3  2.022002335  1-4  2.021953343  1-5  2.022015060  6-7  1.846872847
     ( 1.069945541)     ( 1.069997556)     ( 1.069971630)     ( 1.070004290)     ( 0.977323022)

 6-8  1.867185512
     ( 0.988072022)

 Bond angles

  2-1-3  109.53398059   2-1-4  109.65604535   2-1-5  108.43490854   3-1-4  109.49436728

  3-1-5  109.86987750   4-1-5  109.83468330   7-6-8  105.73056797

 NUCLEAR CHARGE:                   20
 NUMBER OF PRIMITIVE AOS:         270
 NUMBER OF SYMMETRY AOS:          246
 NUMBER OF CONTRACTIONS:          214   ( 214A   )
 NUMBER OF CORE ORBITALS:           2   (   2A   )
 NUMBER OF VALENCE ORBITALS:       14   (  14A   )


 NUCLEAR REPULSION ENERGY   36.73664214


 Eigenvalues of metric

         1 0.729E-04 0.207E-03 0.302E-03 0.329E-03 0.334E-03 0.457E-03 0.552E-03 0.561E-03


 Contracted 2-electron integrals neglected if value below      1.0D-19
 AO integral compression algorithm  1   Integral accuracy      1.0D-19

     2165.834 MB (compressed) written to integral file ( 88.9%)


 NUMBER OF SORTED TWO-ELECTRON INTEGRALS:  264626515.     BUFFER LENGTH:  32768
 NUMBER OF SEGMENTS:  17  SEGMENT LENGTH:   15999762      RECORD LENGTH: 524288

 Memory used in sort:      16.56 MW

 SORT1 READ   304636334. AND WROTE   251392997. INTEGRALS IN    725 RECORDS. CPU TIME:     3.30 SEC, REAL TIME:     7.91 SEC
 SORT2 READ   251392997. AND WROTE   264626515. INTEGRALS IN   8262 RECORDS. CPU TIME:     3.32 SEC, REAL TIME:     7.97 SEC

 FILE SIZES:   FILE 1:  2187.5 MBYTE,  FILE 4:  3040.9 MBYTE,   TOTAL:   5228.4 MBYTE

 OPERATOR DM      FOR CENTER  0  COORDINATES:    0.000000    0.000000    0.000000


 **********************************************************************************************************************************
 DATASETS  * FILE   NREC   LENGTH (MB)   RECORD NAMES
              1      19     1925.47       500      610      700      900      950      970     1000      129      960     1100   
                                          VAR    BASINP    GEOM    SYMINP    ZMAT    AOBASIS   BASIS     P2S    ABASIS      S 
                                         1400     1410     1200     1210     1080     1600     1650     1300     1700   
                                           T        V       H0       H01     AOSYM     SMH    MOLCAS    ERIS     OPER   

 PROGRAMS   *        TOTAL       INT
 CPU TIMES  *        16.28     16.16
 REAL TIME  *        32.37 SEC
 DISK USED  *         5.23 GB      
 **********************************************************************************************************************************


 PROGRAM * RHF-SCF (CLOSED SHELL)       Authors: W. Meyer, H.-J. Werner


 NUMBER OF ELECTRONS:      10+   10-    SPACE SYMMETRY=1    SPIN SYMMETRY: Singlet 
 CONVERGENCE THRESHOLDS:    1.00E-04 (Density)    1.00E-09 (Energy)
 MAX. NUMBER OF ITERATIONS:       60
 INTERPOLATION TYPE:            DIIS
 INTERPOLATION STEPS:              2 (START)      1 (STEP)
 LEVEL SHIFTS:                  0.00 (CLOSED)  0.00 (OPEN) 



 Orbital guess generated from atomic densities. Full valence occupancy:   16

 Molecular orbital dump at record        2100.2

 Initial occupancy:  10

 ITERATION    DDIFF          GRAD             ENERGY        2-EL.EN.            DIPOLE MOMENTS         DIIS   ORB.
    1      0.000D+00      0.000D+00      -116.21850843    158.909374    0.28088    1.08544   -0.25388    0    start
    2      0.000D+00      0.548D-02      -116.26274640    154.061046    0.13465    0.61757   -0.11053    1    diag
    3      0.562D-02      0.322D-02      -116.27641548    156.095356    0.17185    0.73685   -0.14840    2    diag
    4      0.183D-02      0.480D-03      -116.27708367    155.981678    0.16932    0.72645   -0.14736    3    diag
    5      0.420D-03      0.141D-03      -116.27715378    155.976455    0.16871    0.72626   -0.14700    4    diag
    6      0.156D-03      0.342D-04      -116.27715767    155.982135    0.16843    0.72553   -0.14682    5    diag
    7      0.408D-04      0.686D-05      -116.27715790    155.980409    0.16840    0.72555   -0.14683    6    diag
    8      0.107D-04      0.174D-05      -116.27715792    155.980594    0.16837    0.72548   -0.14681    7    diag
    9      0.300D-05      0.412D-06      -116.27715792    155.980567    0.16836    0.72546   -0.14681    8    diag
   10      0.620D-06      0.492D-07      -116.27715792    155.980569    0.16836    0.72546   -0.14681    0    orth

 Final occupancy:  10

 !RHF STATE 1.1 Energy               -116.277157916787
 Nuclear energy                        36.73664214
 One-electron energy                 -231.00408460
 Two-electron energy                   77.99028455
 Virial quotient                       -1.00080692
 !RHF STATE 1.1 Dipole moment           0.16836087     0.72545864    -0.14680582
 Dipole moment /Debye                   0.42790263     1.84381118    -0.37311875

 Orbital energies:

         1.1          2.1          3.1          4.1          5.1          6.1          7.1          8.1          9.1         10.1
    -20.567753   -11.199979    -1.338684    -0.954286    -0.705732    -0.577841    -0.555934    -0.553077    -0.551677    -0.506797

        11.1         12.1
      0.055393     0.070481

 HOMO     10.1    -0.506797 =     -13.7907eV
 LUMO     11.1     0.055393 =       1.5073eV
 LUMO-HOMO         0.562190 =      15.2980eV


 **********************************************************************************************************************************
 DATASETS  * FILE   NREC   LENGTH (MB)   RECORD NAMES
              1      19     1925.47       500      610      700      900      950      970     1000      129      960     1100   
                                          VAR    BASINP    GEOM    SYMINP    ZMAT    AOBASIS   BASIS     P2S    ABASIS      S 
                                         1400     1410     1200     1210     1080     1600     1650     1300     1700   
                                           T        V       H0       H01     AOSYM     SMH    MOLCAS    ERIS     OPER   

              2       4        3.81       700     1000      520     2100   
                                         GEOM     BASIS   MCVARS     RHF  

 PROGRAMS   *        TOTAL        HF       INT
 CPU TIMES  *        40.70     24.42     16.16
 REAL TIME  *        61.28 SEC
 DISK USED  *         5.23 GB      
 **********************************************************************************************************************************
 SETTING E_HF_AB        =      -116.27715792  AU                              


 PROGRAM * CCSD (Closed-shell coupled cluster)     Authors: C. Hampel, H.-J. Werner, 1991, M. Deegan, P.J. Knowles, 1992

                                  CCSD-F12 implementation by  H.-J. Werner, 2007

                   Density fitting integral evaluation by F.R. Manby, 2003,2007, G. Knizia, 2010

 Basis set CC-PVTZ/JKFIT generated.      Number of basis functions:   338 
 Basis set CC-PVTZ-F12/OPTRI generated.  Number of basis functions:   396 
 Basis set AUG-CC-PVTZ/MP2FIT generated. Number of basis functions:   488 

 Convergence thresholds:  THRVAR = 1.00D-08  THRDEN = 1.00D-08

 CCSD(T)     terms to be evaluated (factor= 1.000)


 Number of core orbitals:           2 (   2 )
 Number of closed-shell orbitals:   8 (   8 )
 Number of external orbitals:     204 ( 204 )

 Molecular orbitals read from record     2100.2  Type=RHF/CANONICAL (state 1.1)

 MP2-F12 correlation treatment (H.-J. Werner, 2006)
 ==================================================

 Using MP2-F12 with ansatz 3C(FIX)

 Using projected zeroth-order Hamiltonian (+Z)

 FOCKRIB=T FOCKRIC=T FOCKRIP=T CABSP=T CABSA=T CABSK=T CABSF=T GBC=F EBC=F DMAT=T NOFIK=T NOPAO=1 SOLVE=-1  USEPAO=0
 EXCH_A= T EXCH_B= F EXCH_C= F EXCH_P= F
 
 Geminal basis:    OPTFULL  GEM_TYPE=SLATER  BETA=1.0  NGEM=6

 Optimizing Gaussian exponents for each gem_beta

 Geminal optimization for beta= 1.0000
 Weight function:   m=0, omega= 1.4646

 Augmented Hessian optimization of geminal fit. Trust ratio= 0.40000
 Convergence reached after   2 iterations. Final gradient= 8.26D-16, Step= 4.26D-06, Delta= 1.28D-09
 
 Alpha:                 0.19532     0.81920     2.85917     9.50073    35.69989   197.79328
 Coeff:                 0.27070     0.30552     0.18297     0.10986     0.06810     0.04224
 

 All pairs explicitly correlated. Number of r12-pairs:           36

 Excluding core orbitals from MO domains
 
 AO(A)-basis ORBITAL           loaded. Number of functions:     214
 RI(R)-basis CC-PVTZ-F12/OPTRI loaded. Number of functions:     396
 DF-basis CC-PVTZ/JKFIT        loaded. Number of functions:     338

 Screening thresholds:   THRAO=  1.00D-10  THRMO=  1.00D-09  THRPROD=  1.00D-09
                         THRSW=  1.00D-05  THROV=  1.00D-12  THRAOF12=   1.00D-08

 CPU time for Fock operators                      3.19 sec
 
 Construction of ABS:
 Smallest eigenvalue of S          3.98E-04  (threshold= 1.00E-08)
 Ratio eigmin/eigmax               5.11E-05  (threshold= 1.00E-09)
 Smallest eigenvalue of S kept     3.98E-04  (threshold= 3.98E-04, 0 functions deleted, 396 kept)
 
 Construction of CABS:
 Smallest eigenvalue of S          8.35E-07  (threshold= 1.00E-08)
 Ratio eigmin/eigmax               8.35E-07  (threshold= 1.00E-09)
 Smallest eigenvalue of S kept     8.35E-07  (threshold= 8.35E-07, 0 functions deleted, 396 kept)
 
 CPU time for CABS singles                        0.12 sec

 CABS-singles contribution of  -0.00160208 patched into reference energy.
 New reference energy        -116.27876000
 
 AO(A)-basis ORBITAL           loaded. Number of functions:     214
 RI(R)-basis CC-PVTZ-F12/OPTRI loaded. Number of functions:     396
 DF-basis AUG-CC-PVTZ/MP2FIT   loaded. Number of functions:     488

 Screening thresholds:   THRAO=  1.00D-10  THRMO=  1.00D-09  THRPROD=  1.00D-09
                         THRSW=  1.00D-05  THROV=  1.00D-12  THRAOF12=   1.00D-08

 CPU time for 3-index integral evaluation         6.41 sec
 CPU time for first  half transformation          0.67 sec ( 7686.2 MFLOP/sec)
 CPU time for second half transformation          0.04 sec ( 2924.1 MFLOP/sec)
 CPU time for sorting                             0.02 sec
 CPU time for fitting                             0.08 sec (30482.4 MFLOP/sec)
 CPU time for tilde quantities                    0.08 sec (40198.7 MFLOP/sec)
 CPU time for assembly                            0.87 sec (34412.1 MFLOP/sec)
 CPU time for tranop_f12                          1.16 sec (33389.4 MFLOP/sec)
 CPU time for f12 integrals (total)              10.93 sec, Elapsed time:     13.18 sec
 CPU time for f12 matrices (total)                0.33 sec, Elapsed time:      0.42 sec

 Diagonal F12 approximation with fixed coefficients:  TSING= 0.500,  TTRIP= 0.250 (scaled by -1/beta)

 DF-MP2-F12 energy corrections:
 ==============================
 Approx.                                    Singlet             Triplet             Total
 DF-MP2-F12/3*C(DX,FIX)                -0.041408559328     -0.004150427045     -0.045558986374
 DF-MP2-F12/3*C(FIX)                   -0.039282908858     -0.003882960140     -0.043165868997
 DF-MP2-F12/3C(FIX)                    -0.039146992956     -0.003991798761     -0.043138791717

 DF-MP2-F12 correlation energies:
 ================================
 Approx.                                    Singlet             Triplet             Ecorr            Total Energy
 DF-MP2                                -0.320941633347     -0.156175774113     -0.477117407460   -116.755877408415
 DF-MP2-F12/3*C(DX,FIX)                -0.362350192675     -0.160326201158     -0.522676393834   -116.801436394789
 DF-MP2-F12/3*C(FIX)                   -0.360224542205     -0.160058734252     -0.520283276457   -116.799043277412
 DF-MP2-F12/3C(FIX)                    -0.360088626303     -0.160167572874     -0.520256199177   -116.799016200132

 SCS-DF-MP2 energies (F_SING= 1.20000  F_TRIP= 0.62222  F_PARALLEL= 0.33333):
 ============================================================================
 SCS-DF-MP2                            -0.482305997242   -116.761065998197
 SCS-DF-MP2-F12/3*C(DX,FIX)            -0.534578756376   -116.813338757331
 SCS-DF-MP2-F12/3*C(FIX)               -0.531861551959   -116.810621552914
 SCS-DF-MP2-F12/3C(FIX)                -0.531766174685   -116.810526175640
 Symmetry transformation completed.

 Number of N-1 electron functions:               8
 Number of N-2 electron functions:              36
 Number of singly external CSFs:              1632
 Number of doubly external CSFs:           1332528
 Total number of CSFs:                     1334161

 Length of J-op  integral file:             205.73 MB
 Length of K-op  integral file:             258.78 MB
 Length of 3-ext integral record:             0.00 MB

 Memory could be reduced to 93.27 Mwords without degradation in triples

 Integral transformation finished. Total CPU:   9.14 sec, npass=  1  Memory used:  48.07 MW

 Reference energy:                   -116.27876000

 Adding F12 terms to K(Cij), methodcc=6,  factor= 1.0

 ITER.      SQ.NORM     CORR.ENERGY   TOTAL ENERGY   ENERGY CHANGE        DEN1      VAR(S)    VAR(P)  DIIS     TIME  TIME/IT
   1      1.13282547    -0.49230459  -116.77106459    -0.01511234    -0.00352631  0.14D-02  0.20D-02  1  1    32.40     8.63
   2      1.14085900    -0.49287371  -116.77163371    -0.00056912    -0.00963001  0.30D-04  0.23D-03  2  2    40.92     8.79
   3      1.14390619    -0.49313021  -116.77189022    -0.00025650    -0.00215562  0.13D-04  0.14D-04  3  3    49.74     8.97
   4      1.14489668    -0.49316254  -116.77192254    -0.00003233    -0.00061360  0.61D-06  0.11D-05  4  4    58.76     9.13
   5      1.14505802    -0.49316173  -116.77192173     0.00000082    -0.00003105  0.18D-06  0.69D-07  5  5    67.84    12.35
   6      1.14509391    -0.49315945  -116.77191945     0.00000228    -0.00000677  0.16D-07  0.76D-08  6  6    76.90    12.60
   7      1.14510329    -0.49315850  -116.77191850     0.00000094    -0.00000300  0.19D-08  0.65D-09  6  1    86.00    12.51
   8      1.14510500    -0.49315862  -116.77191862    -0.00000012     0.00000022  0.29D-09  0.87D-10  6  3    95.14    12.16
   9      1.14510604    -0.49315858  -116.77191858     0.00000004    -0.00000034  0.25D-10  0.16D-10  6  2   104.19    11.92
  10      1.14510605    -0.49315859  -116.77191859    -0.00000000     0.00000011  0.84D-11  0.33D-11  6  3   113.26    11.69
  11      1.14510617    -0.49315859  -116.77191859    -0.00000000     0.00000001  0.56D-12  0.29D-12  6  1   122.38    11.51

 Norm of t1 vector:      0.04967913      S-energy:     0.00000000      T1 diagnostic:  0.00878211
                                                                       D1 diagnostic:  0.01908536

 Adding energy correction from Wij-K(Fij), methodcc=6  factor= 1.0
 
  CCSD correlation energy              -0.493158585901
  MP2-F12 correction (uncoupled)       -0.041702949095
  C*T doubles correction               -0.001134433905
  f12b correction                       0.007815363559


 Total CPU time for triples:    162.97 sec

  Ecorr(MP2)                           -0.477192254416
  Ecorr(MP2-F12)                       -0.520331046133
  Scale factor for triples energy       1.090401282330


 RESULTS
 =======

  Reference energy                   -116.277157916787
  F12 singles correction               -0.001602084168

 F12 singles corrections added to reference energy

  New reference energy               -116.278760000955

  F12a singlet correction              -0.038967726791
  F12a triplet correction              -0.003869656209
  F12a total correction                -0.042837383000

 F12a corrections for ansatz F12/3C(FIX) added to CCSD energy
 
  CCSD-F12a singlet pair energy        -0.389320423751
  CCSD-F12a triplet pair energy        -0.146675550140
  CCSD-F12a correlation energy         -0.535995968901

  Triples (T) contribution (scaled)    -0.016950685805
  Total correlation energy             -0.552946654706

  CCSD-F12a total energy             -116.814755969856
  CCSD[T]-F12a energy                -116.832295661159
  CCSD-T-F12a energy                 -116.831480551781
 !CCSD(T)-F12a total energy          -116.831706655661

 F12b corrections for ansatz F12/3C(FIX) added to CCSD(T)-F12a energy

  CCSD-F12b singlet pair energy        -0.381971169679
  CCSD-F12b triplet pair energy        -0.146209440653
  CCSD-F12b correlation energy         -0.528180605342

  Triples (T) contribution (scaled)    -0.016950685805
  Total correlation energy             -0.545131291147

  CCSD-F12b total energy             -116.806940606298
  CCSD[T]-F12b energy                -116.824480297600
  CCSD-T-F12b energy                 -116.823665188222
 !CCSD(T)-F12b total energy          -116.823891292102

 Timing summary (sec):

 STEP                 CPU(USER)    SYS     CPU(TOT)    WALL
 Transformation          9.26      0.97     10.23     10.69
 CCSD iterations        98.33      5.92    104.25    126.82
 Triples               162.97      2.67    165.64    165.70
 MP2-F12                14.80      1.53     16.33     17.39
 F12b energy             7.14      0.37      7.51      7.52

 Program statistics:

 Available memory in ccsd:              2999999464
 Min. memory needed in ccsd:               3963025
 Max. memory used in ccsd:                 5096465
 Max. memory used in cckext:               3666031 (12 integral passes)



 **********************************************************************************************************************************
 DATASETS  * FILE   NREC   LENGTH (MB)   RECORD NAMES
              1      20     2219.02       500      610      700      900      950      970     1000      129      960     1100   
                                          VAR    BASINP    GEOM    SYMINP    ZMAT    AOBASIS   BASIS     P2S    ABASIS      S 
                                         1400     1410     1200     1210     1080     1600     1650     1300     1700     1380   
                                           T        V       H0       H01     AOSYM     SMH    MOLCAS    ERIS     OPER     JKOP   

              2       6        4.74       700     1000      520     2100     7360     7350   
                                         GEOM     BASIS   MCVARS     RHF    F12ABS    EF12   

 PROGRAMS   *        TOTAL   CCSD(T)        HF       INT
 CPU TIMES  *       333.24    292.54     24.42     16.16
 REAL TIME  *       389.71 SEC
 DISK USED  *         5.23 GB      
 **********************************************************************************************************************************
 SETTING E_F12_AB(1)    =      -116.83170666  AU                              
 SETTING E_F12_AB(2)    =      -116.82389129  AU                              

 Dummy atoms: O1  H5  H6


 Recomputing one-electron integrals since nuclear charges changed


 PROGRAM * SEWARD (Integral evaluation for generally contracted gaussian basis sets)     Author: Roland Lindh, 1990

 Geometry written to block  1 of record 700


 Point group  C1  



 ATOMIC COORDINATES

 NR  ATOM    CHARGE       X              Y              Z

   1  C1      6.00   -6.193010455    2.801518980    2.403542658
   2  H1      1.00   -4.656285171    1.699997622    3.119937832
   3  H2      1.00   -5.973046335    4.726205038    2.982932688
   4  H3      1.00   -7.940251230    2.077186956    3.118237078
   5  H4      1.00   -6.176569838    2.685300823    0.384937212
   6  O1      0.00   -4.078028977   -2.591381435   -1.799397216
   7  H5      0.00   -5.032718615   -1.436758773   -2.879375696
   8  H6      0.00   -2.589302736   -1.626109330   -1.217739515

 Bond lengths in Bohr (Angstrom)

 1-2  2.021904040  1-3  2.022002335  1-4  2.021953343  1-5  2.022015060  6-7  1.846872847
     ( 1.069945541)     ( 1.069997556)     ( 1.069971630)     ( 1.070004290)     ( 0.977323022)

 6-8  1.867185512
     ( 0.988072022)

 Bond angles

  2-1-3  109.53398059   2-1-4  109.65604535   2-1-5  108.43490854   3-1-4  109.49436728

  3-1-5  109.86987750   4-1-5  109.83468330   7-6-8  105.73056797

 NUCLEAR CHARGE:                   10
 NUMBER OF PRIMITIVE AOS:         270
 NUMBER OF SYMMETRY AOS:          246
 NUMBER OF CONTRACTIONS:          214   ( 214A   )
 NUMBER OF CORE ORBITALS:           1   (   1A   )
 NUMBER OF VALENCE ORBITALS:        8   (   8A   )

 MOLECULE CHANGED: INITIALIZING OCCUPATION AND DUMP RECORDS


 NUCLEAR REPULSION ENERGY   13.68681606


 Eigenvalues of metric

         1 0.729E-04 0.207E-03 0.302E-03 0.329E-03 0.334E-03 0.457E-03 0.552E-03 0.561E-03


 Contracted 2-electron integrals neglected if value below      1.0D-19

 OPERATOR DM      FOR CENTER  0  COORDINATES:    0.000000    0.000000    0.000000


 **********************************************************************************************************************************
 DATASETS  * FILE   NREC   LENGTH (MB)   RECORD NAMES
              1      19     1925.47       500      610      700      900      950      970     1000      129      960     1100   
                                          VAR    BASINP    GEOM    SYMINP    ZMAT    AOBASIS   BASIS     P2S    ABASIS      S 
                                         1400     1410     1200     1210     1080     1600     1650     1300     1700   
                                           T        V       H0       H01     AOSYM     SMH    MOLCAS    ERIS     OPER   

              2       6        4.74       700     1000      520     2100     7360     7350   
                                         GEOM     BASIS   MCVARS     RHF    F12ABS    EF12   

 PROGRAMS   *        TOTAL       INT   CCSD(T)        HF       INT
 CPU TIMES  *       333.31      0.06    292.54     24.42     16.16
 REAL TIME  *       390.06 SEC
 DISK USED  *         5.23 GB      
 **********************************************************************************************************************************


 PROGRAM * RHF-SCF (CLOSED SHELL)       Authors: W. Meyer, H.-J. Werner


 NUMBER OF ELECTRONS:       5+    5-    SPACE SYMMETRY=1    SPIN SYMMETRY: Singlet 
 CONVERGENCE THRESHOLDS:    1.00E-04 (Density)    1.00E-09 (Energy)
 MAX. NUMBER OF ITERATIONS:       60
 INTERPOLATION TYPE:            DIIS
 INTERPOLATION STEPS:              2 (START)      1 (STEP)
 LEVEL SHIFTS:                  0.00 (CLOSED)  0.00 (OPEN) 



 Orbital guess generated from atomic densities. Full valence occupancy:    9

 Molecular orbital dump at record        2101.2

 Initial occupancy:   5

 ITERATION    DDIFF          GRAD             ENERGY        2-EL.EN.            DIPOLE MOMENTS         DIIS   ORB.
    1      0.000D+00      0.000D+00       -40.19565420     53.501365    0.00419   -0.00278   -0.00133    0    start
    2      0.000D+00      0.368D-02       -40.21289907     52.216650    0.00136   -0.00088   -0.00038    1    diag
    3      0.318D-02      0.143D-02       -40.21516790     52.670309    0.00189   -0.00123   -0.00054    2    diag
    4      0.856D-03      0.357D-03       -40.21548612     52.615361    0.00168   -0.00109   -0.00047    3    diag
    5      0.327D-03      0.463D-04       -40.21549160     52.617515    0.00165   -0.00107   -0.00046    4    diag
    6      0.569D-04      0.375D-05       -40.21549164     52.617660    0.00165   -0.00107   -0.00046    5    diag
    7      0.871D-05      0.302D-06       -40.21549164     52.617620    0.00165   -0.00107   -0.00046    6    diag
    8      0.983D-06      0.228D-07       -40.21549164     52.617621    0.00165   -0.00107   -0.00046    0    orth

 Final occupancy:   5

 !RHF STATE 1.1 Energy                -40.215491636940
 Nuclear energy                        13.68681606
 One-electron energy                  -80.21111833
 Two-electron energy                   26.30881064
 Virial quotient                       -0.99832335
 !RHF STATE 1.1 Dipole moment           0.00164993    -0.00106807    -0.00045545
 Dipole moment /Debye                   0.00419344    -0.00271459    -0.00115756

 Orbital energies:

         1.1          2.1          3.1          4.1          5.1          6.1          7.1
    -11.196270    -0.950712    -0.551938    -0.550004    -0.547824     0.055018     0.068191

 HOMO      5.1    -0.547824 =     -14.9071eV
 LUMO      6.1     0.055018 =       1.4971eV
 LUMO-HOMO         0.602843 =      16.4042eV


 **********************************************************************************************************************************
 DATASETS  * FILE   NREC   LENGTH (MB)   RECORD NAMES
              1      19     1925.47       500      610      700      900      950      970     1000      129      960     1100   
                                          VAR    BASINP    GEOM    SYMINP    ZMAT    AOBASIS   BASIS     P2S    ABASIS      S 
                                         1400     1410     1200     1210     1080     1600     1650     1300     1700   
                                           T        V       H0       H01     AOSYM     SMH    MOLCAS    ERIS     OPER   

              2       7        8.14       700     1000      520     2100     7360     7350     2101   
                                         GEOM     BASIS   MCVARS     RHF    F12ABS    EF12      RHF  

 PROGRAMS   *        TOTAL        HF       INT   CCSD(T)        HF       INT
 CPU TIMES  *       353.12     19.81      0.06    292.54     24.42     16.16
 REAL TIME  *       413.40 SEC
 DISK USED  *         5.23 GB      
 **********************************************************************************************************************************
 SETTING E_HF_A         =       -40.21549164  AU                              


 PROGRAM * CCSD (Closed-shell coupled cluster)     Authors: C. Hampel, H.-J. Werner, 1991, M. Deegan, P.J. Knowles, 1992

                                  CCSD-F12 implementation by  H.-J. Werner, 2007

                   Density fitting integral evaluation by F.R. Manby, 2003,2007, G. Knizia, 2010

 Basis set CC-PVTZ/JKFIT generated.      Number of basis functions:   338 
 Basis set CC-PVTZ-F12/OPTRI generated.  Number of basis functions:   396 
 Basis set AUG-CC-PVTZ/MP2FIT generated. Number of basis functions:   488 

 Convergence thresholds:  THRVAR = 1.00D-08  THRDEN = 1.00D-08

 CCSD(T)     terms to be evaluated (factor= 1.000)


 Number of core orbitals:           1 (   1 )
 Number of closed-shell orbitals:   4 (   4 )
 Number of external orbitals:     209 ( 209 )

 Molecular orbitals read from record     2101.2  Type=RHF/CANONICAL (state 1.1)

 MP2-F12 correlation treatment (H.-J. Werner, 2006)
 ==================================================

 Using MP2-F12 with ansatz 3C(FIX)

 Using projected zeroth-order Hamiltonian (+Z)

 FOCKRIB=T FOCKRIC=T FOCKRIP=T CABSP=T CABSA=T CABSK=T CABSF=T GBC=F EBC=F DMAT=T NOFIK=T NOPAO=1 SOLVE=-1  USEPAO=0
 EXCH_A= T EXCH_B= F EXCH_C= F EXCH_P= F
 
 Geminal basis:    OPTFULL  GEM_TYPE=SLATER  BETA=1.0  NGEM=6

 Optimizing Gaussian exponents for each gem_beta

 Geminal optimization for beta= 1.0000
 Weight function:   m=0, omega= 1.4646

 Augmented Hessian optimization of geminal fit. Trust ratio= 0.40000
 Convergence reached after   2 iterations. Final gradient= 8.26D-16, Step= 4.26D-06, Delta= 1.28D-09
 
 Alpha:                 0.19532     0.81920     2.85917     9.50073    35.69989   197.79328
 Coeff:                 0.27070     0.30552     0.18297     0.10986     0.06810     0.04224
 

 All pairs explicitly correlated. Number of r12-pairs:           10

 Excluding core orbitals from MO domains
 
 AO(A)-basis ORBITAL           loaded. Number of functions:     214
 RI(R)-basis CC-PVTZ-F12/OPTRI loaded. Number of functions:     396
 DF-basis CC-PVTZ/JKFIT        loaded. Number of functions:     338

 Screening thresholds:   THRAO=  1.00D-10  THRMO=  1.00D-09  THRPROD=  1.00D-09
                         THRSW=  1.00D-05  THROV=  1.00D-12  THRAOF12=   1.00D-08

 CPU time for Fock operators                      2.74 sec
 
 Construction of ABS:
 Smallest eigenvalue of S          3.98E-04  (threshold= 1.00E-08)
 Ratio eigmin/eigmax               5.11E-05  (threshold= 1.00E-09)
 Smallest eigenvalue of S kept     3.98E-04  (threshold= 3.98E-04, 0 functions deleted, 396 kept)
 
 Construction of CABS:
 Smallest eigenvalue of S          8.35E-07  (threshold= 1.00E-08)
 Ratio eigmin/eigmax               8.35E-07  (threshold= 1.00E-09)
 Smallest eigenvalue of S kept     8.35E-07  (threshold= 8.35E-07, 0 functions deleted, 396 kept)
 
 CPU time for CABS singles                        0.11 sec

 CABS-singles contribution of  -0.00063648 patched into reference energy.
 New reference energy         -40.21612811
 
 AO(A)-basis ORBITAL           loaded. Number of functions:     214
 RI(R)-basis CC-PVTZ-F12/OPTRI loaded. Number of functions:     396
 DF-basis AUG-CC-PVTZ/MP2FIT   loaded. Number of functions:     488

 Screening thresholds:   THRAO=  1.00D-10  THRMO=  1.00D-09  THRPROD=  1.00D-09
                         THRSW=  1.00D-05  THROV=  1.00D-12  THRAOF12=   1.00D-08

 CPU time for 3-index integral evaluation         6.10 sec
 CPU time for first  half transformation          0.39 sec ( 6602.2 MFLOP/sec)
 CPU time for second half transformation          0.01 sec ( 2924.1 MFLOP/sec)
 CPU time for fitting                             0.05 sec (23814.4 MFLOP/sec)
 CPU time for tilde quantities                    0.03 sec (52963.2 MFLOP/sec)
 CPU time for assembly                            0.21 sec (37981.3 MFLOP/sec)
 CPU time for tranop_f12                          0.25 sec (38326.5 MFLOP/sec)
 CPU time for f12 integrals (total)               7.52 sec, Elapsed time:      7.91 sec
 CPU time for f12 matrices (total)                0.08 sec, Elapsed time:      0.12 sec

 Diagonal F12 approximation with fixed coefficients:  TSING= 0.500,  TTRIP= 0.250 (scaled by -1/beta)

 DF-MP2-F12 energy corrections:
 ==============================
 Approx.                                    Singlet             Triplet             Total
 DF-MP2-F12/3*C(DX,FIX)                -0.016286024809     -0.001139797936     -0.017425822745
 DF-MP2-F12/3*C(FIX)                   -0.015925080418     -0.001149628114     -0.017074708532
 DF-MP2-F12/3C(FIX)                    -0.015857153512     -0.001156847837     -0.017014001349

 DF-MP2-F12 correlation energies:
 ================================
 Approx.                                    Singlet             Triplet             Ecorr            Total Energy
 DF-MP2                                -0.145616167114     -0.055805305563     -0.201421472677    -40.417549584680
 DF-MP2-F12/3*C(DX,FIX)                -0.161902191923     -0.056945103499     -0.218847295421    -40.434975407425
 DF-MP2-F12/3*C(FIX)                   -0.161541247532     -0.056954933677     -0.218496181209    -40.434624293212
 DF-MP2-F12/3C(FIX)                    -0.161473320626     -0.056962153400     -0.218435474026    -40.434563586029

 SCS-DF-MP2 energies (F_SING= 1.20000  F_TRIP= 0.62222  F_PARALLEL= 0.33333):
 ============================================================================
 SCS-DF-MP2                            -0.209462701776    -40.425590813779
 SCS-DF-MP2-F12/3*C(DX,FIX)            -0.229715139151    -40.445843251154
 SCS-DF-MP2-F12/3*C(FIX)               -0.229288122437    -40.445416234441
 SCS-DF-MP2-F12/3C(FIX)                -0.229211102422    -40.445339214425
 Symmetry transformation completed.

 Number of N-1 electron functions:               4
 Number of N-2 electron functions:              10
 Number of singly external CSFs:               836
 Number of doubly external CSFs:            349866
 Total number of CSFs:                      350703

 Length of J-op  integral file:              53.89 MB
 Length of K-op  integral file:              87.81 MB
 Length of 3-ext integral record:             0.00 MB

 Memory could be reduced to 60.96 Mwords without degradation in triples

 Integral transformation finished. Total CPU:   5.44 sec, npass=  1  Memory used:  26.32 MW

 Reference energy:                    -40.21612811

 Adding F12 terms to K(Cij), methodcc=6,  factor= 1.0

 ITER.      SQ.NORM     CORR.ENERGY   TOTAL ENERGY   ENERGY CHANGE        DEN1      VAR(S)    VAR(P)  DIIS     TIME  TIME/IT
   1      1.06960631    -0.21652471   -40.43265283    -0.01506856    -0.00954324  0.62D-03  0.94D-03  1  1    19.66     3.81
   2      1.07446126    -0.21734090   -40.43346901    -0.00081619    -0.00516279  0.14D-04  0.90D-04  2  2    23.43     3.95
   3      1.07598275    -0.21745230   -40.43358041    -0.00011140    -0.00108950  0.20D-05  0.57D-05  3  3    27.24     4.01
   4      1.07635208    -0.21746683   -40.43359494    -0.00001453    -0.00020084  0.13D-06  0.31D-06  4  4    31.37     4.19
   5      1.07640396    -0.21746646   -40.43359457     0.00000037    -0.00000933  0.77D-08  0.15D-07  5  5    35.34     4.28
   6      1.07641026    -0.21746521   -40.43359332     0.00000125    -0.00000294  0.32D-09  0.88D-09  6  6    39.31     4.30
   7      1.07641102    -0.21746513   -40.43359324     0.00000008    -0.00000042  0.22D-10  0.73D-10  6  1    43.15     4.28
   8      1.07641110    -0.21746516   -40.43359327    -0.00000003     0.00000001  0.29D-11  0.63D-11  6  2    46.96     4.27
   9      1.07641110    -0.21746517   -40.43359328    -0.00000001     0.00000003  0.21D-12  0.36D-12  6  3    50.74     4.31
  10      1.07641110    -0.21746517   -40.43359328    -0.00000000     0.00000001  0.24D-13  0.34D-13  6  4    54.49     4.29

 Norm of t1 vector:      0.03261079      S-energy:    -0.00000000      T1 diagnostic:  0.00815270
                                                                       D1 diagnostic:  0.01306936

 Adding energy correction from Wij-K(Fij), methodcc=6  factor= 1.0
 
  CCSD correlation energy              -0.217465166557
  MP2-F12 correction (uncoupled)       -0.016713826619
  C*T doubles correction               -0.000291037880
  f12b correction                       0.003525392105


 Total CPU time for triples:     21.26 sec

  Ecorr(MP2)                           -0.201456153759
  Ecorr(MP2-F12)                       -0.218470155108
  Scale factor for triples energy       1.084455108626


 RESULTS
 =======

  Reference energy                    -40.215491636939
  F12 singles correction               -0.000636475064

 F12 singles corrections added to reference energy

  New reference energy                -40.216128112003

  F12a singlet correction              -0.015860592892
  F12a triplet correction              -0.001144271608
  F12a total correction                -0.017004864499

 F12a corrections for ansatz F12/3C(FIX) added to CCSD energy
 
  CCSD-F12a singlet pair energy        -0.179253454514
  CCSD-F12a triplet pair energy        -0.055216576099
  CCSD-F12a correlation energy         -0.234470031056

  Triples (T) contribution (scaled)    -0.006988744012
  Total correlation energy             -0.241458775068

  CCSD-F12a total energy              -40.450598143059
  CCSD[T]-F12a energy                 -40.457828341987
  CCSD-T-F12a energy                  -40.457513515641
 !CCSD(T)-F12a total energy           -40.457586887071

 F12b corrections for ansatz F12/3C(FIX) added to CCSD(T)-F12a energy

  CCSD-F12b singlet pair energy        -0.175882862184
  CCSD-F12b triplet pair energy        -0.055061776324
  CCSD-F12b correlation energy         -0.230944638952

  Triples (T) contribution (scaled)    -0.006988744012
  Total correlation energy             -0.237933382964

  CCSD-F12b total energy              -40.447072750955
  CCSD[T]-F12b energy                 -40.454302949883
  CCSD-T-F12b energy                  -40.453988123536
 !CCSD(T)-F12b total energy           -40.454061494967

 Timing summary (sec):

 STEP                 CPU(USER)    SYS     CPU(TOT)    WALL
 Transformation          5.47      0.63      6.10      6.64
 CCSD iterations        38.41      3.74     42.15     42.97
 Triples                21.26      0.33     21.59     21.59
 MP2-F12                10.62      0.43     11.05     11.35
 F12b energy             3.28      0.27      3.55      3.58

 Program statistics:

 Available memory in ccsd:              2999999786
 Min. memory needed in ccsd:               1609972
 Max. memory used in ccsd:                 1864434
 Max. memory used in cckext:               1252381 (11 integral passes)



 **********************************************************************************************************************************
 DATASETS  * FILE   NREC   LENGTH (MB)   RECORD NAMES
              1      20     2078.48       500      610      700      900      950      970     1000      129      960     1100   
                                          VAR    BASINP    GEOM    SYMINP    ZMAT    AOBASIS   BASIS     P2S    ABASIS      S 
                                         1400     1410     1200     1210     1080     1600     1650     1300     1700     1380   
                                           T        V       H0       H01     AOSYM     SMH    MOLCAS    ERIS     OPER     JKOP   

              2       7        8.14       700     1000      520     2100     7360     7350     2101   
                                         GEOM     BASIS   MCVARS     RHF    F12ABS    EF12      RHF  

 PROGRAMS   *        TOTAL   CCSD(T)        HF       INT   CCSD(T)        HF       INT
 CPU TIMES  *       432.20     79.08     19.81      0.06    292.54     24.42     16.16
 REAL TIME  *       500.48 SEC
 DISK USED  *         5.23 GB      
 **********************************************************************************************************************************
 SETTING E_F12_A(1)     =       -40.45758689  AU                              
 SETTING E_F12_A(2)     =       -40.45406149  AU                              

 Dummy atoms: C1  H1  H2  H3  H4


 Recomputing one-electron integrals since nuclear charges changed


 PROGRAM * SEWARD (Integral evaluation for generally contracted gaussian basis sets)     Author: Roland Lindh, 1990

 Geometry written to block  1 of record 700


 Point group  C1  



 ATOMIC COORDINATES

 NR  ATOM    CHARGE       X              Y              Z

   1  C1      0.00   -6.193010455    2.801518980    2.403542658
   2  H1      0.00   -4.656285171    1.699997622    3.119937832
   3  H2      0.00   -5.973046335    4.726205038    2.982932688
   4  H3      0.00   -7.940251230    2.077186956    3.118237078
   5  H4      0.00   -6.176569838    2.685300823    0.384937212
   6  O1      8.00   -4.078028977   -2.591381435   -1.799397216
   7  H5      1.00   -5.032718615   -1.436758773   -2.879375696
   8  H6      1.00   -2.589302736   -1.626109330   -1.217739515

 Bond lengths in Bohr (Angstrom)

 1-2  2.021904040  1-3  2.022002335  1-4  2.021953343  1-5  2.022015060  6-7  1.846872847
     ( 1.069945541)     ( 1.069997556)     ( 1.069971630)     ( 1.070004290)     ( 0.977323022)

 6-8  1.867185512
     ( 0.988072022)

 Bond angles

  2-1-3  109.53398059   2-1-4  109.65604535   2-1-5  108.43490854   3-1-4  109.49436728

  3-1-5  109.86987750   4-1-5  109.83468330   7-6-8  105.73056797

 NUCLEAR CHARGE:                   10
 NUMBER OF PRIMITIVE AOS:         270
 NUMBER OF SYMMETRY AOS:          246
 NUMBER OF CONTRACTIONS:          214   ( 214A   )
 NUMBER OF CORE ORBITALS:           1   (   1A   )
 NUMBER OF VALENCE ORBITALS:        6   (   6A   )

 MOLECULE CHANGED: INITIALIZING OCCUPATION AND DUMP RECORDS


 NUCLEAR REPULSION ENERGY    8.95390023


 Eigenvalues of metric

         1 0.729E-04 0.207E-03 0.302E-03 0.329E-03 0.334E-03 0.457E-03 0.552E-03 0.561E-03


 Contracted 2-electron integrals neglected if value below      1.0D-19

 OPERATOR DM      FOR CENTER  0  COORDINATES:    0.000000    0.000000    0.000000


 **********************************************************************************************************************************
 DATASETS  * FILE   NREC   LENGTH (MB)   RECORD NAMES
              1      19     1925.47       500      610      700      900      950      970     1000      129      960     1100   
                                          VAR    BASINP    GEOM    SYMINP    ZMAT    AOBASIS   BASIS     P2S    ABASIS      S 
                                         1400     1410     1200     1210     1080     1600     1650     1300     1700   
                                           T        V       H0       H01     AOSYM     SMH    MOLCAS    ERIS     OPER   

              2       7        8.14       700     1000      520     2100     7360     7350     2101   
                                         GEOM     BASIS   MCVARS     RHF    F12ABS    EF12      RHF  

 PROGRAMS   *        TOTAL       INT   CCSD(T)        HF       INT   CCSD(T)        HF       INT
 CPU TIMES  *       432.27      0.07     79.08     19.81      0.06    292.54     24.42     16.16
 REAL TIME  *       500.66 SEC
 DISK USED  *         5.23 GB      
 **********************************************************************************************************************************


 PROGRAM * RHF-SCF (CLOSED SHELL)       Authors: W. Meyer, H.-J. Werner


 NUMBER OF ELECTRONS:       5+    5-    SPACE SYMMETRY=1    SPIN SYMMETRY: Singlet 
 CONVERGENCE THRESHOLDS:    1.00E-04 (Density)    1.00E-09 (Energy)
 MAX. NUMBER OF ITERATIONS:       60
 INTERPOLATION TYPE:            DIIS
 INTERPOLATION STEPS:              2 (START)      1 (STEP)
 LEVEL SHIFTS:                  0.00 (CLOSED)  0.00 (OPEN) 



 Orbital guess generated from atomic densities. Full valence occupancy:    7

 Molecular orbital dump at record        2102.2

 Initial occupancy:   5

 ITERATION    DDIFF          GRAD             ENERGY        2-EL.EN.            DIPOLE MOMENTS         DIIS   ORB.
    1      0.000D+00      0.000D+00       -76.02363622     77.344812    0.27731    1.08920   -0.25382    0    start
    2      0.000D+00      0.671D-02       -76.05038148     73.678962    0.15880    0.63361   -0.14986    1    diag
    3      0.463D-02      0.428D-02       -76.06203767     75.309514    0.18764    0.74700   -0.17603    2    diag
    4      0.163D-02      0.402D-03       -76.06223522     75.216810    0.18587    0.74223   -0.17530    3    diag
    5      0.229D-03      0.113D-03       -76.06225680     75.231427    0.18518    0.74046   -0.17503    4    diag
    6      0.801D-04      0.227D-04       -76.06225823     75.230321    0.18499    0.74000   -0.17497    5    diag
    7      0.235D-04      0.463D-05       -76.06225830     75.230476    0.18493    0.73986   -0.17495    6    diag
    8      0.531D-05      0.887D-06       -76.06225831     75.230463    0.18491    0.73981   -0.17494    7    diag
    9      0.914D-06      0.120D-06       -76.06225831     75.230454    0.18491    0.73981   -0.17494    8    diag
   10      0.191D-06      0.271D-07       -76.06225831     75.230458    0.18491    0.73981   -0.17494    0    orth

 Final occupancy:   5

 !RHF STATE 1.1 Energy                -76.062258305088
 Nuclear energy                         8.95390023
 One-electron energy                 -122.63138773
 Two-electron energy                   37.61522919
 Virial quotient                       -1.00217888
 !RHF STATE 1.1 Dipole moment           0.18491303     0.73980958    -0.17494233
 Dipole moment /Debye                   0.46997126     1.88028523    -0.44462992

 Orbital energies:

         1.1          2.1          3.1          4.1          5.1          6.1          7.1
    -20.568735    -1.339401    -0.706409    -0.577793    -0.508126     0.037471     0.062877

 HOMO      5.1    -0.508126 =     -13.8268eV
 LUMO      6.1     0.037471 =       1.0196eV
 LUMO-HOMO         0.545597 =      14.8464eV


 **********************************************************************************************************************************
 DATASETS  * FILE   NREC   LENGTH (MB)   RECORD NAMES
              1      19     1925.47       500      610      700      900      950      970     1000      129      960     1100   
                                          VAR    BASINP    GEOM    SYMINP    ZMAT    AOBASIS   BASIS     P2S    ABASIS      S 
                                         1400     1410     1200     1210     1080     1600     1650     1300     1700   
                                           T        V       H0       H01     AOSYM     SMH    MOLCAS    ERIS     OPER   

              2       8       12.47       700     1000      520     2100     7360     7350     2101     2102   
                                         GEOM     BASIS   MCVARS     RHF    F12ABS    EF12      RHF      RHF  

 PROGRAMS   *        TOTAL        HF       INT   CCSD(T)        HF       INT   CCSD(T)        HF       INT
 CPU TIMES  *       456.50     24.23      0.07     79.08     19.81      0.06    292.54     24.42     16.16
 REAL TIME  *       529.10 SEC
 DISK USED  *         5.23 GB      
 **********************************************************************************************************************************
 SETTING E_HF_B         =       -76.06225831  AU                              


 PROGRAM * CCSD (Closed-shell coupled cluster)     Authors: C. Hampel, H.-J. Werner, 1991, M. Deegan, P.J. Knowles, 1992

                                  CCSD-F12 implementation by  H.-J. Werner, 2007

                   Density fitting integral evaluation by F.R. Manby, 2003,2007, G. Knizia, 2010

 Basis set CC-PVTZ/JKFIT generated.      Number of basis functions:   338 
 Basis set CC-PVTZ-F12/OPTRI generated.  Number of basis functions:   396 
 Basis set AUG-CC-PVTZ/MP2FIT generated. Number of basis functions:   488 

 Convergence thresholds:  THRVAR = 1.00D-08  THRDEN = 1.00D-08

 CCSD(T)     terms to be evaluated (factor= 1.000)


 Number of core orbitals:           1 (   1 )
 Number of closed-shell orbitals:   4 (   4 )
 Number of external orbitals:     209 ( 209 )

 Molecular orbitals read from record     2102.2  Type=RHF/CANONICAL (state 1.1)

 MP2-F12 correlation treatment (H.-J. Werner, 2006)
 ==================================================

 Using MP2-F12 with ansatz 3C(FIX)

 Using projected zeroth-order Hamiltonian (+Z)

 FOCKRIB=T FOCKRIC=T FOCKRIP=T CABSP=T CABSA=T CABSK=T CABSF=T GBC=F EBC=F DMAT=T NOFIK=T NOPAO=1 SOLVE=-1  USEPAO=0
 EXCH_A= T EXCH_B= F EXCH_C= F EXCH_P= F
 
 Geminal basis:    OPTFULL  GEM_TYPE=SLATER  BETA=1.0  NGEM=6

 Optimizing Gaussian exponents for each gem_beta

 Geminal optimization for beta= 1.0000
 Weight function:   m=0, omega= 1.4646

 Augmented Hessian optimization of geminal fit. Trust ratio= 0.40000
 Convergence reached after   2 iterations. Final gradient= 8.26D-16, Step= 4.26D-06, Delta= 1.28D-09
 
 Alpha:                 0.19532     0.81920     2.85917     9.50073    35.69989   197.79328
 Coeff:                 0.27070     0.30552     0.18297     0.10986     0.06810     0.04224
 

 All pairs explicitly correlated. Number of r12-pairs:           10

 Excluding core orbitals from MO domains
 
 AO(A)-basis ORBITAL           loaded. Number of functions:     214
 RI(R)-basis CC-PVTZ-F12/OPTRI loaded. Number of functions:     396
 DF-basis CC-PVTZ/JKFIT        loaded. Number of functions:     338

 Screening thresholds:   THRAO=  1.00D-10  THRMO=  1.00D-09  THRPROD=  1.00D-09
                         THRSW=  1.00D-05  THROV=  1.00D-12  THRAOF12=   1.00D-08

 CPU time for Fock operators                      2.82 sec
 
 Construction of ABS:
 Smallest eigenvalue of S          3.98E-04  (threshold= 1.00E-08)
 Ratio eigmin/eigmax               5.11E-05  (threshold= 1.00E-09)
 Smallest eigenvalue of S kept     3.98E-04  (threshold= 3.98E-04, 0 functions deleted, 396 kept)
 
 Construction of CABS:
 Smallest eigenvalue of S          8.35E-07  (threshold= 1.00E-08)
 Ratio eigmin/eigmax               8.35E-07  (threshold= 1.00E-09)
 Smallest eigenvalue of S kept     8.35E-07  (threshold= 8.35E-07, 0 functions deleted, 396 kept)
 
 CPU time for CABS singles                        0.12 sec

 CABS-singles contribution of  -0.00096517 patched into reference energy.
 New reference energy         -76.06322348
 
 AO(A)-basis ORBITAL           loaded. Number of functions:     214
 RI(R)-basis CC-PVTZ-F12/OPTRI loaded. Number of functions:     396
 DF-basis AUG-CC-PVTZ/MP2FIT   loaded. Number of functions:     488

 Screening thresholds:   THRAO=  1.00D-10  THRMO=  1.00D-09  THRPROD=  1.00D-09
                         THRSW=  1.00D-05  THROV=  1.00D-12  THRAOF12=   1.00D-08

 CPU time for 3-index integral evaluation         6.61 sec
 CPU time for first  half transformation          0.63 sec ( 4087.1 MFLOP/sec)
 CPU time for second half transformation          0.03 sec (  974.7 MFLOP/sec)
 CPU time for fitting                             0.03 sec (39690.7 MFLOP/sec)
 CPU time for tilde quantities                    0.05 sec (31777.9 MFLOP/sec)
 CPU time for assembly                            0.22 sec (36254.9 MFLOP/sec)
 CPU time for tranop_f12                          0.28 sec (34220.1 MFLOP/sec)
 CPU time for f12 integrals (total)               8.33 sec, Elapsed time:      8.84 sec
 CPU time for f12 matrices (total)                0.09 sec, Elapsed time:      0.21 sec

 Diagonal F12 approximation with fixed coefficients:  TSING= 0.500,  TTRIP= 0.250 (scaled by -1/beta)

 DF-MP2-F12 energy corrections:
 ==============================
 Approx.                                    Singlet             Triplet             Total
 DF-MP2-F12/3*C(DX,FIX)                -0.025097851410     -0.002992886931     -0.028090738340
 DF-MP2-F12/3*C(FIX)                   -0.023332834601     -0.002708064647     -0.026040899248
 DF-MP2-F12/3C(FIX)                    -0.023261962130     -0.002805141456     -0.026067103586

 DF-MP2-F12 correlation energies:
 ================================
 Approx.                                    Singlet             Triplet             Ecorr            Total Energy
 DF-MP2                                -0.175137828504     -0.099860186208     -0.274998014712    -76.338221492122
 DF-MP2-F12/3*C(DX,FIX)                -0.200235679913     -0.102853073138     -0.303088753052    -76.366312230462
 DF-MP2-F12/3*C(FIX)                   -0.198470663104     -0.102568250855     -0.301038913960    -76.364262391371
 DF-MP2-F12/3C(FIX)                    -0.198399790633     -0.102665327664     -0.301065118298    -76.364288595709

 SCS-DF-MP2 energies (F_SING= 1.20000  F_TRIP= 0.62222  F_PARALLEL= 0.33333):
 ============================================================================
 SCS-DF-MP2                            -0.272300621178    -76.335524098589
 SCS-DF-MP2-F12/3*C(DX,FIX)            -0.304280283626    -76.367503761037
 SCS-DF-MP2-F12/3*C(FIX)               -0.301985040702    -76.365208518113
 SCS-DF-MP2-F12/3C(FIX)                -0.301960397085    -76.365183874495
 Symmetry transformation completed.

 Number of N-1 electron functions:               4
 Number of N-2 electron functions:              10
 Number of singly external CSFs:               836
 Number of doubly external CSFs:            349866
 Total number of CSFs:                      350703

 Length of J-op  integral file:              53.89 MB
 Length of K-op  integral file:              87.81 MB
 Length of 3-ext integral record:             0.00 MB

 Memory could be reduced to 60.96 Mwords without degradation in triples

 Integral transformation finished. Total CPU:   5.69 sec, npass=  1  Memory used:  26.32 MW

 Reference energy:                    -76.06322348

 Adding F12 terms to K(Cij), methodcc=6,  factor= 1.0

 ITER.      SQ.NORM     CORR.ENERGY   TOTAL ENERGY   ENERGY CHANGE        DEN1      VAR(S)    VAR(P)  DIIS     TIME  TIME/IT
   1      1.06294667    -0.27508470   -76.33830818    -0.00004632     0.00599994  0.78D-03  0.10D-02  1  1    20.94     3.96
   2      1.06639291    -0.27483711   -76.33806059     0.00024759    -0.00472385  0.14D-04  0.11D-03  2  2    24.89     4.16
   3      1.06763680    -0.27497512   -76.33819860    -0.00013801    -0.00083355  0.97D-05  0.75D-05  3  3    28.85     4.22
   4      1.06821026    -0.27499790   -76.33822137    -0.00002277    -0.00037004  0.48D-06  0.63D-06  4  4    32.75     4.41
   5      1.06830931    -0.27499640   -76.33821988     0.00000149    -0.00002257  0.15D-06  0.45D-07  5  5    36.64     4.39
   6      1.06833729    -0.27499499   -76.33821847     0.00000141    -0.00000433  0.16D-07  0.46D-08  6  6    40.57     4.39
   7      1.06834526    -0.27499457   -76.33821805     0.00000042    -0.00000174  0.14D-08  0.65D-09  6  1    44.53     4.38
   8      1.06834698    -0.27499457   -76.33821804     0.00000000    -0.00000014  0.22D-09  0.77D-10  6  2    48.43     4.38
   9      1.06834758    -0.27499458   -76.33821805    -0.00000001     0.00000005  0.19D-10  0.10D-10  6  3    52.40     4.37

 Norm of t1 vector:      0.03672813      S-energy:    -0.00000005      T1 diagnostic:  0.00918203
                                                                       D1 diagnostic:  0.01852462

 Adding energy correction from Wij-K(Fij), methodcc=6  factor= 1.0
 
  CCSD correlation energy              -0.274994576468
  MP2-F12 correction (uncoupled)       -0.024944263680
  C*T doubles correction               -0.000835515659
  f12b correction                       0.004282221141

 Total CPU time for triples:     23.16 sec

  Ecorr(MP2)                           -0.275038387474
  Ecorr(MP2-F12)                       -0.301105491060
  Scale factor for triples energy       1.094776237694


 RESULTS
 =======

  Reference energy                    -76.062258305088
  F12 singles correction               -0.000965172323

 F12 singles corrections added to reference energy

  New reference energy                -76.063223477411

  F12a singlet correction              -0.023081446021
  F12a triplet correction              -0.002698333318
  F12a total correction                -0.025779779340

 F12a corrections for ansatz F12/3C(FIX) added to CCSD energy
 
  CCSD-F12a singlet pair energy        -0.209901643690
  CCSD-F12a triplet pair energy        -0.090872658344
  CCSD-F12a correlation energy         -0.300774355808

  Triples (T) contribution (scaled)    -0.009820325244
  Total correlation energy             -0.310594681052

  CCSD-F12a total energy              -76.363997833218
  CCSD[T]-F12a energy                 -76.374160877545
  CCSD-T-F12a energy                  -76.373668421653
 !CCSD(T)-F12a total energy           -76.373818158462

 F12b corrections for ansatz F12/3C(FIX) added to CCSD(T)-F12a energy

  CCSD-F12b singlet pair energy        -0.205929471239
  CCSD-F12b triplet pair energy        -0.090562609654
  CCSD-F12b correlation energy         -0.296492134666

  Triples (T) contribution (scaled)    -0.009820325244
  Total correlation energy             -0.306312459910

  CCSD-F12b total energy              -76.359715612077
  CCSD[T]-F12b energy                 -76.369878656404
  CCSD-T-F12b energy                  -76.369386200511
 !CCSD(T)-F12b total energy           -76.369535937321

 Timing summary (sec):

 STEP                 CPU(USER)    SYS     CPU(TOT)    WALL
 Transformation          5.72      0.77      6.49      6.69
 CCSD iterations        35.15      3.56     38.71     39.47
 Triples                23.16      0.37     23.53     23.55
 MP2-F12                11.53      0.50     12.03     12.68
 F12b energy             3.40      0.34      3.74      3.74

 Program statistics:

 Available memory in ccsd:              2999999786
 Min. memory needed in ccsd:               1609972
 Max. memory used in ccsd:                 1864434
 Max. memory used in cckext:               1252381 (10 integral passes)



 **********************************************************************************************************************************
 DATASETS  * FILE   NREC   LENGTH (MB)   RECORD NAMES
              1      20     2078.48       500      610      700      900      950      970     1000      129      960     1100   
                                          VAR    BASINP    GEOM    SYMINP    ZMAT    AOBASIS   BASIS     P2S    ABASIS      S 
                                         1400     1410     1200     1210     1080     1600     1650     1300     1700     1380   
                                           T        V       H0       H01     AOSYM     SMH    MOLCAS    ERIS     OPER     JKOP   

              2       8       12.47       700     1000      520     2100     7360     7350     2101     2102   
                                         GEOM     BASIS   MCVARS     RHF    F12ABS    EF12      RHF      RHF  

 PROGRAMS   *        TOTAL   CCSD(T)        HF       INT   CCSD(T)        HF       INT   CCSD(T)        HF       INT
 CPU TIMES  *       535.51     79.00     24.23      0.07     79.08     19.81      0.06    292.54     24.42     16.16
 REAL TIME  *       615.37 SEC
 DISK USED  *         5.23 GB      
 **********************************************************************************************************************************
 SETTING E_F12_B(1)     =       -76.37381816  AU                              
 SETTING E_F12_B(2)     =       -76.36953594  AU                              
 SETTING E_INT_HF       =         0.00059203  AU                              
 SETTING E_INT_F12(1)   =        -0.00030161  AU                              
 SETTING E_INT_F12(2)   =        -0.00029386  AU                              
 E_INT_HF         =         0.00059203 AU
 E_INT_F12(1:2)   = [      -0.00030161    -0.00029386] AU

 CCSD(T)-F12/cc-pVTZ-F12 energy=    -76.369535937321

     CCSD(T)-F12        HF-SCF       CCSD(T)-F12        HF-SCF       CCSD(T)-F12        HF-SCF  
    -76.36953594    -76.06225831    -40.45406149    -40.21549164   -116.82389129   -116.27715792
 **********************************************************************************************************************************
 Molpro calculation terminated
 Variable memory released
