
 Primary working directories    : /net/scratch/people/plgsirous
 Secondary working directories  : /net/scratch/people/plgsirous
 Wavefunction directory         : /net/people/plgsirous/wfu/
 Main file repository           : /net/scratch/people/plgsirous/

 SHA1      : 
 NAME      : 
 ARCHNAME  : linux/x86_64
 FC        : /net/software/local/intel/impi/2018.1.163/bin64/mpiifort
 BLASLIB   : -L/net/software/local/intel/compilers_and_libraries_2018.1.163/linux/mkl/lib/intel64 -lmkl_scalapack_ilp64 -lmkl_intel_ilp64 -lmkl_intel_thread -lmkl_core -lmkl_blacs_intelmpi_ilp64 -liomp5 -lpthread -lm -ldl
 id        : pl

 Nodes     nprocs
 p1479        1

 Using customized tuning parameters: mindgm=7; mindgv=20; mindgc=1; mindgr=1; noblas=0; minvec=7
 default implementation of scratch files=df  

 memory,3000,m
 zsymel=nosym
 angstrom
 geometry={
 C1        -3.2772    1.4825     1.2719
 H1        -2.4640    0.8996     1.6510
 H2        -3.1608    2.5010     1.5785
 H3        -4.2018    1.0992     1.6501
 H4        -3.2685    1.4210     0.2037
 O1        -0.3192    2.3411     3.7644
 H5        0.4075    2.5685     4.3585
 H6        -0.1530    1.4058     3.4959
 }
 basis=vtz-f12
 gthresh,orbital=1d-8,energy=1d-8,twoint=1.d-19
 
 
 nkerna=1
 nkernb=1
 nkernab=$nkerna+$nkernb
 
                                                                                 ! AB Dimer
 {hf,accu=1.d-8}
 E_HF_AB=energy
 core,$nkernab
 {ccsd(t)-f12,scale_trip=1,THRF12=1.d-12}
 E_F12_AB=energy
 
                                                                                 ! Monomer A Part
 
 dummy,6,7,8;
 {hf,accu=1.d-8}
 E_HF_A=energy
 core,$nkerna
 {ccsd(t)-f12,scale_trip=1,THRF12=1.d-12}
 E_F12_A=energy
 
                                                                                 ! Monomer B Part
 
 dummy,1,2,3,4,5;
 {hf,accu=1.d-8}
 E_HF_B=energy
 core,$nkernb
 {ccsd(t)-f12,scale_trip=1,THRF12=1.d-12}
 E_F12_B=energy
 
 E_int_HF = E_HF_AB-(E_HF_A+E_HF_B)
 E_int_F12 = E_F12_AB-(E_F12_A+E_F12_B)
 
 
 show,E_int_HF,E_int_F12

 Variables initialized (889), CPU time= 0.00 sec
 Commands  initialized (702), CPU time= 0.01 sec, 572 directives.
 Default parameters read. Elapsed time= 0.07 sec

 Checking input...
 Passed
1


                                         ***  PROGRAM SYSTEM MOLPRO  ***
                                       Copyright, TTI GmbH Stuttgart, 2015
                                    Version 2015.1 linked Jul  2 2018 15:03:07


 **********************************************************************************************************************************
 LABEL *                                                                                 
  64 bit serial version                                                                  DATE: 17-Jan-19          TIME: 14:52:52  
 **********************************************************************************************************************************

 SHA1:             
 **********************************************************************************************************************************
 SETTING ZSYMEL         =    NOSYM
 ZSYMEL=NOSYM
 ZUNIT=ANG
 

Geometry recognized as XYZ


 Variable memory set to 3000000000 words,  buffer space   230000 words

 SETTING BASIS          =    VTZ-F12

 THRESHOLDS:

 ZERO    =  1.00D-12  ONEINT  =  1.00D-12  TWOINT  =  1.00D-19  PREFAC  =  1.00D-14  LOCALI  =  1.00D-09  EORDER  =  1.00D-04
 ENERGY  =  1.00D-08  ETEST   =  0.00D+00  EDENS   =  0.00D+00  THRDEDEF=  1.00D-06  GRADIENT=  1.00D-02  STEP    =  1.00D-03
 ORBITAL =  1.00D-08  CIVEC   =  1.00D-05  COEFF   =  1.00D-04  PRINTCI =  5.00D-02  PUNCHCI =  9.90D+01  OPTGRAD =  3.00D-04
 OPTENERG=  1.00D-06  OPTSTEP =  3.00D-04  THRGRAD =  1.00D-10  COMPRESS=  1.00D-11  VARMIN  =  1.00D-07  VARMAX  =  1.00D-03
 THRDOUB =  0.00D+00  THRDIV  =  1.00D-05  THRRED  =  1.00D-07  THRPSP  =  1.00D+00  THRDC   =  1.00D-10  THRCS   =  1.00D-10
 THRNRM  =  1.00D-08  THREQ   =  0.00D+00  THRDE   =  1.00D+00  THRREF  =  1.00D-05  SPARFAC =  1.00D+00  THRDLP  =  1.00D-07
 THRDIA  =  1.00D-10  THRDLS  =  1.00D-07  THRGPS  =  0.00D+00  THRKEX  =  0.00D+00  THRDIS  =  2.00D-01  THRVAR  =  1.00D-10
 THRLOC  =  1.00D-06  THRGAP  =  1.00D-06  THRLOCT = -1.00D+00  THRGAPT = -1.00D+00  THRORB  =  1.00D-06  THRMLTP =  0.00D+00
 THRCPQCI=  1.00D-10  KEXTA   =  0.00D+00  THRCOARS=  0.00D+00  SYMTOL  =  1.00D-06  GRADTOL =  1.00D-06  THROVL  =  1.00D-08
 THRORTH =  1.00D-08  GRID    =  1.00D-06  GRIDMAX =  1.00D-03  DTMAX   =  0.00D+00  THROCCDE=  1.00D-01  THROCCDE=  1.00D-01


 SETTING NKERNA         =         1.00000000                                  
 SETTING NKERNB         =         1.00000000                                  
 SETTING NKERNAB        =         2.00000000                                  


 Recomputing integrals since basis changed


 Using spherical harmonics

 Library entry C      S cc-pVTZ-F12          selected for orbital group  1
 Library entry C      P cc-pVTZ-F12          selected for orbital group  1
 Library entry C      D cc-pVTZ-F12          selected for orbital group  1
 Library entry C      F cc-pVTZ-F12          selected for orbital group  1
 Library entry H      S cc-pVTZ-F12          selected for orbital group  2
 Library entry H      P cc-pVTZ-F12          selected for orbital group  2
 Library entry H      D cc-pVTZ-F12          selected for orbital group  2
 Library entry O      S cc-pVTZ-F12          selected for orbital group  3
 Library entry O      P cc-pVTZ-F12          selected for orbital group  3
 Library entry O      D cc-pVTZ-F12          selected for orbital group  3
 Library entry O      F cc-pVTZ-F12          selected for orbital group  3


 PROGRAM * SEWARD (Integral evaluation for generally contracted gaussian basis sets)     Author: Roland Lindh, 1990

 Geometry written to block  1 of record 700


 Point group  C1  



 ATOMIC COORDINATES

 NR  ATOM    CHARGE       X              Y              Z

   1  C1      6.00   -6.193010455    2.801518980    2.403542658
   2  H1      1.00   -4.656285171    1.699997622    3.119937832
   3  H2      1.00   -5.973046335    4.726205038    2.982932688
   4  H3      1.00   -7.940251230    2.077186956    3.118237078
   5  H4      1.00   -6.176569838    2.685300823    0.384937212
   6  O1      8.00   -0.603200579    4.424037830    7.113685023
   7  H5      1.00    0.770063396    4.853761551    8.236371314
   8  H6      1.00   -0.289128097    2.656576986    6.606293559

 Bond lengths in Bohr (Angstrom)

 1-2  2.021904040  1-3  2.022002335  1-4  2.021953343  1-5  2.022015060  6-7  1.825086553
     ( 1.069945541)     ( 1.069997556)     ( 1.069971630)     ( 1.070004290)     ( 0.965794212)

 6-8  1.865477274
     ( 0.987168061)

 Bond angles

  2-1-3  109.53398059   2-1-4  109.65604535   2-1-5  108.43490854   3-1-4  109.49436728

  3-1-5  109.86987750   4-1-5  109.83468330   7-6-8  105.29057030

 NUCLEAR CHARGE:                   20
 NUMBER OF PRIMITIVE AOS:         270
 NUMBER OF SYMMETRY AOS:          246
 NUMBER OF CONTRACTIONS:          214   ( 214A   )
 NUMBER OF CORE ORBITALS:           2   (   2A   )
 NUMBER OF VALENCE ORBITALS:       14   (  14A   )


 NUCLEAR REPULSION ENERGY   35.83278858


 Eigenvalues of metric

         1 0.749E-04 0.180E-03 0.325E-03 0.333E-03 0.334E-03 0.415E-03 0.538E-03 0.564E-03


 Contracted 2-electron integrals neglected if value below      1.0D-19
 AO integral compression algorithm  1   Integral accuracy      1.0D-19

     2021.917 MB (compressed) written to integral file ( 83.0%)


 NUMBER OF SORTED TWO-ELECTRON INTEGRALS:  264626515.     BUFFER LENGTH:  32768
 NUMBER OF SEGMENTS:  17  SEGMENT LENGTH:   15999762      RECORD LENGTH: 524288

 Memory used in sort:      16.56 MW

 SORT1 READ   304636334. AND WROTE   243599609. INTEGRALS IN    705 RECORDS. CPU TIME:     3.26 SEC, REAL TIME:    43.12 SEC
 SORT2 READ   243599609. AND WROTE   264626515. INTEGRALS IN   7713 RECORDS. CPU TIME:     3.16 SEC, REAL TIME:    15.03 SEC

 FILE SIZES:   FILE 1:  2043.6 MBYTE,  FILE 4:  2957.0 MBYTE,   TOTAL:   5000.6 MBYTE

 OPERATOR DM      FOR CENTER  0  COORDINATES:    0.000000    0.000000    0.000000


 **********************************************************************************************************************************
 DATASETS  * FILE   NREC   LENGTH (MB)   RECORD NAMES
              1      19     1792.35       500      610      700      900      950      970     1000      129      960     1100   
                                          VAR    BASINP    GEOM    SYMINP    ZMAT    AOBASIS   BASIS     P2S    ABASIS      S 
                                         1400     1410     1200     1210     1080     1600     1650     1300     1700   
                                           T        V       H0       H01     AOSYM     SMH    MOLCAS    ERIS     OPER   

 PROGRAMS   *        TOTAL       INT
 CPU TIMES  *        15.71     15.59
 REAL TIME  *        86.59 SEC
 DISK USED  *         5.00 GB      
 **********************************************************************************************************************************


 PROGRAM * RHF-SCF (CLOSED SHELL)       Authors: W. Meyer, H.-J. Werner


 NUMBER OF ELECTRONS:      10+   10-    SPACE SYMMETRY=1    SPIN SYMMETRY: Singlet 
 CONVERGENCE THRESHOLDS:    1.00E-04 (Density)    1.00E-09 (Energy)
 MAX. NUMBER OF ITERATIONS:       60
 INTERPOLATION TYPE:            DIIS
 INTERPOLATION STEPS:              2 (START)      1 (STEP)
 LEVEL SHIFTS:                  0.00 (CLOSED)  0.00 (OPEN) 



 Orbital guess generated from atomic densities. Full valence occupancy:   16

 Molecular orbital dump at record        2100.2

 Initial occupancy:  10

 ITERATION    DDIFF          GRAD             ENERGY        2-EL.EN.            DIPOLE MOMENTS         DIIS   ORB.
    1      0.000D+00      0.000D+00      -116.21960931    157.401361    0.86759   -0.69364    0.31096    0    start
    2      0.000D+00      0.549D-02      -116.26391593    152.356739    0.51882   -0.35880    0.21032    1    diag
    3      0.564D-02      0.322D-02      -116.27754495    154.442541    0.60720   -0.44160    0.23640    2    diag
    4      0.183D-02      0.477D-03      -116.27820217    154.328172    0.59892   -0.43450    0.23342    3    diag
    5      0.419D-03      0.140D-03      -116.27827042    154.323578    0.59862   -0.43353    0.23365    4    diag
    6      0.155D-03      0.336D-04      -116.27827416    154.329114    0.59803   -0.43291    0.23348    5    diag
    7      0.399D-04      0.663D-05      -116.27827437    154.327483    0.59801   -0.43288    0.23347    6    diag
    8      0.103D-04      0.165D-05      -116.27827439    154.327651    0.59795   -0.43282    0.23346    7    diag
    9      0.276D-05      0.399D-06      -116.27827439    154.327625    0.59793   -0.43280    0.23345    8    diag
   10      0.578D-06      0.469D-07      -116.27827439    154.327627    0.59793   -0.43280    0.23345    0    orth

 Final occupancy:  10

 !RHF STATE 1.1 Energy               -116.278274389397
 Nuclear energy                        35.83278858
 One-electron energy                 -229.27487623
 Two-electron energy                   77.16381326
 Virial quotient                       -1.00063093
 !RHF STATE 1.1 Dipole moment           0.59793403    -0.43279795     0.23345444
 Dipole moment /Debye                   1.51969717    -1.09999061     0.59334313

 Orbital energies:

         1.1          2.1          3.1          4.1          5.1          6.1          7.1          8.1          9.1         10.1
    -20.567986   -11.189947    -1.342985    -0.944221    -0.709227    -0.580143    -0.545771    -0.542636    -0.541820    -0.508889

        11.1         12.1
      0.060486     0.070204

 HOMO     10.1    -0.508889 =     -13.8476eV
 LUMO     11.1     0.060486 =       1.6459eV
 LUMO-HOMO         0.569375 =      15.4935eV


 **********************************************************************************************************************************
 DATASETS  * FILE   NREC   LENGTH (MB)   RECORD NAMES
              1      19     1792.35       500      610      700      900      950      970     1000      129      960     1100   
                                          VAR    BASINP    GEOM    SYMINP    ZMAT    AOBASIS   BASIS     P2S    ABASIS      S 
                                         1400     1410     1200     1210     1080     1600     1650     1300     1700   
                                           T        V       H0       H01     AOSYM     SMH    MOLCAS    ERIS     OPER   

              2       4        3.81       700     1000      520     2100   
                                         GEOM     BASIS   MCVARS     RHF  

 PROGRAMS   *        TOTAL        HF       INT
 CPU TIMES  *        40.96     25.25     15.59
 REAL TIME  *       115.46 SEC
 DISK USED  *         5.00 GB      
 **********************************************************************************************************************************
 SETTING E_HF_AB        =      -116.27827439  AU                              


 PROGRAM * CCSD (Closed-shell coupled cluster)     Authors: C. Hampel, H.-J. Werner, 1991, M. Deegan, P.J. Knowles, 1992

                                  CCSD-F12 implementation by  H.-J. Werner, 2007

                   Density fitting integral evaluation by F.R. Manby, 2003,2007, G. Knizia, 2010

 Basis set CC-PVTZ/JKFIT generated.      Number of basis functions:   338 
 Basis set CC-PVTZ-F12/OPTRI generated.  Number of basis functions:   396 
 Basis set AUG-CC-PVTZ/MP2FIT generated. Number of basis functions:   488 

 Convergence thresholds:  THRVAR = 1.00D-08  THRDEN = 1.00D-08

 CCSD(T)     terms to be evaluated (factor= 1.000)


 Number of core orbitals:           2 (   2 )
 Number of closed-shell orbitals:   8 (   8 )
 Number of external orbitals:     204 ( 204 )

 Molecular orbitals read from record     2100.2  Type=RHF/CANONICAL (state 1.1)

 MP2-F12 correlation treatment (H.-J. Werner, 2006)
 ==================================================

 Using MP2-F12 with ansatz 3C(FIX)

 Using projected zeroth-order Hamiltonian (+Z)

 FOCKRIB=T FOCKRIC=T FOCKRIP=T CABSP=T CABSA=T CABSK=T CABSF=T GBC=F EBC=F DMAT=T NOFIK=T NOPAO=1 SOLVE=-1  USEPAO=0
 EXCH_A= T EXCH_B= F EXCH_C= F EXCH_P= F
 
 Geminal basis:    OPTFULL  GEM_TYPE=SLATER  BETA=1.0  NGEM=6

 Optimizing Gaussian exponents for each gem_beta

 Geminal optimization for beta= 1.0000
 Weight function:   m=0, omega= 1.4646

 Augmented Hessian optimization of geminal fit. Trust ratio= 0.40000
 Convergence reached after   2 iterations. Final gradient= 8.26D-16, Step= 4.26D-06, Delta= 1.28D-09
 
 Alpha:                 0.19532     0.81920     2.85917     9.50073    35.69989   197.79328
 Coeff:                 0.27070     0.30552     0.18297     0.10986     0.06810     0.04224
 

 All pairs explicitly correlated. Number of r12-pairs:           36

 Excluding core orbitals from MO domains
 
 AO(A)-basis ORBITAL           loaded. Number of functions:     214
 RI(R)-basis CC-PVTZ-F12/OPTRI loaded. Number of functions:     396
 DF-basis CC-PVTZ/JKFIT        loaded. Number of functions:     338

 Screening thresholds:   THRAO=  1.00D-10  THRMO=  1.00D-09  THRPROD=  1.00D-09
                         THRSW=  1.00D-05  THROV=  1.00D-12  THRAOF12=   1.00D-08

 CPU time for Fock operators                      2.78 sec
 
 Construction of ABS:
 Smallest eigenvalue of S          3.94E-04  (threshold= 1.00E-08)
 Ratio eigmin/eigmax               5.07E-05  (threshold= 1.00E-09)
 Smallest eigenvalue of S kept     3.94E-04  (threshold= 3.94E-04, 0 functions deleted, 396 kept)
 
 Construction of CABS:
 Smallest eigenvalue of S          8.45E-07  (threshold= 1.00E-08)
 Ratio eigmin/eigmax               8.45E-07  (threshold= 1.00E-09)
 Smallest eigenvalue of S kept     8.45E-07  (threshold= 8.45E-07, 0 functions deleted, 396 kept)
 
 CPU time for CABS singles                        0.11 sec

 CABS-singles contribution of  -0.00161010 patched into reference energy.
 New reference energy        -116.27988449
 
 AO(A)-basis ORBITAL           loaded. Number of functions:     214
 RI(R)-basis CC-PVTZ-F12/OPTRI loaded. Number of functions:     396
 DF-basis AUG-CC-PVTZ/MP2FIT   loaded. Number of functions:     488

 Screening thresholds:   THRAO=  1.00D-10  THRMO=  1.00D-09  THRPROD=  1.00D-09
                         THRSW=  1.00D-05  THROV=  1.00D-12  THRAOF12=   1.00D-08

 CPU time for 3-index integral evaluation         5.67 sec
 CPU time for first  half transformation          0.49 sec (10509.7 MFLOP/sec)
 CPU time for second half transformation          0.03 sec ( 3898.8 MFLOP/sec)
 CPU time for sorting                             0.01 sec
 CPU time for fitting                             0.07 sec (34837.1 MFLOP/sec)
 CPU time for tilde quantities                    0.08 sec (40198.7 MFLOP/sec)
 CPU time for assembly                            0.81 sec (36961.1 MFLOP/sec)
 CPU time for tranop_f12                          1.10 sec (35210.7 MFLOP/sec)
 CPU time for f12 integrals (total)               9.68 sec, Elapsed time:     14.42 sec
 CPU time for f12 matrices (total)                0.34 sec, Elapsed time:      0.40 sec

 Diagonal F12 approximation with fixed coefficients:  TSING= 0.500,  TTRIP= 0.250 (scaled by -1/beta)

 DF-MP2-F12 energy corrections:
 ==============================
 Approx.                                    Singlet             Triplet             Total
 DF-MP2-F12/3*C(DX,FIX)                -0.041446058177     -0.004151373161     -0.045597431338
 DF-MP2-F12/3*C(FIX)                   -0.039312572533     -0.003879919951     -0.043192492484
 DF-MP2-F12/3C(FIX)                    -0.039170849691     -0.003986089196     -0.043156938887

 DF-MP2-F12 correlation energies:
 ================================
 Approx.                                    Singlet             Triplet             Ecorr            Total Energy
 DF-MP2                                -0.320555162876     -0.155842259247     -0.476397422123   -116.756281913404
 DF-MP2-F12/3*C(DX,FIX)                -0.362001221053     -0.159993632408     -0.521994853461   -116.801879344741
 DF-MP2-F12/3*C(FIX)                   -0.359867735409     -0.159722179198     -0.519589914608   -116.799474405888
 DF-MP2-F12/3C(FIX)                    -0.359726012567     -0.159828348443     -0.519554361011   -116.799438852291

 SCS-DF-MP2 energies (F_SING= 1.20000  F_TRIP= 0.62222  F_PARALLEL= 0.33333):
 ============================================================================
 SCS-DF-MP2                            -0.481634712316   -116.761519203597
 SCS-DF-MP2-F12/3*C(DX,FIX)            -0.533953058762   -116.813837550042
 SCS-DF-MP2-F12/3*C(FIX)               -0.531223971770   -116.811108463050
 SCS-DF-MP2-F12/3C(FIX)                -0.531119965223   -116.811004456504
 Symmetry transformation completed.

 Number of N-1 electron functions:               8
 Number of N-2 electron functions:              36
 Number of singly external CSFs:              1632
 Number of doubly external CSFs:           1332528
 Total number of CSFs:                     1334161

 Length of J-op  integral file:             205.73 MB
 Length of K-op  integral file:             258.78 MB
 Length of 3-ext integral record:             0.00 MB

 Memory could be reduced to 93.27 Mwords without degradation in triples

 Integral transformation finished. Total CPU:   9.37 sec, npass=  1  Memory used:  48.07 MW

 Reference energy:                   -116.27988449

 Adding F12 terms to K(Cij), methodcc=6,  factor= 1.0

 ITER.      SQ.NORM     CORR.ENERGY   TOTAL ENERGY   ENERGY CHANGE        DEN1      VAR(S)    VAR(P)  DIIS     TIME  TIME/IT
   1      1.13235089    -0.49161783  -116.77150232    -0.01514367    -0.00364068  0.14D-02  0.19D-02  1  1    31.04     8.76
   2      1.14029807    -0.49217780  -116.77206229    -0.00055998    -0.00956319  0.29D-04  0.23D-03  2  2    39.64     8.91
   3      1.14329699    -0.49243101  -116.77231551    -0.00025321    -0.00213988  0.12D-04  0.13D-04  3  3    48.27    11.25
   4      1.14426408    -0.49246350  -116.77234799    -0.00003248    -0.00060341  0.59D-06  0.10D-05  4  4    56.89    10.71
   5      1.14441940    -0.49246272  -116.77234721     0.00000078    -0.00002936  0.15D-06  0.62D-07  5  5    65.50    10.38
   6      1.14445253    -0.49246058  -116.77234507     0.00000214    -0.00000652  0.13D-07  0.66D-08  6  6    74.14    10.17
   7      1.14446005    -0.49245992  -116.77234441     0.00000066    -0.00000224  0.19D-08  0.56D-09  6  2    82.75    10.01
   8      1.14446274    -0.49245980  -116.77234429     0.00000012    -0.00000054  0.17D-09  0.55D-10  6  1    91.39     9.90
   9      1.14446331    -0.49245981  -116.77234430    -0.00000001    -0.00000002  0.13D-10  0.10D-10  6  3   100.02     9.81
  10      1.14446339    -0.49245982  -116.77234431    -0.00000001     0.00000009  0.18D-11  0.12D-11  6  4   108.66     9.73
  11      1.14446337    -0.49245982  -116.77234431    -0.00000000     0.00000006  0.27D-12  0.14D-12  6  5   117.32     9.68
  12      1.14446334    -0.49245982  -116.77234431     0.00000000     0.00000001  0.54D-13  0.16D-13  6  6   125.94     9.63

 Norm of t1 vector:      0.04891982      S-energy:     0.00000000      T1 diagnostic:  0.00864788
                                                                       D1 diagnostic:  0.01832619

 Adding energy correction from Wij-K(Fij), methodcc=6  factor= 1.0
 
  CCSD correlation energy              -0.492459821263
  MP2-F12 correction (uncoupled)       -0.041734924237
  C*T doubles correction               -0.001128633542
  f12b correction                       0.007811325164


 Total CPU time for triples:    153.49 sec

  Ecorr(MP2)                           -0.476474151845
  Ecorr(MP2-F12)                       -0.519631090732
  Scale factor for triples energy       1.090575614061


 RESULTS
 =======

  Reference energy                   -116.278274389398
  F12 singles correction               -0.001610101883

 F12 singles corrections added to reference energy

  New reference energy               -116.279884491280

  F12a singlet correction              -0.038997777573
  F12a triplet correction              -0.003865780207
  F12a total correction                -0.042863557780

 F12a corrections for ansatz F12/3C(FIX) added to CCSD energy
 
  CCSD-F12a singlet pair energy        -0.388907961850
  CCSD-F12a triplet pair energy        -0.146415421660
  CCSD-F12a correlation energy         -0.535323379043

  Triples (T) contribution (scaled)    -0.016821655066
  Total correlation energy             -0.552145034109

  CCSD-F12a total energy             -116.815207870323
  CCSD[T]-F12a energy                -116.832609056678
  CCSD-T-F12a energy                 -116.831808068339
 !CCSD(T)-F12a total energy          -116.832029525389

 F12b corrections for ansatz F12/3C(FIX) added to CCSD(T)-F12a energy

  CCSD-F12b singlet pair energy        -0.381562812671
  CCSD-F12b triplet pair energy        -0.145949245675
  CCSD-F12b correlation energy         -0.527512053878

  Triples (T) contribution (scaled)    -0.016821655066
  Total correlation energy             -0.544333708944

  CCSD-F12b total energy             -116.807396545159
  CCSD[T]-F12b energy                -116.824797731514
  CCSD-T-F12b energy                 -116.823996743175
 !CCSD(T)-F12b total energy          -116.824218200225

 Timing summary (sec):

 STEP                 CPU(USER)    SYS     CPU(TOT)    WALL
 Transformation          9.48      0.95     10.43     15.45
 CCSD iterations       103.34      5.29    108.63    115.66
 Triples               153.49      2.49    155.98    156.01
 MP2-F12                13.13      1.28     14.41     31.85
 F12b energy             6.88      0.28      7.16      7.19

 Program statistics:

 Available memory in ccsd:              2999999464
 Min. memory needed in ccsd:               3963025
 Max. memory used in ccsd:                 5096465
 Max. memory used in cckext:               3666031 (13 integral passes)



 **********************************************************************************************************************************
 DATASETS  * FILE   NREC   LENGTH (MB)   RECORD NAMES
              1      20     2085.90       500      610      700      900      950      970     1000      129      960     1100   
                                          VAR    BASINP    GEOM    SYMINP    ZMAT    AOBASIS   BASIS     P2S    ABASIS      S 
                                         1400     1410     1200     1210     1080     1600     1650     1300     1700     1380   
                                           T        V       H0       H01     AOSYM     SMH    MOLCAS    ERIS     OPER     JKOP   

              2       6        4.74       700     1000      520     2100     7360     7350   
                                         GEOM     BASIS   MCVARS     RHF    F12ABS    EF12   

 PROGRAMS   *        TOTAL   CCSD(T)        HF       INT
 CPU TIMES  *       327.33    286.35     25.25     15.59
 REAL TIME  *       441.83 SEC
 DISK USED  *         5.00 GB      
 **********************************************************************************************************************************
 SETTING E_F12_AB(1)    =      -116.83202953  AU                              
 SETTING E_F12_AB(2)    =      -116.82421820  AU                              

 Dummy atoms: O1  H5  H6


 Recomputing one-electron integrals since nuclear charges changed


 PROGRAM * SEWARD (Integral evaluation for generally contracted gaussian basis sets)     Author: Roland Lindh, 1990

 Geometry written to block  1 of record 700


 Point group  C1  



 ATOMIC COORDINATES

 NR  ATOM    CHARGE       X              Y              Z

   1  C1      6.00   -6.193010455    2.801518980    2.403542658
   2  H1      1.00   -4.656285171    1.699997622    3.119937832
   3  H2      1.00   -5.973046335    4.726205038    2.982932688
   4  H3      1.00   -7.940251230    2.077186956    3.118237078
   5  H4      1.00   -6.176569838    2.685300823    0.384937212
   6  O1      0.00   -0.603200579    4.424037830    7.113685023
   7  H5      0.00    0.770063396    4.853761551    8.236371314
   8  H6      0.00   -0.289128097    2.656576986    6.606293559

 Bond lengths in Bohr (Angstrom)

 1-2  2.021904040  1-3  2.022002335  1-4  2.021953343  1-5  2.022015060  6-7  1.825086553
     ( 1.069945541)     ( 1.069997556)     ( 1.069971630)     ( 1.070004290)     ( 0.965794212)

 6-8  1.865477274
     ( 0.987168061)

 Bond angles

  2-1-3  109.53398059   2-1-4  109.65604535   2-1-5  108.43490854   3-1-4  109.49436728

  3-1-5  109.86987750   4-1-5  109.83468330   7-6-8  105.29057030

 NUCLEAR CHARGE:                   10
 NUMBER OF PRIMITIVE AOS:         270
 NUMBER OF SYMMETRY AOS:          246
 NUMBER OF CONTRACTIONS:          214   ( 214A   )
 NUMBER OF CORE ORBITALS:           1   (   1A   )
 NUMBER OF VALENCE ORBITALS:        8   (   8A   )

 MOLECULE CHANGED: INITIALIZING OCCUPATION AND DUMP RECORDS


 NUCLEAR REPULSION ENERGY   13.68681606


 Eigenvalues of metric

         1 0.749E-04 0.180E-03 0.325E-03 0.333E-03 0.334E-03 0.415E-03 0.538E-03 0.564E-03


 Contracted 2-electron integrals neglected if value below      1.0D-19

 OPERATOR DM      FOR CENTER  0  COORDINATES:    0.000000    0.000000    0.000000


 **********************************************************************************************************************************
 DATASETS  * FILE   NREC   LENGTH (MB)   RECORD NAMES
              1      19     1792.35       500      610      700      900      950      970     1000      129      960     1100   
                                          VAR    BASINP    GEOM    SYMINP    ZMAT    AOBASIS   BASIS     P2S    ABASIS      S 
                                         1400     1410     1200     1210     1080     1600     1650     1300     1700   
                                           T        V       H0       H01     AOSYM     SMH    MOLCAS    ERIS     OPER   

              2       6        4.74       700     1000      520     2100     7360     7350   
                                         GEOM     BASIS   MCVARS     RHF    F12ABS    EF12   

 PROGRAMS   *        TOTAL       INT   CCSD(T)        HF       INT
 CPU TIMES  *       327.40      0.08    286.35     25.25     15.59
 REAL TIME  *       442.13 SEC
 DISK USED  *         5.00 GB      
 **********************************************************************************************************************************


 PROGRAM * RHF-SCF (CLOSED SHELL)       Authors: W. Meyer, H.-J. Werner


 NUMBER OF ELECTRONS:       5+    5-    SPACE SYMMETRY=1    SPIN SYMMETRY: Singlet 
 CONVERGENCE THRESHOLDS:    1.00E-04 (Density)    1.00E-09 (Energy)
 MAX. NUMBER OF ITERATIONS:       60
 INTERPOLATION TYPE:            DIIS
 INTERPOLATION STEPS:              2 (START)      1 (STEP)
 LEVEL SHIFTS:                  0.00 (CLOSED)  0.00 (OPEN) 



 Orbital guess generated from atomic densities. Full valence occupancy:    9

 Molecular orbital dump at record        2101.2

 Initial occupancy:   5

 ITERATION    DDIFF          GRAD             ENERGY        2-EL.EN.            DIPOLE MOMENTS         DIIS   ORB.
    1      0.000D+00      0.000D+00       -40.19565269     53.501357    0.00417   -0.00271   -0.00127    0    start
    2      0.000D+00      0.368D-02       -40.21289716     52.216643    0.00133   -0.00083   -0.00038    1    diag
    3      0.318D-02      0.143D-02       -40.21516594     52.670304    0.00185   -0.00119   -0.00055    2    diag
    4      0.856D-03      0.357D-03       -40.21548414     52.615355    0.00164   -0.00105   -0.00048    3    diag
    5      0.329D-03      0.463D-04       -40.21548961     52.617509    0.00162   -0.00103   -0.00047    4    diag
    6      0.579D-04      0.375D-05       -40.21548965     52.617654    0.00162   -0.00103   -0.00047    5    diag
    7      0.882D-05      0.302D-06       -40.21548965     52.617613    0.00161   -0.00103   -0.00047    6    diag
    8      0.987D-06      0.227D-07       -40.21548965     52.617615    0.00162   -0.00103   -0.00047    0    orth

 Final occupancy:   5

 !RHF STATE 1.1 Energy                -40.215489647363
 Nuclear energy                        13.68681606
 One-electron energy                  -80.21111317
 Two-electron energy                   26.30880747
 Virial quotient                       -0.99832309
 !RHF STATE 1.1 Dipole moment           0.00161502    -0.00102625    -0.00046805
 Dipole moment /Debye                   0.00410470    -0.00260831    -0.00118958

 Orbital energies:

         1.1          2.1          3.1          4.1          5.1          6.1          7.1
    -11.196269    -0.950713    -0.551937    -0.550004    -0.547826     0.052919     0.067089

 HOMO      5.1    -0.547826 =     -14.9071eV
 LUMO      6.1     0.052919 =       1.4400eV
 LUMO-HOMO         0.600744 =      16.3471eV


 **********************************************************************************************************************************
 DATASETS  * FILE   NREC   LENGTH (MB)   RECORD NAMES
              1      19     1792.35       500      610      700      900      950      970     1000      129      960     1100   
                                          VAR    BASINP    GEOM    SYMINP    ZMAT    AOBASIS   BASIS     P2S    ABASIS      S 
                                         1400     1410     1200     1210     1080     1600     1650     1300     1700   
                                           T        V       H0       H01     AOSYM     SMH    MOLCAS    ERIS     OPER   

              2       7        8.14       700     1000      520     2100     7360     7350     2101   
                                         GEOM     BASIS   MCVARS     RHF    F12ABS    EF12      RHF  

 PROGRAMS   *        TOTAL        HF       INT   CCSD(T)        HF       INT
 CPU TIMES  *       347.97     20.57      0.08    286.35     25.25     15.59
 REAL TIME  *       465.64 SEC
 DISK USED  *         5.00 GB      
 **********************************************************************************************************************************
 SETTING E_HF_A         =       -40.21548965  AU                              


 PROGRAM * CCSD (Closed-shell coupled cluster)     Authors: C. Hampel, H.-J. Werner, 1991, M. Deegan, P.J. Knowles, 1992

                                  CCSD-F12 implementation by  H.-J. Werner, 2007

                   Density fitting integral evaluation by F.R. Manby, 2003,2007, G. Knizia, 2010

 Basis set CC-PVTZ/JKFIT generated.      Number of basis functions:   338 
 Basis set CC-PVTZ-F12/OPTRI generated.  Number of basis functions:   396 
 Basis set AUG-CC-PVTZ/MP2FIT generated. Number of basis functions:   488 

 Convergence thresholds:  THRVAR = 1.00D-08  THRDEN = 1.00D-08

 CCSD(T)     terms to be evaluated (factor= 1.000)


 Number of core orbitals:           1 (   1 )
 Number of closed-shell orbitals:   4 (   4 )
 Number of external orbitals:     209 ( 209 )

 Molecular orbitals read from record     2101.2  Type=RHF/CANONICAL (state 1.1)

 MP2-F12 correlation treatment (H.-J. Werner, 2006)
 ==================================================

 Using MP2-F12 with ansatz 3C(FIX)

 Using projected zeroth-order Hamiltonian (+Z)

 FOCKRIB=T FOCKRIC=T FOCKRIP=T CABSP=T CABSA=T CABSK=T CABSF=T GBC=F EBC=F DMAT=T NOFIK=T NOPAO=1 SOLVE=-1  USEPAO=0
 EXCH_A= T EXCH_B= F EXCH_C= F EXCH_P= F
 
 Geminal basis:    OPTFULL  GEM_TYPE=SLATER  BETA=1.0  NGEM=6

 Optimizing Gaussian exponents for each gem_beta

 Geminal optimization for beta= 1.0000
 Weight function:   m=0, omega= 1.4646

 Augmented Hessian optimization of geminal fit. Trust ratio= 0.40000
 Convergence reached after   2 iterations. Final gradient= 8.26D-16, Step= 4.26D-06, Delta= 1.28D-09
 
 Alpha:                 0.19532     0.81920     2.85917     9.50073    35.69989   197.79328
 Coeff:                 0.27070     0.30552     0.18297     0.10986     0.06810     0.04224
 

 All pairs explicitly correlated. Number of r12-pairs:           10

 Excluding core orbitals from MO domains
 
 AO(A)-basis ORBITAL           loaded. Number of functions:     214
 RI(R)-basis CC-PVTZ-F12/OPTRI loaded. Number of functions:     396
 DF-basis CC-PVTZ/JKFIT        loaded. Number of functions:     338

 Screening thresholds:   THRAO=  1.00D-10  THRMO=  1.00D-09  THRPROD=  1.00D-09
                         THRSW=  1.00D-05  THROV=  1.00D-12  THRAOF12=   1.00D-08

 CPU time for Fock operators                      2.68 sec
 
 Construction of ABS:
 Smallest eigenvalue of S          3.94E-04  (threshold= 1.00E-08)
 Ratio eigmin/eigmax               5.07E-05  (threshold= 1.00E-09)
 Smallest eigenvalue of S kept     3.94E-04  (threshold= 3.94E-04, 0 functions deleted, 396 kept)
 
 Construction of CABS:
 Smallest eigenvalue of S          8.45E-07  (threshold= 1.00E-08)
 Ratio eigmin/eigmax               8.45E-07  (threshold= 1.00E-09)
 Smallest eigenvalue of S kept     8.45E-07  (threshold= 8.45E-07, 0 functions deleted, 396 kept)
 
 CPU time for CABS singles                        0.11 sec

 CABS-singles contribution of  -0.00063793 patched into reference energy.
 New reference energy         -40.21612757
 
 AO(A)-basis ORBITAL           loaded. Number of functions:     214
 RI(R)-basis CC-PVTZ-F12/OPTRI loaded. Number of functions:     396
 DF-basis AUG-CC-PVTZ/MP2FIT   loaded. Number of functions:     488

 Screening thresholds:   THRAO=  1.00D-10  THRMO=  1.00D-09  THRPROD=  1.00D-09
                         THRSW=  1.00D-05  THROV=  1.00D-12  THRAOF12=   1.00D-08

 CPU time for 3-index integral evaluation         5.85 sec
 CPU time for first  half transformation          0.29 sec ( 8878.9 MFLOP/sec)
 CPU time for second half transformation          0.01 sec ( 2924.1 MFLOP/sec)
 CPU time for fitting                             0.04 sec (29768.0 MFLOP/sec)
 CPU time for tilde quantities                    0.04 sec (39722.4 MFLOP/sec)
 CPU time for assembly                            0.24 sec (33233.6 MFLOP/sec)
 CPU time for tranop_f12                          0.26 sec (36852.4 MFLOP/sec)
 CPU time for f12 integrals (total)               7.19 sec, Elapsed time:      7.66 sec
 CPU time for f12 matrices (total)                0.09 sec, Elapsed time:      0.12 sec

 Diagonal F12 approximation with fixed coefficients:  TSING= 0.500,  TTRIP= 0.250 (scaled by -1/beta)

 DF-MP2-F12 energy corrections:
 ==============================
 Approx.                                    Singlet             Triplet             Total
 DF-MP2-F12/3*C(DX,FIX)                -0.016293916636     -0.001140531644     -0.017434448280
 DF-MP2-F12/3*C(FIX)                   -0.015933436590     -0.001150570133     -0.017084006723
 DF-MP2-F12/3C(FIX)                    -0.015864071089     -0.001157666176     -0.017021737265

 DF-MP2-F12 correlation energies:
 ================================
 Approx.                                    Singlet             Triplet             Ecorr            Total Energy
 DF-MP2                                -0.145608952960     -0.055804576957     -0.201413529918    -40.417541103650
 DF-MP2-F12/3*C(DX,FIX)                -0.161902869596     -0.056945108601     -0.218847978197    -40.434975551929
 DF-MP2-F12/3*C(FIX)                   -0.161542389551     -0.056955147090     -0.218497536641    -40.434625110373
 DF-MP2-F12/3C(FIX)                    -0.161473024049     -0.056962243134     -0.218435267183    -40.434562840915

 SCS-DF-MP2 energies (F_SING= 1.20000  F_TRIP= 0.62222  F_PARALLEL= 0.33333):
 ============================================================================
 SCS-DF-MP2                            -0.209453591437    -40.425581165169
 SCS-DF-MP2-F12/3*C(DX,FIX)            -0.229715955534    -40.445843529266
 SCS-DF-MP2-F12/3*C(FIX)               -0.229289625650    -40.445417199382
 SCS-DF-MP2-F12/3C(FIX)                -0.229210802364    -40.445338376096
 Symmetry transformation completed.

 Number of N-1 electron functions:               4
 Number of N-2 electron functions:              10
 Number of singly external CSFs:               836
 Number of doubly external CSFs:            349866
 Total number of CSFs:                      350703

 Length of J-op  integral file:              53.89 MB
 Length of K-op  integral file:              87.81 MB
 Length of 3-ext integral record:             0.00 MB

 Memory could be reduced to 60.96 Mwords without degradation in triples

 Integral transformation finished. Total CPU:   5.54 sec, npass=  1  Memory used:  26.32 MW

 Reference energy:                    -40.21612757

 Adding F12 terms to K(Cij), methodcc=6,  factor= 1.0

 ITER.      SQ.NORM     CORR.ENERGY   TOTAL ENERGY   ENERGY CHANGE        DEN1      VAR(S)    VAR(P)  DIIS     TIME  TIME/IT
   1      1.06960494    -0.21651637   -40.43264395    -0.01506806    -0.00954257  0.62D-03  0.94D-03  1  1    19.46     3.85
   2      1.07445974    -0.21733205   -40.43345962    -0.00081567    -0.00516254  0.14D-04  0.90D-04  2  2    23.28     4.01
   3      1.07598109    -0.21744340   -40.43357097    -0.00011135    -0.00108938  0.20D-05  0.57D-05  3  3    27.12     4.06
   4      1.07635040    -0.21745795   -40.43358552    -0.00001455    -0.00020087  0.12D-06  0.31D-06  4  4    30.99     4.09
   5      1.07640226    -0.21745758   -40.43358515     0.00000037    -0.00000931  0.77D-08  0.15D-07  5  5    34.87     4.11
   6      1.07640856    -0.21745632   -40.43358389     0.00000126    -0.00000296  0.31D-09  0.82D-09  6  6    38.73     4.12
   7      1.07640929    -0.21745626   -40.43358383     0.00000006    -0.00000040  0.18D-10  0.57D-10  6  1    42.59     4.13
   8      1.07640935    -0.21745628   -40.43358386    -0.00000003     0.00000003  0.23D-11  0.52D-11  6  2    46.42     4.14
   9      1.07640936    -0.21745629   -40.43358386    -0.00000000     0.00000002  0.19D-12  0.32D-12  6  3    50.29     4.14
  10      1.07640935    -0.21745628   -40.43358386     0.00000000     0.00000001  0.22D-13  0.30D-13  6  4    54.13     4.17

 Norm of t1 vector:      0.03260845      S-energy:    -0.00000000      T1 diagnostic:  0.00815211
                                                                       D1 diagnostic:  0.01307209

 Adding energy correction from Wij-K(Fij), methodcc=6  factor= 1.0
 
  CCSD correlation energy              -0.217456284831
  MP2-F12 correction (uncoupled)       -0.016723505831
  C*T doubles correction               -0.000290560269
  f12b correction                       0.003526610133


 Total CPU time for triples:     21.75 sec

  Ecorr(MP2)                           -0.201448312958
  Ecorr(MP2-F12)                       -0.218470050223
  Scale factor for triples energy       1.084496797292


 RESULTS
 =======

  Reference energy                    -40.215489647363
  F12 singles correction               -0.000637926369

 F12 singles corrections added to reference energy

  New reference energy                -40.216127573732

  F12a singlet correction              -0.015868889194
  F12a triplet correction              -0.001145176906
  F12a total correction                -0.017014066101

 F12a corrections for ansatz F12/3C(FIX) added to CCSD energy
 
  CCSD-F12a singlet pair energy        -0.179253700349
  CCSD-F12a triplet pair energy        -0.055216650296
  CCSD-F12a correlation energy         -0.234470350932

  Triples (T) contribution (scaled)    -0.006988396288
  Total correlation energy             -0.241458747220

  CCSD-F12a total energy              -40.450597924664
  CCSD[T]-F12a energy                 -40.457827787382
  CCSD-T-F12a energy                  -40.457512940387
 !CCSD(T)-F12a total energy           -40.457586320952

 F12b corrections for ansatz F12/3C(FIX) added to CCSD(T)-F12a energy

  CCSD-F12b singlet pair energy        -0.175882001759
  CCSD-F12b triplet pair energy        -0.055061738753
  CCSD-F12b correlation energy         -0.230943740799

  Triples (T) contribution (scaled)    -0.006988396288
  Total correlation energy             -0.237932137087

  CCSD-F12b total energy              -40.447071314531
  CCSD[T]-F12b energy                 -40.454301177249
  CCSD-T-F12b energy                  -40.453986330254
 !CCSD(T)-F12b total energy           -40.454059710819

 Timing summary (sec):

 STEP                 CPU(USER)    SYS     CPU(TOT)    WALL
 Transformation          5.58      0.65      6.23      6.25
 CCSD iterations        38.34      3.15     41.49     41.79
 Triples                21.75      0.35     22.10     22.12
 MP2-F12                10.23      0.40     10.63     10.91
 F12b energy             3.38      0.24      3.62      3.65

 Program statistics:

 Available memory in ccsd:              2999999786
 Min. memory needed in ccsd:               1609972
 Max. memory used in ccsd:                 1864434
 Max. memory used in cckext:               1252381 (11 integral passes)



 **********************************************************************************************************************************
 DATASETS  * FILE   NREC   LENGTH (MB)   RECORD NAMES
              1      20     1945.35       500      610      700      900      950      970     1000      129      960     1100   
                                          VAR    BASINP    GEOM    SYMINP    ZMAT    AOBASIS   BASIS     P2S    ABASIS      S 
                                         1400     1410     1200     1210     1080     1600     1650     1300     1700     1380   
                                           T        V       H0       H01     AOSYM     SMH    MOLCAS    ERIS     OPER     JKOP   

              2       7        8.14       700     1000      520     2100     7360     7350     2101   
                                         GEOM     BASIS   MCVARS     RHF    F12ABS    EF12      RHF  

 PROGRAMS   *        TOTAL   CCSD(T)        HF       INT   CCSD(T)        HF       INT
 CPU TIMES  *       427.30     79.31     20.57      0.08    286.35     25.25     15.59
 REAL TIME  *       550.66 SEC
 DISK USED  *         5.00 GB      
 **********************************************************************************************************************************
 SETTING E_F12_A(1)     =       -40.45758632  AU                              
 SETTING E_F12_A(2)     =       -40.45405971  AU                              

 Dummy atoms: C1  H1  H2  H3  H4


 Recomputing one-electron integrals since nuclear charges changed


 PROGRAM * SEWARD (Integral evaluation for generally contracted gaussian basis sets)     Author: Roland Lindh, 1990

 Geometry written to block  1 of record 700


 Point group  C1  



 ATOMIC COORDINATES

 NR  ATOM    CHARGE       X              Y              Z

   1  C1      0.00   -6.193010455    2.801518980    2.403542658
   2  H1      0.00   -4.656285171    1.699997622    3.119937832
   3  H2      0.00   -5.973046335    4.726205038    2.982932688
   4  H3      0.00   -7.940251230    2.077186956    3.118237078
   5  H4      0.00   -6.176569838    2.685300823    0.384937212
   6  O1      8.00   -0.603200579    4.424037830    7.113685023
   7  H5      1.00    0.770063396    4.853761551    8.236371314
   8  H6      1.00   -0.289128097    2.656576986    6.606293559

 Bond lengths in Bohr (Angstrom)

 1-2  2.021904040  1-3  2.022002335  1-4  2.021953343  1-5  2.022015060  6-7  1.825086553
     ( 1.069945541)     ( 1.069997556)     ( 1.069971630)     ( 1.070004290)     ( 0.965794212)

 6-8  1.865477274
     ( 0.987168061)

 Bond angles

  2-1-3  109.53398059   2-1-4  109.65604535   2-1-5  108.43490854   3-1-4  109.49436728

  3-1-5  109.86987750   4-1-5  109.83468330   7-6-8  105.29057030

 NUCLEAR CHARGE:                   10
 NUMBER OF PRIMITIVE AOS:         270
 NUMBER OF SYMMETRY AOS:          246
 NUMBER OF CONTRACTIONS:          214   ( 214A   )
 NUMBER OF CORE ORBITALS:           1   (   1A   )
 NUMBER OF VALENCE ORBITALS:        6   (   6A   )

 MOLECULE CHANGED: INITIALIZING OCCUPATION AND DUMP RECORDS


 NUCLEAR REPULSION ENERGY    9.01266574


 Eigenvalues of metric

         1 0.749E-04 0.180E-03 0.325E-03 0.333E-03 0.334E-03 0.415E-03 0.538E-03 0.564E-03


 Contracted 2-electron integrals neglected if value below      1.0D-19

 OPERATOR DM      FOR CENTER  0  COORDINATES:    0.000000    0.000000    0.000000


 **********************************************************************************************************************************
 DATASETS  * FILE   NREC   LENGTH (MB)   RECORD NAMES
              1      19     1792.35       500      610      700      900      950      970     1000      129      960     1100   
                                          VAR    BASINP    GEOM    SYMINP    ZMAT    AOBASIS   BASIS     P2S    ABASIS      S 
                                         1400     1410     1200     1210     1080     1600     1650     1300     1700   
                                           T        V       H0       H01     AOSYM     SMH    MOLCAS    ERIS     OPER   

              2       7        8.14       700     1000      520     2100     7360     7350     2101   
                                         GEOM     BASIS   MCVARS     RHF    F12ABS    EF12      RHF  

 PROGRAMS   *        TOTAL       INT   CCSD(T)        HF       INT   CCSD(T)        HF       INT
 CPU TIMES  *       427.36      0.06     79.31     20.57      0.08    286.35     25.25     15.59
 REAL TIME  *       550.82 SEC
 DISK USED  *         5.00 GB      
 **********************************************************************************************************************************


 PROGRAM * RHF-SCF (CLOSED SHELL)       Authors: W. Meyer, H.-J. Werner


 NUMBER OF ELECTRONS:       5+    5-    SPACE SYMMETRY=1    SPIN SYMMETRY: Singlet 
 CONVERGENCE THRESHOLDS:    1.00E-04 (Density)    1.00E-09 (Energy)
 MAX. NUMBER OF ITERATIONS:       60
 INTERPOLATION TYPE:            DIIS
 INTERPOLATION STEPS:              2 (START)      1 (STEP)
 LEVEL SHIFTS:                  0.00 (CLOSED)  0.00 (OPEN) 



 Orbital guess generated from atomic densities. Full valence occupancy:    7

 Molecular orbital dump at record        2102.2

 Initial occupancy:   5

 ITERATION    DDIFF          GRAD             ENERGY        2-EL.EN.            DIPOLE MOMENTS         DIIS   ORB.
    1      0.000D+00      0.000D+00       -76.02453319     77.425374    0.86342   -0.69205    0.31176    0    start
    2      0.000D+00      0.672D-02       -76.05135175     73.780501    0.50817   -0.40084    0.18614    1    diag
    3      0.463D-02      0.426D-02       -76.06283992     75.397477    0.59689   -0.47204    0.21814    2    diag
    4      0.162D-02      0.401D-03       -76.06303455     75.305174    0.59384   -0.46827    0.21758    3    diag
    5      0.227D-03      0.112D-03       -76.06305543     75.319642    0.59271   -0.46680    0.21740    4    diag
    6      0.774D-04      0.222D-04       -76.06305678     75.318580    0.59244   -0.46640    0.21738    5    diag
    7      0.217D-04      0.449D-05       -76.06305684     75.318732    0.59235   -0.46627    0.21737    6    diag
    8      0.470D-05      0.865D-06       -76.06305684     75.318720    0.59232   -0.46624    0.21736    7    diag
    9      0.878D-06      0.115D-06       -76.06305684     75.318711    0.59231   -0.46623    0.21736    8    diag
   10      0.155D-06      0.256D-07       -76.06305684     75.318715    0.59231   -0.46623    0.21736    0    orth

 Final occupancy:   5

 !RHF STATE 1.1 Energy                -76.063056844084
 Nuclear energy                         9.01266574
 One-electron energy                 -122.73508026
 Two-electron energy                   37.65935767
 Virial quotient                       -1.00187330
 !RHF STATE 1.1 Dipole moment           0.59231490    -0.46623399     0.21735934
 Dipole moment /Debye                   1.50541570    -1.18497098     0.55243614

 Orbital energies:

         1.1          2.1          3.1          4.1          5.1          6.1          7.1
    -20.567861    -1.342813    -0.708970    -0.579788    -0.508750     0.045186     0.063601

 HOMO      5.1    -0.508750 =     -13.8438eV
 LUMO      6.1     0.045186 =       1.2296eV
 LUMO-HOMO         0.553937 =      15.0734eV


 **********************************************************************************************************************************
 DATASETS  * FILE   NREC   LENGTH (MB)   RECORD NAMES
              1      19     1792.35       500      610      700      900      950      970     1000      129      960     1100   
                                          VAR    BASINP    GEOM    SYMINP    ZMAT    AOBASIS   BASIS     P2S    ABASIS      S 
                                         1400     1410     1200     1210     1080     1600     1650     1300     1700   
                                           T        V       H0       H01     AOSYM     SMH    MOLCAS    ERIS     OPER   

              2       8       12.47       700     1000      520     2100     7360     7350     2101     2102   
                                         GEOM     BASIS   MCVARS     RHF    F12ABS    EF12      RHF      RHF  

 PROGRAMS   *        TOTAL        HF       INT   CCSD(T)        HF       INT   CCSD(T)        HF       INT
 CPU TIMES  *       452.64     25.28      0.06     79.31     20.57      0.08    286.35     25.25     15.59
 REAL TIME  *       578.92 SEC
 DISK USED  *         5.00 GB      
 **********************************************************************************************************************************
 SETTING E_HF_B         =       -76.06305684  AU                              


 PROGRAM * CCSD (Closed-shell coupled cluster)     Authors: C. Hampel, H.-J. Werner, 1991, M. Deegan, P.J. Knowles, 1992

                                  CCSD-F12 implementation by  H.-J. Werner, 2007

                   Density fitting integral evaluation by F.R. Manby, 2003,2007, G. Knizia, 2010

 Basis set CC-PVTZ/JKFIT generated.      Number of basis functions:   338 
 Basis set CC-PVTZ-F12/OPTRI generated.  Number of basis functions:   396 
 Basis set AUG-CC-PVTZ/MP2FIT generated. Number of basis functions:   488 

 Convergence thresholds:  THRVAR = 1.00D-08  THRDEN = 1.00D-08

 CCSD(T)     terms to be evaluated (factor= 1.000)


 Number of core orbitals:           1 (   1 )
 Number of closed-shell orbitals:   4 (   4 )
 Number of external orbitals:     209 ( 209 )

 Molecular orbitals read from record     2102.2  Type=RHF/CANONICAL (state 1.1)

 MP2-F12 correlation treatment (H.-J. Werner, 2006)
 ==================================================

 Using MP2-F12 with ansatz 3C(FIX)

 Using projected zeroth-order Hamiltonian (+Z)

 FOCKRIB=T FOCKRIC=T FOCKRIP=T CABSP=T CABSA=T CABSK=T CABSF=T GBC=F EBC=F DMAT=T NOFIK=T NOPAO=1 SOLVE=-1  USEPAO=0
 EXCH_A= T EXCH_B= F EXCH_C= F EXCH_P= F
 
 Geminal basis:    OPTFULL  GEM_TYPE=SLATER  BETA=1.0  NGEM=6

 Optimizing Gaussian exponents for each gem_beta

 Geminal optimization for beta= 1.0000
 Weight function:   m=0, omega= 1.4646

 Augmented Hessian optimization of geminal fit. Trust ratio= 0.40000
 Convergence reached after   2 iterations. Final gradient= 8.26D-16, Step= 4.26D-06, Delta= 1.28D-09
 
 Alpha:                 0.19532     0.81920     2.85917     9.50073    35.69989   197.79328
 Coeff:                 0.27070     0.30552     0.18297     0.10986     0.06810     0.04224
 

 All pairs explicitly correlated. Number of r12-pairs:           10

 Excluding core orbitals from MO domains
 
 AO(A)-basis ORBITAL           loaded. Number of functions:     214
 RI(R)-basis CC-PVTZ-F12/OPTRI loaded. Number of functions:     396
 DF-basis CC-PVTZ/JKFIT        loaded. Number of functions:     338

 Screening thresholds:   THRAO=  1.00D-10  THRMO=  1.00D-09  THRPROD=  1.00D-09
                         THRSW=  1.00D-05  THROV=  1.00D-12  THRAOF12=   1.00D-08

 CPU time for Fock operators                      2.65 sec
 
 Construction of ABS:
 Smallest eigenvalue of S          3.94E-04  (threshold= 1.00E-08)
 Ratio eigmin/eigmax               5.07E-05  (threshold= 1.00E-09)
 Smallest eigenvalue of S kept     3.94E-04  (threshold= 3.94E-04, 0 functions deleted, 396 kept)
 
 Construction of CABS:
 Smallest eigenvalue of S          8.45E-07  (threshold= 1.00E-08)
 Ratio eigmin/eigmax               8.45E-07  (threshold= 1.00E-09)
 Smallest eigenvalue of S kept     8.45E-07  (threshold= 8.45E-07, 0 functions deleted, 396 kept)
 
 CPU time for CABS singles                        0.11 sec

 CABS-singles contribution of  -0.00097416 patched into reference energy.
 New reference energy         -76.06403101
 
 AO(A)-basis ORBITAL           loaded. Number of functions:     214
 RI(R)-basis CC-PVTZ-F12/OPTRI loaded. Number of functions:     396
 DF-basis AUG-CC-PVTZ/MP2FIT   loaded. Number of functions:     488

 Screening thresholds:   THRAO=  1.00D-10  THRMO=  1.00D-09  THRPROD=  1.00D-09
                         THRSW=  1.00D-05  THROV=  1.00D-12  THRAOF12=   1.00D-08

 CPU time for 3-index integral evaluation         5.63 sec
 CPU time for first  half transformation          0.53 sec ( 4858.3 MFLOP/sec)
 CPU time for sorting                             0.01 sec
 CPU time for fitting                             0.04 sec (29768.0 MFLOP/sec)
 CPU time for tilde quantities                    0.04 sec (39722.4 MFLOP/sec)
 CPU time for assembly                            0.21 sec (37981.3 MFLOP/sec)
 CPU time for tranop_f12                          0.24 sec (39923.4 MFLOP/sec)
 CPU time for f12 integrals (total)               7.19 sec, Elapsed time:      7.69 sec
 CPU time for f12 matrices (total)                0.08 sec, Elapsed time:      0.11 sec

 Diagonal F12 approximation with fixed coefficients:  TSING= 0.500,  TTRIP= 0.250 (scaled by -1/beta)

 DF-MP2-F12 energy corrections:
 ==============================
 Approx.                                    Singlet             Triplet             Total
 DF-MP2-F12/3*C(DX,FIX)                -0.025143902102     -0.003001065648     -0.028144967750
 DF-MP2-F12/3*C(FIX)                   -0.023370307915     -0.002714707359     -0.026085015274
 DF-MP2-F12/3C(FIX)                    -0.023296400807     -0.002811335545     -0.026107736351

 DF-MP2-F12 correlation energies:
 ================================
 Approx.                                    Singlet             Triplet             Ecorr            Total Energy
 DF-MP2                                -0.174801761410     -0.099690978366     -0.274492739775    -76.338523746589
 DF-MP2-F12/3*C(DX,FIX)                -0.199945663512     -0.102692044014     -0.302637707525    -76.366668714339
 DF-MP2-F12/3*C(FIX)                   -0.198172069324     -0.102405685725     -0.300577755049    -76.364608761863
 DF-MP2-F12/3C(FIX)                    -0.198098162216     -0.102502313910     -0.300600476126    -76.364631482940

 SCS-DF-MP2 energies (F_SING= 1.20000  F_TRIP= 0.62222  F_PARALLEL= 0.33333):
 ============================================================================
 SCS-DF-MP2                            -0.271792055786    -76.335823062599
 SCS-DF-MP2-F12/3*C(DX,FIX)            -0.303832068045    -76.367863074858
 SCS-DF-MP2-F12/3*C(FIX)               -0.301525576529    -76.365556583343
 SCS-DF-MP2-F12/3C(FIX)                -0.301497012204    -76.365528019017
 Symmetry transformation completed.

 Number of N-1 electron functions:               4
 Number of N-2 electron functions:              10
 Number of singly external CSFs:               836
 Number of doubly external CSFs:            349866
 Total number of CSFs:                      350703

 Length of J-op  integral file:              53.89 MB
 Length of K-op  integral file:              87.81 MB
 Length of 3-ext integral record:             0.00 MB

 Memory could be reduced to 60.96 Mwords without degradation in triples

 Integral transformation finished. Total CPU:   5.62 sec, npass=  1  Memory used:  26.32 MW

 Reference energy:                    -76.06403101

 Adding F12 terms to K(Cij), methodcc=6,  factor= 1.0

 ITER.      SQ.NORM     CORR.ENERGY   TOTAL ENERGY   ENERGY CHANGE        DEN1      VAR(S)    VAR(P)  DIIS     TIME  TIME/IT
   1      1.06255250    -0.27464562   -76.33867663    -0.00011087     0.00585952  0.76D-03  0.10D-02  1  1    19.50     3.86
   2      1.06593155    -0.27439459   -76.33842559     0.00025104    -0.00466564  0.14D-04  0.11D-03  2  2    23.36     4.02
   3      1.06714051    -0.27452880   -76.33855981    -0.00013422    -0.00081908  0.92D-05  0.71D-05  3  3    27.21     4.07
   4      1.06769437    -0.27455105   -76.33858206    -0.00002225    -0.00036124  0.45D-06  0.57D-06  4  4    31.06     4.12
   5      1.06778895    -0.27454947   -76.33858048     0.00000158    -0.00002083  0.13D-06  0.36D-07  5  5    34.90     4.13
   6      1.06781475    -0.27454813   -76.33857914     0.00000134    -0.00000431  0.11D-07  0.36D-08  6  6    38.76     4.13
   7      1.06782141    -0.27454774   -76.33857875     0.00000039    -0.00000151  0.10D-08  0.31D-09  6  1    42.62     4.14
   8      1.06782290    -0.27454780   -76.33857881    -0.00000005    -0.00000002  0.95D-10  0.39D-10  6  2    46.47     4.14
   9      1.06782325    -0.27454780   -76.33857881    -0.00000000     0.00000005  0.74D-11  0.68D-11  6  4    50.31     4.15
  10      1.06782336    -0.27454780   -76.33857880     0.00000000    -0.00000000  0.14D-11  0.50D-12  6  3    54.15     4.15

 Norm of t1 vector:      0.03616720      S-energy:     0.00000001      T1 diagnostic:  0.00904180
                                                                       D1 diagnostic:  0.01813679

 Adding energy correction from Wij-K(Fij), methodcc=6  factor= 1.0
 
  CCSD correlation energy              -0.274547797880
  MP2-F12 correction (uncoupled)       -0.024990340867
  C*T doubles correction               -0.000834205960
  f12b correction                       0.004280102391

 Total CPU time for triples:     21.75 sec

  Ecorr(MP2)                           -0.274534751006
  Ecorr(MP2-F12)                       -0.300642487357
  Scale factor for triples energy       1.095098111462


 RESULTS
 =======

  Reference energy                    -76.063056844084
  F12 singles correction               -0.000974162729

 F12 singles corrections added to reference energy

  New reference energy                -76.064031006814

  F12a singlet correction              -0.023119597864
  F12a triplet correction              -0.002704948963
  F12a total correction                -0.025824546827

 F12a corrections for ansatz F12/3C(FIX) added to CCSD energy
 
  CCSD-F12a singlet pair energy        -0.209538068818
  CCSD-F12a triplet pair energy        -0.090834282865
  CCSD-F12a correlation energy         -0.300372344707

  Triples (T) contribution (scaled)    -0.009748378866
  Total correlation energy             -0.310120723574

  CCSD-F12a total energy              -76.364403351521
  CCSD[T]-F12a energy                 -76.374487492012
  CCSD-T-F12a energy                  -76.374004942275
 !CCSD(T)-F12a total energy           -76.374151730387

 F12b corrections for ansatz F12/3C(FIX) added to CCSD(T)-F12a energy

  CCSD-F12b singlet pair energy        -0.205568461091
  CCSD-F12b triplet pair energy        -0.090523788200
  CCSD-F12b correlation energy         -0.296092242316

  Triples (T) contribution (scaled)    -0.009748378866
  Total correlation energy             -0.305840621183

  CCSD-F12b total energy              -76.360123249130
  CCSD[T]-F12b energy                 -76.370207389621
  CCSD-T-F12b energy                  -76.369724839884
 !CCSD(T)-F12b total energy           -76.369871627996

 Timing summary (sec):

 STEP                 CPU(USER)    SYS     CPU(TOT)    WALL
 Transformation          5.65      0.60      6.25      6.28
 CCSD iterations        38.31      3.16     41.47     41.59
 Triples                21.75      0.36     22.11     22.21
 MP2-F12                10.20      0.42     10.62     18.44
 F12b energy             3.39      0.24      3.63      3.65

 Program statistics:

 Available memory in ccsd:              2999999786
 Min. memory needed in ccsd:               1609972
 Max. memory used in ccsd:                 1864434
 Max. memory used in cckext:               1252381 (11 integral passes)



 **********************************************************************************************************************************
 DATASETS  * FILE   NREC   LENGTH (MB)   RECORD NAMES
              1      20     1945.35       500      610      700      900      950      970     1000      129      960     1100   
                                          VAR    BASINP    GEOM    SYMINP    ZMAT    AOBASIS   BASIS     P2S    ABASIS      S 
                                         1400     1410     1200     1210     1080     1600     1650     1300     1700     1380   
                                           T        V       H0       H01     AOSYM     SMH    MOLCAS    ERIS     OPER     JKOP   

              2       8       12.47       700     1000      520     2100     7360     7350     2101     2102   
                                         GEOM     BASIS   MCVARS     RHF    F12ABS    EF12      RHF      RHF  

 PROGRAMS   *        TOTAL   CCSD(T)        HF       INT   CCSD(T)        HF       INT   CCSD(T)        HF       INT
 CPU TIMES  *       531.98     79.33     25.28      0.06     79.31     20.57      0.08    286.35     25.25     15.59
 REAL TIME  *       671.22 SEC
 DISK USED  *         5.00 GB      
 **********************************************************************************************************************************
 SETTING E_F12_B(1)     =       -76.37415173  AU                              
 SETTING E_F12_B(2)     =       -76.36987163  AU                              
 SETTING E_INT_HF       =         0.00027210  AU                              
 SETTING E_INT_F12(1)   =        -0.00029147  AU                              
 SETTING E_INT_F12(2)   =        -0.00028686  AU                              
 E_INT_HF         =         0.00027210 AU
 E_INT_F12(1:2)   = [      -0.00029147    -0.00028686] AU

 CCSD(T)-F12/cc-pVTZ-F12 energy=    -76.369871627996

     CCSD(T)-F12        HF-SCF       CCSD(T)-F12        HF-SCF       CCSD(T)-F12        HF-SCF  
    -76.36987163    -76.06305684    -40.45405971    -40.21548965   -116.82421820   -116.27827439
 **********************************************************************************************************************************
 Molpro calculation terminated
 Variable memory released
