
 Primary working directories    : /net/scratch/people/plgsirous
 Secondary working directories  : /net/scratch/people/plgsirous
 Wavefunction directory         : /net/people/plgsirous/wfu/
 Main file repository           : /net/scratch/people/plgsirous/

 SHA1      : 
 NAME      : 
 ARCHNAME  : linux/x86_64
 FC        : /net/software/local/intel/impi/2018.1.163/bin64/mpiifort
 BLASLIB   : -L/net/software/local/intel/compilers_and_libraries_2018.1.163/linux/mkl/lib/intel64 -lmkl_scalapack_ilp64 -lmkl_intel_ilp64 -lmkl_intel_thread -lmkl_core -lmkl_blacs_intelmpi_ilp64 -liomp5 -lpthread -lm -ldl
 id        : pl

 Nodes     nprocs
 p1478        1

 Using customized tuning parameters: mindgm=7; mindgv=20; mindgc=1; mindgr=1; noblas=0; minvec=7
 default implementation of scratch files=df  

 memory,3000,m
 zsymel=nosym
 angstrom
 geometry={
 C1        -3.2772    1.4825     1.2719
 H1        -2.4640    0.8996     1.6510
 H2        -3.1608    2.5010     1.5785
 H3        -4.2018    1.0992     1.6501
 H4        -3.2685    1.4210     0.2037
 O1        -0.5346    4.1678     1.5431
 H5        -0.4337    3.5180     2.2625
 H6        -0.3413    3.6684     0.7252
 }
 basis=vtz-f12
 gthresh,orbital=1d-8,energy=1d-8,twoint=1.d-19
 
 
 nkerna=1
 nkernb=1
 nkernab=$nkerna+$nkernb
 
                                                                                 ! AB Dimer
 {hf,accu=1.d-8}
 E_HF_AB=energy
 core,$nkernab
 {ccsd(t)-f12,scale_trip=1,THRF12=1.d-12}
 E_F12_AB=energy
 
                                                                                 ! Monomer A Part
 
 dummy,6,7,8;
 {hf,accu=1.d-8}
 E_HF_A=energy
 core,$nkerna
 {ccsd(t)-f12,scale_trip=1,THRF12=1.d-12}
 E_F12_A=energy
 
                                                                                 ! Monomer B Part
 
 dummy,1,2,3,4,5;
 {hf,accu=1.d-8}
 E_HF_B=energy
 core,$nkernb
 {ccsd(t)-f12,scale_trip=1,THRF12=1.d-12}
 E_F12_B=energy
 
 E_int_HF = E_HF_AB-(E_HF_A+E_HF_B)
 E_int_F12 = E_F12_AB-(E_F12_A+E_F12_B)
 
 
 show,E_int_HF,E_int_F12

 Variables initialized (889), CPU time= 0.00 sec
 Commands  initialized (702), CPU time= 0.01 sec, 572 directives.
 Default parameters read. Elapsed time= 0.07 sec

 Checking input...
 Passed
1


                                         ***  PROGRAM SYSTEM MOLPRO  ***
                                       Copyright, TTI GmbH Stuttgart, 2015
                                    Version 2015.1 linked Jul  2 2018 15:03:07


 **********************************************************************************************************************************
 LABEL *                                                                                 
  64 bit serial version                                                                  DATE: 17-Jan-19          TIME: 14:52:55  
 **********************************************************************************************************************************

 SHA1:             
 **********************************************************************************************************************************
 SETTING ZSYMEL         =    NOSYM
 ZSYMEL=NOSYM
 ZUNIT=ANG
 

Geometry recognized as XYZ


 Variable memory set to 3000000000 words,  buffer space   230000 words

 SETTING BASIS          =    VTZ-F12

 THRESHOLDS:

 ZERO    =  1.00D-12  ONEINT  =  1.00D-12  TWOINT  =  1.00D-19  PREFAC  =  1.00D-14  LOCALI  =  1.00D-09  EORDER  =  1.00D-04
 ENERGY  =  1.00D-08  ETEST   =  0.00D+00  EDENS   =  0.00D+00  THRDEDEF=  1.00D-06  GRADIENT=  1.00D-02  STEP    =  1.00D-03
 ORBITAL =  1.00D-08  CIVEC   =  1.00D-05  COEFF   =  1.00D-04  PRINTCI =  5.00D-02  PUNCHCI =  9.90D+01  OPTGRAD =  3.00D-04
 OPTENERG=  1.00D-06  OPTSTEP =  3.00D-04  THRGRAD =  1.00D-10  COMPRESS=  1.00D-11  VARMIN  =  1.00D-07  VARMAX  =  1.00D-03
 THRDOUB =  0.00D+00  THRDIV  =  1.00D-05  THRRED  =  1.00D-07  THRPSP  =  1.00D+00  THRDC   =  1.00D-10  THRCS   =  1.00D-10
 THRNRM  =  1.00D-08  THREQ   =  0.00D+00  THRDE   =  1.00D+00  THRREF  =  1.00D-05  SPARFAC =  1.00D+00  THRDLP  =  1.00D-07
 THRDIA  =  1.00D-10  THRDLS  =  1.00D-07  THRGPS  =  0.00D+00  THRKEX  =  0.00D+00  THRDIS  =  2.00D-01  THRVAR  =  1.00D-10
 THRLOC  =  1.00D-06  THRGAP  =  1.00D-06  THRLOCT = -1.00D+00  THRGAPT = -1.00D+00  THRORB  =  1.00D-06  THRMLTP =  0.00D+00
 THRCPQCI=  1.00D-10  KEXTA   =  0.00D+00  THRCOARS=  0.00D+00  SYMTOL  =  1.00D-06  GRADTOL =  1.00D-06  THROVL  =  1.00D-08
 THRORTH =  1.00D-08  GRID    =  1.00D-06  GRIDMAX =  1.00D-03  DTMAX   =  0.00D+00  THROCCDE=  1.00D-01  THROCCDE=  1.00D-01


 SETTING NKERNA         =         1.00000000                                  
 SETTING NKERNB         =         1.00000000                                  
 SETTING NKERNAB        =         2.00000000                                  


 Recomputing integrals since basis changed


 Using spherical harmonics

 Library entry C      S cc-pVTZ-F12          selected for orbital group  1
 Library entry C      P cc-pVTZ-F12          selected for orbital group  1
 Library entry C      D cc-pVTZ-F12          selected for orbital group  1
 Library entry C      F cc-pVTZ-F12          selected for orbital group  1
 Library entry H      S cc-pVTZ-F12          selected for orbital group  2
 Library entry H      P cc-pVTZ-F12          selected for orbital group  2
 Library entry H      D cc-pVTZ-F12          selected for orbital group  2
 Library entry O      S cc-pVTZ-F12          selected for orbital group  3
 Library entry O      P cc-pVTZ-F12          selected for orbital group  3
 Library entry O      D cc-pVTZ-F12          selected for orbital group  3
 Library entry O      F cc-pVTZ-F12          selected for orbital group  3


 PROGRAM * SEWARD (Integral evaluation for generally contracted gaussian basis sets)     Author: Roland Lindh, 1990

 Geometry written to block  1 of record 700


 Point group  C1  



 ATOMIC COORDINATES

 NR  ATOM    CHARGE       X              Y              Z

   1  C1      6.00   -6.193010455    2.801518980    2.403542658
   2  H1      1.00   -4.656285171    1.699997622    3.119937832
   3  H2      1.00   -5.973046335    4.726205038    2.982932688
   4  H3      1.00   -7.940251230    2.077186956    3.118237078
   5  H4      1.00   -6.176569838    2.685300823    0.384937212
   6  O1      8.00   -1.010247586    7.876000542    2.916036383
   7  H5      1.00   -0.819574220    6.648056506    4.275505357
   8  H6      1.00   -0.644963526    6.932271315    1.370429386

 Bond lengths in Bohr (Angstrom)

 1-2  2.021904040  1-3  2.022002335  1-4  2.021953343  1-5  2.022015060  6-7  1.841835709
     ( 1.069945541)     ( 1.069997556)     ( 1.069971630)     ( 1.070004290)     ( 0.974657483)

 6-8  1.847419359
     ( 0.977612224)

 Bond angles

  2-1-3  109.53398059   2-1-4  109.65604535   2-1-5  108.43490854   3-1-4  109.49436728

  3-1-5  109.86987750   4-1-5  109.83468330   7-6-8  104.86126985

 NUCLEAR CHARGE:                   20
 NUMBER OF PRIMITIVE AOS:         270
 NUMBER OF SYMMETRY AOS:          246
 NUMBER OF CONTRACTIONS:          214   ( 214A   )
 NUMBER OF CORE ORBITALS:           2   (   2A   )
 NUMBER OF VALENCE ORBITALS:       14   (  14A   )


 NUCLEAR REPULSION ENERGY   36.57703656


 Eigenvalues of metric

         1 0.722E-04 0.197E-03 0.290E-03 0.329E-03 0.337E-03 0.453E-03 0.530E-03 0.562E-03


 Contracted 2-electron integrals neglected if value below      1.0D-19
 AO integral compression algorithm  1   Integral accuracy      1.0D-19

     2128.085 MB (compressed) written to integral file ( 87.3%)


 NUMBER OF SORTED TWO-ELECTRON INTEGRALS:  264626515.     BUFFER LENGTH:  32768
 NUMBER OF SEGMENTS:  17  SEGMENT LENGTH:   15999762      RECORD LENGTH: 524288

 Memory used in sort:      16.56 MW

 SORT1 READ   304636334. AND WROTE   249559562. INTEGRALS IN    723 RECORDS. CPU TIME:     3.24 SEC, REAL TIME:     7.12 SEC
 SORT2 READ   249559562. AND WROTE   264626515. INTEGRALS IN   8118 RECORDS. CPU TIME:     3.18 SEC, REAL TIME:     7.67 SEC

 FILE SIZES:   FILE 1:  2149.8 MBYTE,  FILE 4:  3032.5 MBYTE,   TOTAL:   5182.3 MBYTE

 OPERATOR DM      FOR CENTER  0  COORDINATES:    0.000000    0.000000    0.000000


 **********************************************************************************************************************************
 DATASETS  * FILE   NREC   LENGTH (MB)   RECORD NAMES
              1      19     1891.65       500      610      700      900      950      970     1000      129      960     1100   
                                          VAR    BASINP    GEOM    SYMINP    ZMAT    AOBASIS   BASIS     P2S    ABASIS      S 
                                         1400     1410     1200     1210     1080     1600     1650     1300     1700   
                                           T        V       H0       H01     AOSYM     SMH    MOLCAS    ERIS     OPER   

 PROGRAMS   *        TOTAL       INT
 CPU TIMES  *        15.83     15.72
 REAL TIME  *        39.45 SEC
 DISK USED  *         5.18 GB      
 **********************************************************************************************************************************


 PROGRAM * RHF-SCF (CLOSED SHELL)       Authors: W. Meyer, H.-J. Werner


 NUMBER OF ELECTRONS:      10+   10-    SPACE SYMMETRY=1    SPIN SYMMETRY: Singlet 
 CONVERGENCE THRESHOLDS:    1.00E-04 (Density)    1.00E-09 (Energy)
 MAX. NUMBER OF ITERATIONS:       60
 INTERPOLATION TYPE:            DIIS
 INTERPOLATION STEPS:              2 (START)      1 (STEP)
 LEVEL SHIFTS:                  0.00 (CLOSED)  0.00 (OPEN) 



 Orbital guess generated from atomic densities. Full valence occupancy:   16

 Molecular orbital dump at record        2100.2

 Initial occupancy:  10

 ITERATION    DDIFF          GRAD             ENERGY        2-EL.EN.            DIPOLE MOMENTS         DIIS   ORB.
    1      0.000D+00      0.000D+00      -116.22074051    158.556458    0.29098   -1.11366   -0.09798    0    start
    2      0.000D+00      0.547D-02      -116.26462665    153.748107    0.13641   -0.62760   -0.05767    1    diag
    3      0.563D-02      0.319D-02      -116.27797607    155.756933    0.17677   -0.74815   -0.06706    2    diag
    4      0.182D-02      0.476D-03      -116.27862976    155.643633    0.17498   -0.73655   -0.06547    3    diag
    5      0.420D-03      0.139D-03      -116.27869802    155.638355    0.17428   -0.73568   -0.06517    4    diag
    6      0.156D-03      0.338D-04      -116.27870184    155.644019    0.17394   -0.73477   -0.06500    5    diag
    7      0.411D-04      0.684D-05      -116.27870207    155.642290    0.17392   -0.73474   -0.06497    6    diag
    8      0.111D-04      0.172D-05      -116.27870209    155.642469    0.17388   -0.73467   -0.06495    7    diag
    9      0.316D-05      0.404D-06      -116.27870209    155.642443    0.17388   -0.73465   -0.06495    8    diag
   10      0.673D-06      0.481D-07      -116.27870209    155.642445    0.17388   -0.73465   -0.06495    0    orth

 Final occupancy:  10

 !RHF STATE 1.1 Energy               -116.278702092551
 Nuclear energy                        36.57703656
 One-electron energy                 -230.67696113
 Two-electron energy                   77.82122247
 Virial quotient                       -1.00060192
 !RHF STATE 1.1 Dipole moment           0.17387682    -0.73464899    -0.06495025
 Dipole moment /Debye                   0.44192185    -1.86716917    -0.16507626

 Orbital energies:

         1.1          2.1          3.1          4.1          5.1          6.1          7.1          8.1          9.1         10.1
    -20.567439   -11.198564    -1.342852    -0.953465    -0.707975    -0.580637    -0.554693    -0.552716    -0.551135    -0.507782

        11.1         12.1
      0.055204     0.069106

 HOMO     10.1    -0.507782 =     -13.8175eV
 LUMO     11.1     0.055204 =       1.5022eV
 LUMO-HOMO         0.562986 =      15.3196eV


 **********************************************************************************************************************************
 DATASETS  * FILE   NREC   LENGTH (MB)   RECORD NAMES
              1      19     1891.65       500      610      700      900      950      970     1000      129      960     1100   
                                          VAR    BASINP    GEOM    SYMINP    ZMAT    AOBASIS   BASIS     P2S    ABASIS      S 
                                         1400     1410     1200     1210     1080     1600     1650     1300     1700   
                                           T        V       H0       H01     AOSYM     SMH    MOLCAS    ERIS     OPER   

              2       4        3.81       700     1000      520     2100   
                                         GEOM     BASIS   MCVARS     RHF  

 PROGRAMS   *        TOTAL        HF       INT
 CPU TIMES  *        41.05     25.22     15.72
 REAL TIME  *        68.96 SEC
 DISK USED  *         5.18 GB      
 **********************************************************************************************************************************
 SETTING E_HF_AB        =      -116.27870209  AU                              


 PROGRAM * CCSD (Closed-shell coupled cluster)     Authors: C. Hampel, H.-J. Werner, 1991, M. Deegan, P.J. Knowles, 1992

                                  CCSD-F12 implementation by  H.-J. Werner, 2007

                   Density fitting integral evaluation by F.R. Manby, 2003,2007, G. Knizia, 2010

 Basis set CC-PVTZ/JKFIT generated.      Number of basis functions:   338 
 Basis set CC-PVTZ-F12/OPTRI generated.  Number of basis functions:   396 
 Basis set AUG-CC-PVTZ/MP2FIT generated. Number of basis functions:   488 

 Convergence thresholds:  THRVAR = 1.00D-08  THRDEN = 1.00D-08

 CCSD(T)     terms to be evaluated (factor= 1.000)


 Number of core orbitals:           2 (   2 )
 Number of closed-shell orbitals:   8 (   8 )
 Number of external orbitals:     204 ( 204 )

 Molecular orbitals read from record     2100.2  Type=RHF/CANONICAL (state 1.1)

 MP2-F12 correlation treatment (H.-J. Werner, 2006)
 ==================================================

 Using MP2-F12 with ansatz 3C(FIX)

 Using projected zeroth-order Hamiltonian (+Z)

 FOCKRIB=T FOCKRIC=T FOCKRIP=T CABSP=T CABSA=T CABSK=T CABSF=T GBC=F EBC=F DMAT=T NOFIK=T NOPAO=1 SOLVE=-1  USEPAO=0
 EXCH_A= T EXCH_B= F EXCH_C= F EXCH_P= F
 
 Geminal basis:    OPTFULL  GEM_TYPE=SLATER  BETA=1.0  NGEM=6

 Optimizing Gaussian exponents for each gem_beta

 Geminal optimization for beta= 1.0000
 Weight function:   m=0, omega= 1.4646

 Augmented Hessian optimization of geminal fit. Trust ratio= 0.40000
 Convergence reached after   2 iterations. Final gradient= 8.26D-16, Step= 4.26D-06, Delta= 1.28D-09
 
 Alpha:                 0.19532     0.81920     2.85917     9.50073    35.69989   197.79328
 Coeff:                 0.27070     0.30552     0.18297     0.10986     0.06810     0.04224
 

 All pairs explicitly correlated. Number of r12-pairs:           36

 Excluding core orbitals from MO domains
 
 AO(A)-basis ORBITAL           loaded. Number of functions:     214
 RI(R)-basis CC-PVTZ-F12/OPTRI loaded. Number of functions:     396
 DF-basis CC-PVTZ/JKFIT        loaded. Number of functions:     338

 Screening thresholds:   THRAO=  1.00D-10  THRMO=  1.00D-09  THRPROD=  1.00D-09
                         THRSW=  1.00D-05  THROV=  1.00D-12  THRAOF12=   1.00D-08

 CPU time for Fock operators                      2.79 sec
 
 Construction of ABS:
 Smallest eigenvalue of S          4.10E-04  (threshold= 1.00E-08)
 Ratio eigmin/eigmax               5.27E-05  (threshold= 1.00E-09)
 Smallest eigenvalue of S kept     4.10E-04  (threshold= 4.10E-04, 0 functions deleted, 396 kept)
 
 Construction of CABS:
 Smallest eigenvalue of S          8.28E-07  (threshold= 1.00E-08)
 Ratio eigmin/eigmax               8.28E-07  (threshold= 1.00E-09)
 Smallest eigenvalue of S kept     8.28E-07  (threshold= 8.28E-07, 0 functions deleted, 396 kept)
 
 CPU time for CABS singles                        0.11 sec

 CABS-singles contribution of  -0.00161420 patched into reference energy.
 New reference energy        -116.28031629
 
 AO(A)-basis ORBITAL           loaded. Number of functions:     214
 RI(R)-basis CC-PVTZ-F12/OPTRI loaded. Number of functions:     396
 DF-basis AUG-CC-PVTZ/MP2FIT   loaded. Number of functions:     488

 Screening thresholds:   THRAO=  1.00D-10  THRMO=  1.00D-09  THRPROD=  1.00D-09
                         THRSW=  1.00D-05  THROV=  1.00D-12  THRAOF12=   1.00D-08

 CPU time for 3-index integral evaluation         6.10 sec
 CPU time for first  half transformation          0.25 sec (20599.0 MFLOP/sec)
 CPU time for second half transformation          0.01 sec (11696.4 MFLOP/sec)
 CPU time for sorting                             0.02 sec
 CPU time for fitting                             0.07 sec (34837.1 MFLOP/sec)
 CPU time for tilde quantities                    0.08 sec (40198.7 MFLOP/sec)
 CPU time for assembly                            0.82 sec (36510.4 MFLOP/sec)
 CPU time for tranop_f12                          1.10 sec (35210.7 MFLOP/sec)
 CPU time for f12 integrals (total)               9.87 sec, Elapsed time:     25.81 sec
 CPU time for f12 matrices (total)                0.35 sec, Elapsed time:      0.40 sec

 Diagonal F12 approximation with fixed coefficients:  TSING= 0.500,  TTRIP= 0.250 (scaled by -1/beta)

 DF-MP2-F12 energy corrections:
 ==============================
 Approx.                                    Singlet             Triplet             Total
 DF-MP2-F12/3*C(DX,FIX)                -0.041450932926     -0.004156682217     -0.045607615143
 DF-MP2-F12/3*C(FIX)                   -0.039315759128     -0.003886454672     -0.043202213800
 DF-MP2-F12/3C(FIX)                    -0.039177563420     -0.003994655587     -0.043172219007

 DF-MP2-F12 correlation energies:
 ================================
 Approx.                                    Singlet             Triplet             Ecorr            Total Energy
 DF-MP2                                -0.320568230156     -0.156039439562     -0.476607669718   -116.756923964630
 DF-MP2-F12/3*C(DX,FIX)                -0.362019163082     -0.160196121779     -0.522215284861   -116.802531579773
 DF-MP2-F12/3*C(FIX)                   -0.359883989284     -0.159925894234     -0.519809883518   -116.800126178429
 DF-MP2-F12/3C(FIX)                    -0.359745793576     -0.160034095149     -0.519779888725   -116.800096183637

 SCS-DF-MP2 energies (F_SING= 1.20000  F_TRIP= 0.62222  F_PARALLEL= 0.33333):
 ============================================================================
 SCS-DF-MP2                            -0.481773083026   -116.762089377938
 SCS-DF-MP2-F12/3*C(DX,FIX)            -0.534100582583   -116.814416877495
 SCS-DF-MP2-F12/3*C(FIX)               -0.531370232442   -116.811686527354
 SCS-DF-MP2-F12/3C(FIX)                -0.531271722606   -116.811588017518
 Symmetry transformation completed.

 Number of N-1 electron functions:               8
 Number of N-2 electron functions:              36
 Number of singly external CSFs:              1632
 Number of doubly external CSFs:           1332528
 Total number of CSFs:                     1334161

 Length of J-op  integral file:             205.73 MB
 Length of K-op  integral file:             258.78 MB
 Length of 3-ext integral record:             0.00 MB

 Memory could be reduced to 93.27 Mwords without degradation in triples

 Integral transformation finished. Total CPU:   9.38 sec, npass=  1  Memory used:  48.07 MW

 Reference energy:                   -116.28031629

 Adding F12 terms to K(Cij), methodcc=6,  factor= 1.0

 ITER.      SQ.NORM     CORR.ENERGY   TOTAL ENERGY   ENERGY CHANGE        DEN1      VAR(S)    VAR(P)  DIIS     TIME  TIME/IT
   1      1.13238184    -0.49183579  -116.77215208    -0.01515313    -0.00365074  0.14D-02  0.19D-02  1  1    31.38    24.77
   2      1.14033357    -0.49239778  -116.77271408    -0.00056199    -0.00956037  0.30D-04  0.23D-03  2  2    40.03    16.96
   3      1.14334057    -0.49265033  -116.77296662    -0.00025255    -0.00213912  0.12D-04  0.13D-04  3  3    48.68    14.34
   4      1.14431378    -0.49268206  -116.77299836    -0.00003173    -0.00060568  0.60D-06  0.11D-05  4  4    57.35    13.04
   5      1.14447152    -0.49268125  -116.77299755     0.00000081    -0.00003024  0.17D-06  0.66D-07  5  5    66.02    12.26
   6      1.14450623    -0.49267901  -116.77299530     0.00000225    -0.00000651  0.15D-07  0.72D-08  6  6    74.73    16.48
   7      1.14451514    -0.49267808  -116.77299437     0.00000093    -0.00000285  0.17D-08  0.59D-09  6  1    83.40    15.43
   8      1.14451677    -0.49267820  -116.77299449    -0.00000012     0.00000022  0.26D-09  0.79D-10  6  3    92.03    14.64
   9      1.14451775    -0.49267815  -116.77299445     0.00000004    -0.00000032  0.21D-10  0.14D-10  6  2   100.69    15.26
  10      1.14451776    -0.49267816  -116.77299445    -0.00000000     0.00000010  0.71D-11  0.29D-11  6  3   109.34    14.64
  11      1.14451789    -0.49267816  -116.77299445     0.00000000     0.00000000  0.39D-12  0.19D-12  6  4   118.01    14.14

 Norm of t1 vector:      0.04933407      S-energy:     0.00000000      T1 diagnostic:  0.00872111
                                                                       D1 diagnostic:  0.01894815

 Adding energy correction from Wij-K(Fij), methodcc=6  factor= 1.0
 
  CCSD correlation energy              -0.492678157823
  MP2-F12 correction (uncoupled)       -0.041742629949
  C*T doubles correction               -0.001131997359
  f12b correction                       0.007811993502


 Total CPU time for triples:    152.98 sec

  Ecorr(MP2)                           -0.476682659190
  Ecorr(MP2-F12)                       -0.519854878197
  Scale factor for triples energy       1.090568050200


 RESULTS
 =======

  Reference energy                   -116.278702092551
  F12 singles correction               -0.001614202361

 F12 singles corrections added to reference energy

  New reference energy               -116.280316294912

  F12a singlet correction              -0.039001568374
  F12a triplet correction              -0.003873058934
  F12a total correction                -0.042874627308

 F12a corrections for ansatz F12/3C(FIX) added to CCSD energy
 
  CCSD-F12a singlet pair energy        -0.388884111481
  CCSD-F12a triplet pair energy        -0.146668675528
  CCSD-F12a correlation energy         -0.535552785131

  Triples (T) contribution (scaled)    -0.016873828467
  Total correlation energy             -0.552426613598

  CCSD-F12a total energy             -116.815869080043
  CCSD[T]-F12a energy                -116.833325528842
  CCSD-T-F12a energy                 -116.832520278762
 !CCSD(T)-F12a total energy          -116.832742908510

 F12b corrections for ansatz F12/3C(FIX) added to CCSD(T)-F12a energy

  CCSD-F12b singlet pair energy        -0.381538817795
  CCSD-F12b triplet pair energy        -0.146201975712
  CCSD-F12b correlation energy         -0.527740791630

  Triples (T) contribution (scaled)    -0.016873828467
  Total correlation energy             -0.544614620097

  CCSD-F12b total energy             -116.808057086542
  CCSD[T]-F12b energy                -116.825513535341
  CCSD-T-F12b energy                 -116.824708285260
 !CCSD(T)-F12b total energy          -116.824930915008

 Timing summary (sec):

 STEP                 CPU(USER)    SYS     CPU(TOT)    WALL
 Transformation          9.49      1.02     10.51     23.13
 CCSD iterations        95.20      5.59    100.79    155.73
 Triples               152.98      2.48    155.46    155.52
 MP2-F12                13.34      1.25     14.59     31.72
 F12b energy             6.92      0.28      7.20      7.20

 Program statistics:

 Available memory in ccsd:              2999999464
 Min. memory needed in ccsd:               3963025
 Max. memory used in ccsd:                 5096465
 Max. memory used in cckext:               3666031 (12 integral passes)



 **********************************************************************************************************************************
 DATASETS  * FILE   NREC   LENGTH (MB)   RECORD NAMES
              1      20     2185.20       500      610      700      900      950      970     1000      129      960     1100   
                                          VAR    BASINP    GEOM    SYMINP    ZMAT    AOBASIS   BASIS     P2S    ABASIS      S 
                                         1400     1410     1200     1210     1080     1600     1650     1300     1700     1380   
                                           T        V       H0       H01     AOSYM     SMH    MOLCAS    ERIS     OPER     JKOP   

              2       6        4.74       700     1000      520     2100     7360     7350   
                                         GEOM     BASIS   MCVARS     RHF    F12ABS    EF12   

 PROGRAMS   *        TOTAL   CCSD(T)        HF       INT
 CPU TIMES  *       319.02    277.97     25.22     15.72
 REAL TIME  *       444.59 SEC
 DISK USED  *         5.18 GB      
 **********************************************************************************************************************************
 SETTING E_F12_AB(1)    =      -116.83274291  AU                              
 SETTING E_F12_AB(2)    =      -116.82493092  AU                              

 Dummy atoms: O1  H5  H6


 Recomputing one-electron integrals since nuclear charges changed


 PROGRAM * SEWARD (Integral evaluation for generally contracted gaussian basis sets)     Author: Roland Lindh, 1990

 Geometry written to block  1 of record 700


 Point group  C1  



 ATOMIC COORDINATES

 NR  ATOM    CHARGE       X              Y              Z

   1  C1      6.00   -6.193010455    2.801518980    2.403542658
   2  H1      1.00   -4.656285171    1.699997622    3.119937832
   3  H2      1.00   -5.973046335    4.726205038    2.982932688
   4  H3      1.00   -7.940251230    2.077186956    3.118237078
   5  H4      1.00   -6.176569838    2.685300823    0.384937212
   6  O1      0.00   -1.010247586    7.876000542    2.916036383
   7  H5      0.00   -0.819574220    6.648056506    4.275505357
   8  H6      0.00   -0.644963526    6.932271315    1.370429386

 Bond lengths in Bohr (Angstrom)

 1-2  2.021904040  1-3  2.022002335  1-4  2.021953343  1-5  2.022015060  6-7  1.841835709
     ( 1.069945541)     ( 1.069997556)     ( 1.069971630)     ( 1.070004290)     ( 0.974657483)

 6-8  1.847419359
     ( 0.977612224)

 Bond angles

  2-1-3  109.53398059   2-1-4  109.65604535   2-1-5  108.43490854   3-1-4  109.49436728

  3-1-5  109.86987750   4-1-5  109.83468330   7-6-8  104.86126985

 NUCLEAR CHARGE:                   10
 NUMBER OF PRIMITIVE AOS:         270
 NUMBER OF SYMMETRY AOS:          246
 NUMBER OF CONTRACTIONS:          214   ( 214A   )
 NUMBER OF CORE ORBITALS:           1   (   1A   )
 NUMBER OF VALENCE ORBITALS:        8   (   8A   )

 MOLECULE CHANGED: INITIALIZING OCCUPATION AND DUMP RECORDS


 NUCLEAR REPULSION ENERGY   13.68681606


 Eigenvalues of metric

         1 0.722E-04 0.197E-03 0.290E-03 0.329E-03 0.337E-03 0.453E-03 0.530E-03 0.562E-03


 Contracted 2-electron integrals neglected if value below      1.0D-19

 OPERATOR DM      FOR CENTER  0  COORDINATES:    0.000000    0.000000    0.000000


 **********************************************************************************************************************************
 DATASETS  * FILE   NREC   LENGTH (MB)   RECORD NAMES
              1      19     1891.65       500      610      700      900      950      970     1000      129      960     1100   
                                          VAR    BASINP    GEOM    SYMINP    ZMAT    AOBASIS   BASIS     P2S    ABASIS      S 
                                         1400     1410     1200     1210     1080     1600     1650     1300     1700   
                                           T        V       H0       H01     AOSYM     SMH    MOLCAS    ERIS     OPER   

              2       6        4.74       700     1000      520     2100     7360     7350   
                                         GEOM     BASIS   MCVARS     RHF    F12ABS    EF12   

 PROGRAMS   *        TOTAL       INT   CCSD(T)        HF       INT
 CPU TIMES  *       319.09      0.07    277.97     25.22     15.72
 REAL TIME  *       444.85 SEC
 DISK USED  *         5.18 GB      
 **********************************************************************************************************************************


 PROGRAM * RHF-SCF (CLOSED SHELL)       Authors: W. Meyer, H.-J. Werner


 NUMBER OF ELECTRONS:       5+    5-    SPACE SYMMETRY=1    SPIN SYMMETRY: Singlet 
 CONVERGENCE THRESHOLDS:    1.00E-04 (Density)    1.00E-09 (Energy)
 MAX. NUMBER OF ITERATIONS:       60
 INTERPOLATION TYPE:            DIIS
 INTERPOLATION STEPS:              2 (START)      1 (STEP)
 LEVEL SHIFTS:                  0.00 (CLOSED)  0.00 (OPEN) 



 Orbital guess generated from atomic densities. Full valence occupancy:    9

 Molecular orbital dump at record        2101.2

 Initial occupancy:   5

 ITERATION    DDIFF          GRAD             ENERGY        2-EL.EN.            DIPOLE MOMENTS         DIIS   ORB.
    1      0.000D+00      0.000D+00       -40.19565477     53.501361    0.00415   -0.00275   -0.00127    0    start
    2      0.000D+00      0.368D-02       -40.21289971     52.216646    0.00131   -0.00089   -0.00036    1    diag
    3      0.318D-02      0.143D-02       -40.21516856     52.670304    0.00184   -0.00125   -0.00053    2    diag
    4      0.856D-03      0.357D-03       -40.21548679     52.615356    0.00163   -0.00112   -0.00046    3    diag
    5      0.327D-03      0.463D-04       -40.21549226     52.617510    0.00160   -0.00110   -0.00045    4    diag
    6      0.567D-04      0.375D-05       -40.21549230     52.617655    0.00160   -0.00110   -0.00045    5    diag
    7      0.867D-05      0.302D-06       -40.21549230     52.617615    0.00160   -0.00110   -0.00045    6    diag
    8      0.980D-06      0.227D-07       -40.21549230     52.617616    0.00160   -0.00110   -0.00045    0    orth

 Final occupancy:   5

 !RHF STATE 1.1 Energy                -40.215492299385
 Nuclear energy                        13.68681606
 One-electron energy                  -80.21111648
 Two-electron energy                   26.30880813
 Virial quotient                       -0.99832356
 !RHF STATE 1.1 Dipole moment           0.00159611    -0.00109673    -0.00045279
 Dipole moment /Debye                   0.00405665    -0.00278742    -0.00115079

 Orbital energies:

         1.1          2.1          3.1          4.1          5.1          6.1          7.1
    -11.196271    -0.950712    -0.551938    -0.550005    -0.547824     0.055442     0.068018

 HOMO      5.1    -0.547824 =     -14.9070eV
 LUMO      6.1     0.055442 =       1.5086eV
 LUMO-HOMO         0.603265 =      16.4157eV


 **********************************************************************************************************************************
 DATASETS  * FILE   NREC   LENGTH (MB)   RECORD NAMES
              1      19     1891.65       500      610      700      900      950      970     1000      129      960     1100   
                                          VAR    BASINP    GEOM    SYMINP    ZMAT    AOBASIS   BASIS     P2S    ABASIS      S 
                                         1400     1410     1200     1210     1080     1600     1650     1300     1700   
                                           T        V       H0       H01     AOSYM     SMH    MOLCAS    ERIS     OPER   

              2       7        8.14       700     1000      520     2100     7360     7350     2101   
                                         GEOM     BASIS   MCVARS     RHF    F12ABS    EF12      RHF  

 PROGRAMS   *        TOTAL        HF       INT   CCSD(T)        HF       INT
 CPU TIMES  *       339.71     20.62      0.07    277.97     25.22     15.72
 REAL TIME  *       480.76 SEC
 DISK USED  *         5.18 GB      
 **********************************************************************************************************************************
 SETTING E_HF_A         =       -40.21549230  AU                              


 PROGRAM * CCSD (Closed-shell coupled cluster)     Authors: C. Hampel, H.-J. Werner, 1991, M. Deegan, P.J. Knowles, 1992

                                  CCSD-F12 implementation by  H.-J. Werner, 2007

                   Density fitting integral evaluation by F.R. Manby, 2003,2007, G. Knizia, 2010

 Basis set CC-PVTZ/JKFIT generated.      Number of basis functions:   338 
 Basis set CC-PVTZ-F12/OPTRI generated.  Number of basis functions:   396 
 Basis set AUG-CC-PVTZ/MP2FIT generated. Number of basis functions:   488 

 Convergence thresholds:  THRVAR = 1.00D-08  THRDEN = 1.00D-08

 CCSD(T)     terms to be evaluated (factor= 1.000)


 Number of core orbitals:           1 (   1 )
 Number of closed-shell orbitals:   4 (   4 )
 Number of external orbitals:     209 ( 209 )

 Molecular orbitals read from record     2101.2  Type=RHF/CANONICAL (state 1.1)

 MP2-F12 correlation treatment (H.-J. Werner, 2006)
 ==================================================

 Using MP2-F12 with ansatz 3C(FIX)

 Using projected zeroth-order Hamiltonian (+Z)

 FOCKRIB=T FOCKRIC=T FOCKRIP=T CABSP=T CABSA=T CABSK=T CABSF=T GBC=F EBC=F DMAT=T NOFIK=T NOPAO=1 SOLVE=-1  USEPAO=0
 EXCH_A= T EXCH_B= F EXCH_C= F EXCH_P= F
 
 Geminal basis:    OPTFULL  GEM_TYPE=SLATER  BETA=1.0  NGEM=6

 Optimizing Gaussian exponents for each gem_beta

 Geminal optimization for beta= 1.0000
 Weight function:   m=0, omega= 1.4646

 Augmented Hessian optimization of geminal fit. Trust ratio= 0.40000
 Convergence reached after   2 iterations. Final gradient= 8.26D-16, Step= 4.26D-06, Delta= 1.28D-09
 
 Alpha:                 0.19532     0.81920     2.85917     9.50073    35.69989   197.79328
 Coeff:                 0.27070     0.30552     0.18297     0.10986     0.06810     0.04224
 

 All pairs explicitly correlated. Number of r12-pairs:           10

 Excluding core orbitals from MO domains
 
 AO(A)-basis ORBITAL           loaded. Number of functions:     214
 RI(R)-basis CC-PVTZ-F12/OPTRI loaded. Number of functions:     396
 DF-basis CC-PVTZ/JKFIT        loaded. Number of functions:     338

 Screening thresholds:   THRAO=  1.00D-10  THRMO=  1.00D-09  THRPROD=  1.00D-09
                         THRSW=  1.00D-05  THROV=  1.00D-12  THRAOF12=   1.00D-08

 CPU time for Fock operators                      2.68 sec
 
 Construction of ABS:
 Smallest eigenvalue of S          4.10E-04  (threshold= 1.00E-08)
 Ratio eigmin/eigmax               5.27E-05  (threshold= 1.00E-09)
 Smallest eigenvalue of S kept     4.10E-04  (threshold= 4.10E-04, 0 functions deleted, 396 kept)
 
 Construction of CABS:
 Smallest eigenvalue of S          8.28E-07  (threshold= 1.00E-08)
 Ratio eigmin/eigmax               8.28E-07  (threshold= 1.00E-09)
 Smallest eigenvalue of S kept     8.28E-07  (threshold= 8.28E-07, 0 functions deleted, 396 kept)
 
 CPU time for CABS singles                        0.11 sec

 CABS-singles contribution of  -0.00063593 patched into reference energy.
 New reference energy         -40.21612823
 
 AO(A)-basis ORBITAL           loaded. Number of functions:     214
 RI(R)-basis CC-PVTZ-F12/OPTRI loaded. Number of functions:     396
 DF-basis AUG-CC-PVTZ/MP2FIT   loaded. Number of functions:     488

 Screening thresholds:   THRAO=  1.00D-10  THRMO=  1.00D-09  THRPROD=  1.00D-09
                         THRSW=  1.00D-05  THROV=  1.00D-12  THRAOF12=   1.00D-08

 CPU time for 3-index integral evaluation         5.87 sec
 CPU time for first  half transformation          0.43 sec ( 5988.1 MFLOP/sec)
 CPU time for second half transformation          0.02 sec ( 1462.0 MFLOP/sec)
 CPU time for sorting                             0.01 sec
 CPU time for fitting                             0.03 sec (39690.7 MFLOP/sec)
 CPU time for tilde quantities                    0.05 sec (31777.9 MFLOP/sec)
 CPU time for assembly                            0.21 sec (37981.3 MFLOP/sec)
 CPU time for tranop_f12                          0.26 sec (36852.4 MFLOP/sec)
 CPU time for f12 integrals (total)               7.37 sec, Elapsed time:     15.96 sec
 CPU time for f12 matrices (total)                0.08 sec, Elapsed time:      0.10 sec

 Diagonal F12 approximation with fixed coefficients:  TSING= 0.500,  TTRIP= 0.250 (scaled by -1/beta)

 DF-MP2-F12 energy corrections:
 ==============================
 Approx.                                    Singlet             Triplet             Total
 DF-MP2-F12/3*C(DX,FIX)                -0.016286591586     -0.001139889185     -0.017426480771
 DF-MP2-F12/3*C(FIX)                   -0.015925835484     -0.001149716541     -0.017075552025
 DF-MP2-F12/3C(FIX)                    -0.015857791970     -0.001156908324     -0.017014700294

 DF-MP2-F12 correlation energies:
 ================================
 Approx.                                    Singlet             Triplet             Ecorr            Total Energy
 DF-MP2                                -0.145615338832     -0.055805082567     -0.201420421399    -40.417548649589
 DF-MP2-F12/3*C(DX,FIX)                -0.161901930418     -0.056944971752     -0.218846902171    -40.434975130360
 DF-MP2-F12/3*C(FIX)                   -0.161541174316     -0.056954799108     -0.218495973425    -40.434624201614
 DF-MP2-F12/3C(FIX)                    -0.161473130802     -0.056961990891     -0.218435121693    -40.434563349883

 SCS-DF-MP2 energies (F_SING= 1.20000  F_TRIP= 0.62222  F_PARALLEL= 0.33333):
 ============================================================================
 SCS-DF-MP2                            -0.209461569085    -40.425589797274
 SCS-DF-MP2-F12/3*C(DX,FIX)            -0.229714743370    -40.445842971560
 SCS-DF-MP2-F12/3*C(FIX)               -0.229287950847    -40.445416179037
 SCS-DF-MP2-F12/3C(FIX)                -0.229210773517    -40.445339001707
 Symmetry transformation completed.

 Number of N-1 electron functions:               4
 Number of N-2 electron functions:              10
 Number of singly external CSFs:               836
 Number of doubly external CSFs:            349866
 Total number of CSFs:                      350703

 Length of J-op  integral file:              53.89 MB
 Length of K-op  integral file:              87.81 MB
 Length of 3-ext integral record:             0.00 MB

 Memory could be reduced to 60.96 Mwords without degradation in triples

 Integral transformation finished. Total CPU:   5.57 sec, npass=  1  Memory used:  26.32 MW

 Reference energy:                    -40.21612823

 Adding F12 terms to K(Cij), methodcc=6,  factor= 1.0

 ITER.      SQ.NORM     CORR.ENERGY   TOTAL ENERGY   ENERGY CHANGE        DEN1      VAR(S)    VAR(P)  DIIS     TIME  TIME/IT
   1      1.06960591    -0.21652350   -40.43265173    -0.01506833    -0.00954323  0.62D-03  0.94D-03  1  1    19.66     3.89
   2      1.07446078    -0.21733990   -40.43346812    -0.00081640    -0.00516278  0.14D-04  0.90D-04  2  2    23.50     4.04
   3      1.07598233    -0.21745129   -40.43357952    -0.00011140    -0.00108955  0.20D-05  0.57D-05  3  3    27.39     4.09
   4      1.07635162    -0.21746582   -40.43359405    -0.00001453    -0.00020080  0.13D-06  0.31D-06  4  4    31.23    17.01
   5      1.07640349    -0.21746545   -40.43359368     0.00000037    -0.00000933  0.77D-08  0.15D-07  5  5    35.05    14.44
   6      1.07640980    -0.21746420   -40.43359242     0.00000125    -0.00000295  0.32D-09  0.87D-09  6  6    38.89    12.74
   7      1.07641055    -0.21746412   -40.43359235     0.00000007    -0.00000042  0.21D-10  0.70D-10  6  1    42.76    15.89
   8      1.07641063    -0.21746415   -40.43359238    -0.00000003     0.00000002  0.28D-11  0.62D-11  6  2    46.63    14.47
   9      1.07641063    -0.21746416   -40.43359238    -0.00000001     0.00000003  0.21D-12  0.36D-12  6  3    50.50    14.53
  10      1.07641062    -0.21746416   -40.43359238    -0.00000000     0.00000001  0.24D-13  0.34D-13  6  4    54.38    17.91

 Norm of t1 vector:      0.03261094      S-energy:    -0.00000000      T1 diagnostic:  0.00815273
                                                                       D1 diagnostic:  0.01306997

 Adding energy correction from Wij-K(Fij), methodcc=6  factor= 1.0
 
  CCSD correlation energy              -0.217464155972
  MP2-F12 correction (uncoupled)       -0.016714989110
  C*T doubles correction               -0.000290711214
  f12b correction                       0.003525471489


 Total CPU time for triples:     21.70 sec

  Ecorr(MP2)                           -0.201455166113
  Ecorr(MP2-F12)                       -0.218469866407
  Scale factor for triples energy       1.084458992153


 RESULTS
 =======

  Reference energy                    -40.215492299385
  F12 singles correction               -0.000635928805

 F12 singles corrections added to reference energy

  New reference energy                -40.216128228190

  F12a singlet correction              -0.015861340015
  F12a triplet correction              -0.001144360309
  F12a total correction                -0.017005700324

 F12a corrections for ansatz F12/3C(FIX) added to CCSD energy
 
  CCSD-F12a singlet pair energy        -0.179253482311
  CCSD-F12a triplet pair energy        -0.055216373565
  CCSD-F12a correlation energy         -0.234469856296

  Triples (T) contribution (scaled)    -0.006988627600
  Total correlation energy             -0.241458483897

  CCSD-F12a total energy              -40.450598084486
  CCSD[T]-F12a energy                 -40.457828170003
  CCSD-T-F12a energy                  -40.457513340771
 !CCSD(T)-F12a total energy           -40.457586712086

 F12b corrections for ansatz F12/3C(FIX) added to CCSD(T)-F12a energy

  CCSD-F12b singlet pair energy        -0.175882828665
  CCSD-F12b triplet pair energy        -0.055061555721
  CCSD-F12b correlation energy         -0.230944384807

  Triples (T) contribution (scaled)    -0.006988627600
  Total correlation energy             -0.237933012407

  CCSD-F12b total energy              -40.447072612997
  CCSD[T]-F12b energy                 -40.454302698514
  CCSD-T-F12b energy                  -40.453987869282
 !CCSD(T)-F12b total energy           -40.454061240597

 Timing summary (sec):

 STEP                 CPU(USER)    SYS     CPU(TOT)    WALL
 Transformation          5.61      0.65      6.26      6.46
 CCSD iterations        38.37      3.33     41.70    192.83
 Triples                21.70      0.34     22.04     22.06
 MP2-F12                10.41      0.44     10.85     19.28
 F12b energy             3.36      0.29      3.65      9.61

 Program statistics:

 Available memory in ccsd:              2999999786
 Min. memory needed in ccsd:               1609972
 Max. memory used in ccsd:                 1864434
 Max. memory used in cckext:               1252381 (11 integral passes)



 **********************************************************************************************************************************
 DATASETS  * FILE   NREC   LENGTH (MB)   RECORD NAMES
              1      20     2044.66       500      610      700      900      950      970     1000      129      960     1100   
                                          VAR    BASINP    GEOM    SYMINP    ZMAT    AOBASIS   BASIS     P2S    ABASIS      S 
                                         1400     1410     1200     1210     1080     1600     1650     1300     1700     1380   
                                           T        V       H0       H01     AOSYM     SMH    MOLCAS    ERIS     OPER     JKOP   

              2       7        8.14       700     1000      520     2100     7360     7350     2101   
                                         GEOM     BASIS   MCVARS     RHF    F12ABS    EF12      RHF  

 PROGRAMS   *        TOTAL   CCSD(T)        HF       INT   CCSD(T)        HF       INT
 CPU TIMES  *       419.21     79.49     20.62      0.07    277.97     25.22     15.72
 REAL TIME  *       732.02 SEC
 DISK USED  *         5.18 GB      
 **********************************************************************************************************************************
 SETTING E_F12_A(1)     =       -40.45758671  AU                              
 SETTING E_F12_A(2)     =       -40.45406124  AU                              

 Dummy atoms: C1  H1  H2  H3  H4


 Recomputing one-electron integrals since nuclear charges changed


 PROGRAM * SEWARD (Integral evaluation for generally contracted gaussian basis sets)     Author: Roland Lindh, 1990

 Geometry written to block  1 of record 700


 Point group  C1  



 ATOMIC COORDINATES

 NR  ATOM    CHARGE       X              Y              Z

   1  C1      0.00   -6.193010455    2.801518980    2.403542658
   2  H1      0.00   -4.656285171    1.699997622    3.119937832
   3  H2      0.00   -5.973046335    4.726205038    2.982932688
   4  H3      0.00   -7.940251230    2.077186956    3.118237078
   5  H4      0.00   -6.176569838    2.685300823    0.384937212
   6  O1      8.00   -1.010247586    7.876000542    2.916036383
   7  H5      1.00   -0.819574220    6.648056506    4.275505357
   8  H6      1.00   -0.644963526    6.932271315    1.370429386

 Bond lengths in Bohr (Angstrom)

 1-2  2.021904040  1-3  2.022002335  1-4  2.021953343  1-5  2.022015060  6-7  1.841835709
     ( 1.069945541)     ( 1.069997556)     ( 1.069971630)     ( 1.070004290)     ( 0.974657483)

 6-8  1.847419359
     ( 0.977612224)

 Bond angles

  2-1-3  109.53398059   2-1-4  109.65604535   2-1-5  108.43490854   3-1-4  109.49436728

  3-1-5  109.86987750   4-1-5  109.83468330   7-6-8  104.86126985

 NUCLEAR CHARGE:                   10
 NUMBER OF PRIMITIVE AOS:         270
 NUMBER OF SYMMETRY AOS:          246
 NUMBER OF CONTRACTIONS:          214   ( 214A   )
 NUMBER OF CORE ORBITALS:           1   (   1A   )
 NUMBER OF VALENCE ORBITALS:        6   (   6A   )

 MOLECULE CHANGED: INITIALIZING OCCUPATION AND DUMP RECORDS


 NUCLEAR REPULSION ENERGY    9.01583577


 Eigenvalues of metric

         1 0.722E-04 0.197E-03 0.290E-03 0.329E-03 0.337E-03 0.453E-03 0.530E-03 0.562E-03


 Contracted 2-electron integrals neglected if value below      1.0D-19

 OPERATOR DM      FOR CENTER  0  COORDINATES:    0.000000    0.000000    0.000000


 **********************************************************************************************************************************
 DATASETS  * FILE   NREC   LENGTH (MB)   RECORD NAMES
              1      19     1891.65       500      610      700      900      950      970     1000      129      960     1100   
                                          VAR    BASINP    GEOM    SYMINP    ZMAT    AOBASIS   BASIS     P2S    ABASIS      S 
                                         1400     1410     1200     1210     1080     1600     1650     1300     1700   
                                           T        V       H0       H01     AOSYM     SMH    MOLCAS    ERIS     OPER   

              2       7        8.14       700     1000      520     2100     7360     7350     2101   
                                         GEOM     BASIS   MCVARS     RHF    F12ABS    EF12      RHF  

 PROGRAMS   *        TOTAL       INT   CCSD(T)        HF       INT   CCSD(T)        HF       INT
 CPU TIMES  *       419.27      0.06     79.49     20.62      0.07    277.97     25.22     15.72
 REAL TIME  *       733.09 SEC
 DISK USED  *         5.18 GB      
 **********************************************************************************************************************************


 PROGRAM * RHF-SCF (CLOSED SHELL)       Authors: W. Meyer, H.-J. Werner


 NUMBER OF ELECTRONS:       5+    5-    SPACE SYMMETRY=1    SPIN SYMMETRY: Singlet 
 CONVERGENCE THRESHOLDS:    1.00E-04 (Density)    1.00E-09 (Energy)
 MAX. NUMBER OF ITERATIONS:       60
 INTERPOLATION TYPE:            DIIS
 INTERPOLATION STEPS:              2 (START)      1 (STEP)
 LEVEL SHIFTS:                  0.00 (CLOSED)  0.00 (OPEN) 



 Orbital guess generated from atomic densities. Full valence occupancy:    7

 Molecular orbital dump at record        2102.2

 Initial occupancy:   5

 ITERATION    DDIFF          GRAD             ENERGY        2-EL.EN.            DIPOLE MOMENTS         DIIS   ORB.
    1      0.000D+00      0.000D+00       -76.02476597     77.425292    0.28480   -1.11344   -0.09648    0    start
    2      0.000D+00      0.672D-02       -76.05160574     73.783720    0.16670   -0.65017   -0.05545    1    diag
    3      0.465D-02      0.426D-02       -76.06309674     75.400344    0.19599   -0.76555   -0.06548    2    diag
    4      0.163D-02      0.401D-03       -76.06329042     75.307924    0.19482   -0.76102   -0.06491    3    diag
    5      0.232D-03      0.112D-03       -76.06331115     75.322479    0.19439   -0.75938   -0.06469    4    diag
    6      0.824D-04      0.221D-04       -76.06331249     75.321429    0.19428   -0.75898   -0.06463    5    diag
    7      0.245D-04      0.447D-05       -76.06331255     75.321580    0.19425   -0.75885   -0.06461    6    diag
    8      0.578D-05      0.859D-06       -76.06331256     75.321568    0.19424   -0.75881   -0.06461    7    diag
    9      0.100D-05      0.113D-06       -76.06331256     75.321559    0.19423   -0.75881   -0.06461    8    diag
   10      0.185D-06      0.245D-07       -76.06331256     75.321564    0.19423   -0.75881   -0.06461    0    orth

 Final occupancy:   5

 !RHF STATE 1.1 Energy                -76.063312555106
 Nuclear energy                         9.01583577
 One-electron energy                 -122.73993015
 Two-electron energy                   37.66078182
 Virial quotient                       -1.00186067
 !RHF STATE 1.1 Dipole moment           0.19423496    -0.75880793    -0.06460609
 Dipole moment /Debye                   0.49366369    -1.92857107    -0.16420154

 Orbital energies:

         1.1          2.1          3.1          4.1          5.1          6.1          7.1
    -20.568038    -1.343180    -0.708323    -0.580739    -0.508902     0.037210     0.061635

 HOMO      5.1    -0.508902 =     -13.8479eV
 LUMO      6.1     0.037210 =       1.0125eV
 LUMO-HOMO         0.546113 =      14.8605eV


 **********************************************************************************************************************************
 DATASETS  * FILE   NREC   LENGTH (MB)   RECORD NAMES
              1      19     1891.65       500      610      700      900      950      970     1000      129      960     1100   
                                          VAR    BASINP    GEOM    SYMINP    ZMAT    AOBASIS   BASIS     P2S    ABASIS      S 
                                         1400     1410     1200     1210     1080     1600     1650     1300     1700   
                                           T        V       H0       H01     AOSYM     SMH    MOLCAS    ERIS     OPER   

              2       8       12.47       700     1000      520     2100     7360     7350     2101     2102   
                                         GEOM     BASIS   MCVARS     RHF    F12ABS    EF12      RHF      RHF  

 PROGRAMS   *        TOTAL        HF       INT   CCSD(T)        HF       INT   CCSD(T)        HF       INT
 CPU TIMES  *       444.45     25.18      0.06     79.49     20.62      0.07    277.97     25.22     15.72
 REAL TIME  *       790.40 SEC
 DISK USED  *         5.18 GB      
 **********************************************************************************************************************************
 SETTING E_HF_B         =       -76.06331256  AU                              


 PROGRAM * CCSD (Closed-shell coupled cluster)     Authors: C. Hampel, H.-J. Werner, 1991, M. Deegan, P.J. Knowles, 1992

                                  CCSD-F12 implementation by  H.-J. Werner, 2007

                   Density fitting integral evaluation by F.R. Manby, 2003,2007, G. Knizia, 2010

 Basis set CC-PVTZ/JKFIT generated.      Number of basis functions:   338 
 Basis set CC-PVTZ-F12/OPTRI generated.  Number of basis functions:   396 
 Basis set AUG-CC-PVTZ/MP2FIT generated. Number of basis functions:   488 

 Convergence thresholds:  THRVAR = 1.00D-08  THRDEN = 1.00D-08

 CCSD(T)     terms to be evaluated (factor= 1.000)


 Number of core orbitals:           1 (   1 )
 Number of closed-shell orbitals:   4 (   4 )
 Number of external orbitals:     209 ( 209 )

 Molecular orbitals read from record     2102.2  Type=RHF/CANONICAL (state 1.1)

 MP2-F12 correlation treatment (H.-J. Werner, 2006)
 ==================================================

 Using MP2-F12 with ansatz 3C(FIX)

 Using projected zeroth-order Hamiltonian (+Z)

 FOCKRIB=T FOCKRIC=T FOCKRIP=T CABSP=T CABSA=T CABSK=T CABSF=T GBC=F EBC=F DMAT=T NOFIK=T NOPAO=1 SOLVE=-1  USEPAO=0
 EXCH_A= T EXCH_B= F EXCH_C= F EXCH_P= F
 
 Geminal basis:    OPTFULL  GEM_TYPE=SLATER  BETA=1.0  NGEM=6

 Optimizing Gaussian exponents for each gem_beta

 Geminal optimization for beta= 1.0000
 Weight function:   m=0, omega= 1.4646

 Augmented Hessian optimization of geminal fit. Trust ratio= 0.40000
 Convergence reached after   2 iterations. Final gradient= 8.26D-16, Step= 4.26D-06, Delta= 1.28D-09
 
 Alpha:                 0.19532     0.81920     2.85917     9.50073    35.69989   197.79328
 Coeff:                 0.27070     0.30552     0.18297     0.10986     0.06810     0.04224
 

 All pairs explicitly correlated. Number of r12-pairs:           10

 Excluding core orbitals from MO domains
 
 AO(A)-basis ORBITAL           loaded. Number of functions:     214
 RI(R)-basis CC-PVTZ-F12/OPTRI loaded. Number of functions:     396
 DF-basis CC-PVTZ/JKFIT        loaded. Number of functions:     338

 Screening thresholds:   THRAO=  1.00D-10  THRMO=  1.00D-09  THRPROD=  1.00D-09
                         THRSW=  1.00D-05  THROV=  1.00D-12  THRAOF12=   1.00D-08

 CPU time for Fock operators                      2.68 sec
 
 Construction of ABS:
 Smallest eigenvalue of S          4.10E-04  (threshold= 1.00E-08)
 Ratio eigmin/eigmax               5.27E-05  (threshold= 1.00E-09)
 Smallest eigenvalue of S kept     4.10E-04  (threshold= 4.10E-04, 0 functions deleted, 396 kept)
 
 Construction of CABS:
 Smallest eigenvalue of S          8.28E-07  (threshold= 1.00E-08)
 Ratio eigmin/eigmax               8.28E-07  (threshold= 1.00E-09)
 Smallest eigenvalue of S kept     8.28E-07  (threshold= 8.28E-07, 0 functions deleted, 396 kept)
 
 CPU time for CABS singles                        0.11 sec

 CABS-singles contribution of  -0.00097547 patched into reference energy.
 New reference energy         -76.06428802
 
 AO(A)-basis ORBITAL           loaded. Number of functions:     214
 RI(R)-basis CC-PVTZ-F12/OPTRI loaded. Number of functions:     396
 DF-basis AUG-CC-PVTZ/MP2FIT   loaded. Number of functions:     488

 Screening thresholds:   THRAO=  1.00D-10  THRMO=  1.00D-09  THRPROD=  1.00D-09
                         THRSW=  1.00D-05  THROV=  1.00D-12  THRAOF12=   1.00D-08

 CPU time for 3-index integral evaluation         5.88 sec
 CPU time for first  half transformation          0.45 sec ( 5721.9 MFLOP/sec)
 CPU time for second half transformation          0.03 sec (  974.7 MFLOP/sec)
 CPU time for sorting                             0.02 sec
 CPU time for fitting                             0.03 sec (39690.7 MFLOP/sec)
 CPU time for tilde quantities                    0.03 sec (52963.2 MFLOP/sec)
 CPU time for assembly                            0.23 sec (34678.6 MFLOP/sec)
 CPU time for tranop_f12                          0.25 sec (38326.5 MFLOP/sec)
 CPU time for f12 integrals (total)               7.38 sec, Elapsed time:      7.84 sec
 CPU time for f12 matrices (total)                0.08 sec, Elapsed time:      0.22 sec

 Diagonal F12 approximation with fixed coefficients:  TSING= 0.500,  TTRIP= 0.250 (scaled by -1/beta)

 DF-MP2-F12 energy corrections:
 ==============================
 Approx.                                    Singlet             Triplet             Total
 DF-MP2-F12/3*C(DX,FIX)                -0.025132878873     -0.002999867877     -0.028132746749
 DF-MP2-F12/3*C(FIX)                   -0.023357581309     -0.002713338957     -0.026070920266
 DF-MP2-F12/3C(FIX)                    -0.023284929668     -0.002810403474     -0.026095333141

 DF-MP2-F12 correlation energies:
 ================================
 Approx.                                    Singlet             Triplet             Ecorr            Total Energy
 DF-MP2                                -0.174819979079     -0.099707008014     -0.274526987093    -76.338815009830
 DF-MP2-F12/3*C(DX,FIX)                -0.199952857952     -0.102706875890     -0.302659733842    -76.366947756580
 DF-MP2-F12/3*C(FIX)                   -0.198177560389     -0.102420346970     -0.300597907359    -76.364885930096
 DF-MP2-F12/3C(FIX)                    -0.198104908747     -0.102517411488     -0.300622320234    -76.364910342972

 SCS-DF-MP2 energies (F_SING= 1.20000  F_TRIP= 0.62222  F_PARALLEL= 0.33333):
 ============================================================================
 SCS-DF-MP2                            -0.271823890993    -76.336111913730
 SCS-DF-MP2-F12/3*C(DX,FIX)            -0.303849930096    -76.368137952834
 SCS-DF-MP2-F12/3*C(FIX)               -0.301541288359    -76.365829311096
 SCS-DF-MP2-F12/3C(FIX)                -0.301514502089    -76.365802524826
 Symmetry transformation completed.

 Number of N-1 electron functions:               4
 Number of N-2 electron functions:              10
 Number of singly external CSFs:               836
 Number of doubly external CSFs:            349866
 Total number of CSFs:                      350703

 Length of J-op  integral file:              53.89 MB
 Length of K-op  integral file:              87.81 MB
 Length of 3-ext integral record:             0.00 MB

 Memory could be reduced to 60.96 Mwords without degradation in triples

 Integral transformation finished. Total CPU:   5.58 sec, npass=  1  Memory used:  26.32 MW

 Reference energy:                    -76.06428802

 Adding F12 terms to K(Cij), methodcc=6,  factor= 1.0

 ITER.      SQ.NORM     CORR.ENERGY   TOTAL ENERGY   ENERGY CHANGE        DEN1      VAR(S)    VAR(P)  DIIS     TIME  TIME/IT
   1      1.06255434    -0.27467289   -76.33896091    -0.00010545     0.00586927  0.76D-03  0.10D-02  1  1    19.70     3.88
   2      1.06593711    -0.27442079   -76.33870881     0.00025210    -0.00466878  0.14D-04  0.11D-03  2  2    23.55     4.04
   3      1.06714680    -0.27455494   -76.33884296    -0.00013415    -0.00081778  0.94D-05  0.72D-05  3  3    27.40     4.09
   4      1.06770259    -0.27457717   -76.33886519    -0.00002223    -0.00036155  0.46D-06  0.60D-06  4  4    31.27     4.12
   5      1.06779832    -0.27457564   -76.33886366     0.00000153    -0.00002170  0.14D-06  0.42D-07  5  5    35.10     4.13
   6      1.06782519    -0.27457426   -76.33886228     0.00000138    -0.00000417  0.15D-07  0.43D-08  6  6    38.93     4.45
   7      1.06783275    -0.27457385   -76.33886187     0.00000041    -0.00000166  0.13D-08  0.58D-09  6  1    42.80     4.42
   8      1.06783439    -0.27457385   -76.33886187    -0.00000000    -0.00000012  0.19D-09  0.71D-10  6  2    46.66     4.88
   9      1.06783495    -0.27457386   -76.33886188    -0.00000001     0.00000005  0.17D-10  0.92D-11  6  3    50.55     4.80

 Norm of t1 vector:      0.03633478      S-energy:    -0.00000005      T1 diagnostic:  0.00908369
                                                                       D1 diagnostic:  0.01831985

 Adding energy correction from Wij-K(Fij), methodcc=6  factor= 1.0
 
  CCSD correlation energy              -0.274573857258
  MP2-F12 correction (uncoupled)       -0.024976696995
  C*T doubles correction               -0.000834485033
  f12b correction                       0.004278625643

 Total CPU time for triples:     21.66 sec

  Ecorr(MP2)                           -0.274567443690
  Ecorr(MP2-F12)                       -0.300662776832
  Scale factor for triples energy       1.095041614515


 RESULTS
 =======

  Reference energy                    -76.063312555106
  F12 singles correction               -0.000975467631

 F12 singles corrections added to reference energy

  New reference energy                -76.064288022737

  F12a singlet correction              -0.023107463953
  F12a triplet correction              -0.002703718075
  F12a total correction                -0.025811182028

 F12a corrections for ansatz F12/3C(FIX) added to CCSD energy
 
  CCSD-F12a singlet pair energy        -0.209536182358
  CCSD-F12a triplet pair energy        -0.090848806998
  CCSD-F12a correlation energy         -0.300385039286

  Triples (T) contribution (scaled)    -0.009754892154
  Total correlation energy             -0.310139931440

  CCSD-F12a total energy              -76.364673062024
  CCSD[T]-F12a energy                 -76.374765154912
  CCSD-T-F12a energy                  -76.374280868923
 !CCSD(T)-F12a total energy           -76.374427954177

 F12b corrections for ansatz F12/3C(FIX) added to CCSD(T)-F12a energy

  CCSD-F12b singlet pair energy        -0.205567925577
  CCSD-F12b triplet pair energy        -0.090538438136
  CCSD-F12b correlation energy         -0.296106413643

  Triples (T) contribution (scaled)    -0.009754892154
  Total correlation energy             -0.305861305797

  CCSD-F12b total energy              -76.360394436381
  CCSD[T]-F12b energy                 -76.370486529270
  CCSD-T-F12b energy                  -76.370002243280
 !CCSD(T)-F12b total energy           -76.370149328534

 Timing summary (sec):

 STEP                 CPU(USER)    SYS     CPU(TOT)    WALL
 Transformation          5.61      0.64      6.25      6.29
 CCSD iterations        34.55      3.00     37.55     50.67
 Triples                21.66      0.34     22.00     22.00
 MP2-F12                10.41      0.43     10.84     21.49
 F12b energy             3.33      0.31      3.64      3.66

 Program statistics:

 Available memory in ccsd:              2999999786
 Min. memory needed in ccsd:               1609972
 Max. memory used in ccsd:                 1864434
 Max. memory used in cckext:               1252381 (10 integral passes)



 **********************************************************************************************************************************
 DATASETS  * FILE   NREC   LENGTH (MB)   RECORD NAMES
              1      20     2044.66       500      610      700      900      950      970     1000      129      960     1100   
                                          VAR    BASINP    GEOM    SYMINP    ZMAT    AOBASIS   BASIS     P2S    ABASIS      S 
                                         1400     1410     1200     1210     1080     1600     1650     1300     1700     1380   
                                           T        V       H0       H01     AOSYM     SMH    MOLCAS    ERIS     OPER     JKOP   

              2       8       12.47       700     1000      520     2100     7360     7350     2101     2102   
                                         GEOM     BASIS   MCVARS     RHF    F12ABS    EF12      RHF      RHF  

 PROGRAMS   *        TOTAL   CCSD(T)        HF       INT   CCSD(T)        HF       INT   CCSD(T)        HF       INT
 CPU TIMES  *       520.05     75.59     25.18      0.06     79.49     20.62      0.07    277.97     25.22     15.72
 REAL TIME  *       894.72 SEC
 DISK USED  *         5.18 GB      
 **********************************************************************************************************************************
 SETTING E_F12_B(1)     =       -76.37442795  AU                              
 SETTING E_F12_B(2)     =       -76.37014933  AU                              
 SETTING E_INT_HF       =         0.00010276  AU                              
 SETTING E_INT_F12(1)   =        -0.00072824  AU                              
 SETTING E_INT_F12(2)   =        -0.00072035  AU                              
 E_INT_HF         =         0.00010276 AU
 E_INT_F12(1:2)   = [      -0.00072824    -0.00072035] AU

 CCSD(T)-F12/cc-pVTZ-F12 energy=    -76.370149328534

     CCSD(T)-F12        HF-SCF       CCSD(T)-F12        HF-SCF       CCSD(T)-F12        HF-SCF  
    -76.37014933    -76.06331256    -40.45406124    -40.21549230   -116.82493092   -116.27870209
 **********************************************************************************************************************************
 Molpro calculation terminated
 Variable memory released
