
 Primary working directories    : /net/scratch/people/plgsirous
 Secondary working directories  : /net/scratch/people/plgsirous
 Wavefunction directory         : /net/people/plgsirous/wfu/
 Main file repository           : /net/scratch/people/plgsirous/

 SHA1      : 
 NAME      : 
 ARCHNAME  : linux/x86_64
 FC        : /net/software/local/intel/impi/2018.1.163/bin64/mpiifort
 BLASLIB   : -L/net/software/local/intel/compilers_and_libraries_2018.1.163/linux/mkl/lib/intel64 -lmkl_scalapack_ilp64 -lmkl_intel_ilp64 -lmkl_intel_thread -lmkl_core -lmkl_blacs_intelmpi_ilp64 -liomp5 -lpthread -lm -ldl
 id        : pl

 Nodes     nprocs
 p1469        1

 Using customized tuning parameters: mindgm=7; mindgv=20; mindgc=1; mindgr=1; noblas=0; minvec=7
 default implementation of scratch files=df  

 memory,3000,m
 zsymel=nosym
 angstrom
 geometry={
 C1        -3.2772    1.4825     1.2719
 H1        -2.4640    0.8996     1.6510
 H2        -3.1608    2.5010     1.5785
 H3        -4.2018    1.0992     1.6501
 H4        -3.2685    1.4210     0.2037
 O1        -2.3087    -1.5137     3.3850
 H5        -2.7801    -1.8104     2.5808
 H6        -2.9573    -0.9957     3.9063
 }
 basis=vtz-f12
 gthresh,orbital=1d-8,energy=1d-8,twoint=1.d-19
 
 
 nkerna=1
 nkernb=1
 nkernab=$nkerna+$nkernb
 
                                                                                 ! AB Dimer
 {hf,accu=1.d-8}
 E_HF_AB=energy
 core,$nkernab
 {ccsd(t)-f12,scale_trip=1,THRF12=1.d-12}
 E_F12_AB=energy
 
                                                                                 ! Monomer A Part
 
 dummy,6,7,8;
 {hf,accu=1.d-8}
 E_HF_A=energy
 core,$nkerna
 {ccsd(t)-f12,scale_trip=1,THRF12=1.d-12}
 E_F12_A=energy
 
                                                                                 ! Monomer B Part
 
 dummy,1,2,3,4,5;
 {hf,accu=1.d-8}
 E_HF_B=energy
 core,$nkernb
 {ccsd(t)-f12,scale_trip=1,THRF12=1.d-12}
 E_F12_B=energy
 
 E_int_HF = E_HF_AB-(E_HF_A+E_HF_B)
 E_int_F12 = E_F12_AB-(E_F12_A+E_F12_B)
 
 
 show,E_int_HF,E_int_F12

 Variables initialized (889), CPU time= 0.01 sec
 Commands  initialized (702), CPU time= 0.00 sec, 572 directives.
 Default parameters read. Elapsed time= 0.08 sec

 Checking input...
 Passed
1


                                         ***  PROGRAM SYSTEM MOLPRO  ***
                                       Copyright, TTI GmbH Stuttgart, 2015
                                    Version 2015.1 linked Jul  2 2018 15:03:07


 **********************************************************************************************************************************
 LABEL *                                                                                 
  64 bit serial version                                                                  DATE: 17-Jan-19          TIME: 14:52:58  
 **********************************************************************************************************************************

 SHA1:             
 **********************************************************************************************************************************
 SETTING ZSYMEL         =    NOSYM
 ZSYMEL=NOSYM
 ZUNIT=ANG
 

Geometry recognized as XYZ


 Variable memory set to 3000000000 words,  buffer space   230000 words

 SETTING BASIS          =    VTZ-F12

 THRESHOLDS:

 ZERO    =  1.00D-12  ONEINT  =  1.00D-12  TWOINT  =  1.00D-19  PREFAC  =  1.00D-14  LOCALI  =  1.00D-09  EORDER  =  1.00D-04
 ENERGY  =  1.00D-08  ETEST   =  0.00D+00  EDENS   =  0.00D+00  THRDEDEF=  1.00D-06  GRADIENT=  1.00D-02  STEP    =  1.00D-03
 ORBITAL =  1.00D-08  CIVEC   =  1.00D-05  COEFF   =  1.00D-04  PRINTCI =  5.00D-02  PUNCHCI =  9.90D+01  OPTGRAD =  3.00D-04
 OPTENERG=  1.00D-06  OPTSTEP =  3.00D-04  THRGRAD =  1.00D-10  COMPRESS=  1.00D-11  VARMIN  =  1.00D-07  VARMAX  =  1.00D-03
 THRDOUB =  0.00D+00  THRDIV  =  1.00D-05  THRRED  =  1.00D-07  THRPSP  =  1.00D+00  THRDC   =  1.00D-10  THRCS   =  1.00D-10
 THRNRM  =  1.00D-08  THREQ   =  0.00D+00  THRDE   =  1.00D+00  THRREF  =  1.00D-05  SPARFAC =  1.00D+00  THRDLP  =  1.00D-07
 THRDIA  =  1.00D-10  THRDLS  =  1.00D-07  THRGPS  =  0.00D+00  THRKEX  =  0.00D+00  THRDIS  =  2.00D-01  THRVAR  =  1.00D-10
 THRLOC  =  1.00D-06  THRGAP  =  1.00D-06  THRLOCT = -1.00D+00  THRGAPT = -1.00D+00  THRORB  =  1.00D-06  THRMLTP =  0.00D+00
 THRCPQCI=  1.00D-10  KEXTA   =  0.00D+00  THRCOARS=  0.00D+00  SYMTOL  =  1.00D-06  GRADTOL =  1.00D-06  THROVL  =  1.00D-08
 THRORTH =  1.00D-08  GRID    =  1.00D-06  GRIDMAX =  1.00D-03  DTMAX   =  0.00D+00  THROCCDE=  1.00D-01  THROCCDE=  1.00D-01


 SETTING NKERNA         =         1.00000000                                  
 SETTING NKERNB         =         1.00000000                                  
 SETTING NKERNAB        =         2.00000000                                  


 Recomputing integrals since basis changed


 Using spherical harmonics

 Library entry C      S cc-pVTZ-F12          selected for orbital group  1
 Library entry C      P cc-pVTZ-F12          selected for orbital group  1
 Library entry C      D cc-pVTZ-F12          selected for orbital group  1
 Library entry C      F cc-pVTZ-F12          selected for orbital group  1
 Library entry H      S cc-pVTZ-F12          selected for orbital group  2
 Library entry H      P cc-pVTZ-F12          selected for orbital group  2
 Library entry H      D cc-pVTZ-F12          selected for orbital group  2
 Library entry O      S cc-pVTZ-F12          selected for orbital group  3
 Library entry O      P cc-pVTZ-F12          selected for orbital group  3
 Library entry O      D cc-pVTZ-F12          selected for orbital group  3
 Library entry O      F cc-pVTZ-F12          selected for orbital group  3


 PROGRAM * SEWARD (Integral evaluation for generally contracted gaussian basis sets)     Author: Roland Lindh, 1990

 Geometry written to block  1 of record 700


 Point group  C1  



 ATOMIC COORDINATES

 NR  ATOM    CHARGE       X              Y              Z

   1  C1      6.00   -6.193010455    2.801518980    2.403542658
   2  H1      1.00   -4.656285171    1.699997622    3.119937832
   3  H2      1.00   -5.973046335    4.726205038    2.982932688
   4  H3      1.00   -7.940251230    2.077186956    3.118237078
   5  H4      1.00   -6.176569838    2.685300823    0.384937212
   6  O1      8.00   -4.362810704   -2.860478435    6.396722932
   7  H5      1.00   -5.253627599   -3.421160176    4.877005182
   8  H6      1.00   -5.588487068   -1.881600302    7.381837160

 Bond lengths in Bohr (Angstrom)

 1-2  2.021904040  1-3  2.022002335  1-4  2.021953343  1-5  2.022015060  6-7  1.848637551
     ( 1.069945541)     ( 1.069997556)     ( 1.069971630)     ( 1.070004290)     ( 0.978256863)

 6-8  1.852278325
     ( 0.980183478)

 Bond angles

  2-1-3  109.53398059   2-1-4  109.65604535   2-1-5  108.43490854   3-1-4  109.49436728

  3-1-5  109.86987750   4-1-5  109.83468330   7-6-8  106.17843926

 NUCLEAR CHARGE:                   20
 NUMBER OF PRIMITIVE AOS:         270
 NUMBER OF SYMMETRY AOS:          246
 NUMBER OF CONTRACTIONS:          214   ( 214A   )
 NUMBER OF CORE ORBITALS:           2   (   2A   )
 NUMBER OF VALENCE ORBITALS:       14   (  14A   )


 NUCLEAR REPULSION ENERGY   36.78088270


 Eigenvalues of metric

         1 0.742E-04 0.198E-03 0.314E-03 0.323E-03 0.333E-03 0.452E-03 0.525E-03 0.562E-03


 Contracted 2-electron integrals neglected if value below      1.0D-19
 AO integral compression algorithm  1   Integral accuracy      1.0D-19

     2155.348 MB (compressed) written to integral file ( 88.4%)


 NUMBER OF SORTED TWO-ELECTRON INTEGRALS:  264626515.     BUFFER LENGTH:  32768
 NUMBER OF SEGMENTS:  17  SEGMENT LENGTH:   15999762      RECORD LENGTH: 524288

 Memory used in sort:      16.56 MW

 SORT1 READ   304636334. AND WROTE   251104876. INTEGRALS IN    728 RECORDS. CPU TIME:     3.28 SEC, REAL TIME:     9.82 SEC
 SORT2 READ   251104876. AND WROTE   264626515. INTEGRALS IN   8222 RECORDS. CPU TIME:     3.16 SEC, REAL TIME:     7.46 SEC

 FILE SIZES:   FILE 1:  2177.1 MBYTE,  FILE 4:  3053.5 MBYTE,   TOTAL:   5230.5 MBYTE

 OPERATOR DM      FOR CENTER  0  COORDINATES:    0.000000    0.000000    0.000000


 **********************************************************************************************************************************
 DATASETS  * FILE   NREC   LENGTH (MB)   RECORD NAMES
              1      19     1916.32       500      610      700      900      950      970     1000      129      960     1100   
                                          VAR    BASINP    GEOM    SYMINP    ZMAT    AOBASIS   BASIS     P2S    ABASIS      S 
                                         1400     1410     1200     1210     1080     1600     1650     1300     1700   
                                           T        V       H0       H01     AOSYM     SMH    MOLCAS    ERIS     OPER   

 PROGRAMS   *        TOTAL       INT
 CPU TIMES  *        15.72     15.60
 REAL TIME  *        39.03 SEC
 DISK USED  *         5.23 GB      
 **********************************************************************************************************************************


 PROGRAM * RHF-SCF (CLOSED SHELL)       Authors: W. Meyer, H.-J. Werner


 NUMBER OF ELECTRONS:      10+   10-    SPACE SYMMETRY=1    SPIN SYMMETRY: Singlet 
 CONVERGENCE THRESHOLDS:    1.00E-04 (Density)    1.00E-09 (Energy)
 MAX. NUMBER OF ITERATIONS:       60
 INTERPOLATION TYPE:            DIIS
 INTERPOLATION STEPS:              2 (START)      1 (STEP)
 LEVEL SHIFTS:                  0.00 (CLOSED)  0.00 (OPEN) 



 Orbital guess generated from atomic densities. Full valence occupancy:   16

 Molecular orbital dump at record        2100.2

 Initial occupancy:  10

 ITERATION    DDIFF          GRAD             ENERGY        2-EL.EN.            DIPOLE MOMENTS         DIIS   ORB.
    1      0.000D+00      0.000D+00      -116.22035874    158.971792   -1.08251    0.20917   -0.27267    0    start
    2      0.000D+00      0.546D-02      -116.26405923    154.175186   -0.59726    0.13918   -0.16443    1    diag
    3      0.561D-02      0.318D-02      -116.27737623    156.181932   -0.71823    0.15488   -0.19032    2    diag
    4      0.181D-02      0.477D-03      -116.27803241    156.068200   -0.70717    0.15154   -0.18706    3    diag
    5      0.418D-03      0.140D-03      -116.27810115    156.062857   -0.70615    0.15176   -0.18706    4    diag
    6      0.156D-03      0.341D-04      -116.27810508    156.068481   -0.70515    0.15168   -0.18693    5    diag
    7      0.415D-04      0.696D-05      -116.27810532    156.066768   -0.70511    0.15169   -0.18694    6    diag
    8      0.111D-04      0.179D-05      -116.27810534    156.066954   -0.70502    0.15170   -0.18693    7    diag
    9      0.309D-05      0.417D-06      -116.27810534    156.066926   -0.70500    0.15170   -0.18693    8    diag
   10      0.657D-06      0.509D-07      -116.27810534    156.066929   -0.70500    0.15170   -0.18693    0    orth

 Final occupancy:  10

 !RHF STATE 1.1 Energy               -116.278105339945
 Nuclear energy                        36.78088270
 One-electron energy                 -231.09245243
 Two-electron energy                   78.03346439
 Virial quotient                       -1.00070004
 !RHF STATE 1.1 Dipole moment          -0.70500184     0.15169768    -0.18692837
 Dipole moment /Debye                  -1.79181856     0.38555179    -0.47509340

 Orbital energies:

         1.1          2.1          3.1          4.1          5.1          6.1          7.1          8.1          9.1         10.1
    -20.567407   -11.198482    -1.340607    -0.953571    -0.708866    -0.577863    -0.554975    -0.553334    -0.550851    -0.506806

        11.1         12.1
      0.055748     0.070319

 HOMO     10.1    -0.506806 =     -13.7909eV
 LUMO     11.1     0.055748 =       1.5170eV
 LUMO-HOMO         0.562554 =      15.3079eV


 **********************************************************************************************************************************
 DATASETS  * FILE   NREC   LENGTH (MB)   RECORD NAMES
              1      19     1916.32       500      610      700      900      950      970     1000      129      960     1100   
                                          VAR    BASINP    GEOM    SYMINP    ZMAT    AOBASIS   BASIS     P2S    ABASIS      S 
                                         1400     1410     1200     1210     1080     1600     1650     1300     1700   
                                           T        V       H0       H01     AOSYM     SMH    MOLCAS    ERIS     OPER   

              2       4        3.81       700     1000      520     2100   
                                         GEOM     BASIS   MCVARS     RHF  

 PROGRAMS   *        TOTAL        HF       INT
 CPU TIMES  *        40.43     24.71     15.60
 REAL TIME  *        69.93 SEC
 DISK USED  *         5.23 GB      
 **********************************************************************************************************************************
 SETTING E_HF_AB        =      -116.27810534  AU                              


 PROGRAM * CCSD (Closed-shell coupled cluster)     Authors: C. Hampel, H.-J. Werner, 1991, M. Deegan, P.J. Knowles, 1992

                                  CCSD-F12 implementation by  H.-J. Werner, 2007

                   Density fitting integral evaluation by F.R. Manby, 2003,2007, G. Knizia, 2010

 Basis set CC-PVTZ/JKFIT generated.      Number of basis functions:   338 
 Basis set CC-PVTZ-F12/OPTRI generated.  Number of basis functions:   396 
 Basis set AUG-CC-PVTZ/MP2FIT generated. Number of basis functions:   488 

 Convergence thresholds:  THRVAR = 1.00D-08  THRDEN = 1.00D-08

 CCSD(T)     terms to be evaluated (factor= 1.000)


 Number of core orbitals:           2 (   2 )
 Number of closed-shell orbitals:   8 (   8 )
 Number of external orbitals:     204 ( 204 )

 Molecular orbitals read from record     2100.2  Type=RHF/CANONICAL (state 1.1)

 MP2-F12 correlation treatment (H.-J. Werner, 2006)
 ==================================================

 Using MP2-F12 with ansatz 3C(FIX)

 Using projected zeroth-order Hamiltonian (+Z)

 FOCKRIB=T FOCKRIC=T FOCKRIP=T CABSP=T CABSA=T CABSK=T CABSF=T GBC=F EBC=F DMAT=T NOFIK=T NOPAO=1 SOLVE=-1  USEPAO=0
 EXCH_A= T EXCH_B= F EXCH_C= F EXCH_P= F
 
 Geminal basis:    OPTFULL  GEM_TYPE=SLATER  BETA=1.0  NGEM=6

 Optimizing Gaussian exponents for each gem_beta

 Geminal optimization for beta= 1.0000
 Weight function:   m=0, omega= 1.4646

 Augmented Hessian optimization of geminal fit. Trust ratio= 0.40000
 Convergence reached after   2 iterations. Final gradient= 8.26D-16, Step= 4.26D-06, Delta= 1.28D-09
 
 Alpha:                 0.19532     0.81920     2.85917     9.50073    35.69989   197.79328
 Coeff:                 0.27070     0.30552     0.18297     0.10986     0.06810     0.04224
 

 All pairs explicitly correlated. Number of r12-pairs:           36

 Excluding core orbitals from MO domains
 
 AO(A)-basis ORBITAL           loaded. Number of functions:     214
 RI(R)-basis CC-PVTZ-F12/OPTRI loaded. Number of functions:     396
 DF-basis CC-PVTZ/JKFIT        loaded. Number of functions:     338

 Screening thresholds:   THRAO=  1.00D-10  THRMO=  1.00D-09  THRPROD=  1.00D-09
                         THRSW=  1.00D-05  THROV=  1.00D-12  THRAOF12=   1.00D-08

 CPU time for Fock operators                      2.79 sec
 
 Construction of ABS:
 Smallest eigenvalue of S          4.00E-04  (threshold= 1.00E-08)
 Ratio eigmin/eigmax               5.13E-05  (threshold= 1.00E-09)
 Smallest eigenvalue of S kept     4.00E-04  (threshold= 4.00E-04, 0 functions deleted, 396 kept)
 
 Construction of CABS:
 Smallest eigenvalue of S          8.26E-07  (threshold= 1.00E-08)
 Ratio eigmin/eigmax               8.26E-07  (threshold= 1.00E-09)
 Smallest eigenvalue of S kept     8.26E-07  (threshold= 8.26E-07, 0 functions deleted, 396 kept)
 
 CPU time for CABS singles                        0.11 sec

 CABS-singles contribution of  -0.00160879 patched into reference energy.
 New reference energy        -116.27971413
 
 AO(A)-basis ORBITAL           loaded. Number of functions:     214
 RI(R)-basis CC-PVTZ-F12/OPTRI loaded. Number of functions:     396
 DF-basis AUG-CC-PVTZ/MP2FIT   loaded. Number of functions:     488

 Screening thresholds:   THRAO=  1.00D-10  THRMO=  1.00D-09  THRPROD=  1.00D-09
                         THRSW=  1.00D-05  THROV=  1.00D-12  THRAOF12=   1.00D-08

 CPU time for 3-index integral evaluation         6.03 sec
 CPU time for first  half transformation          0.36 sec (14304.9 MFLOP/sec)
 CPU time for second half transformation          0.02 sec ( 5848.2 MFLOP/sec)
 CPU time for sorting                             0.02 sec
 CPU time for fitting                             0.09 sec (27095.5 MFLOP/sec)
 CPU time for tilde quantities                    0.09 sec (35732.2 MFLOP/sec)
 CPU time for assembly                            0.84 sec (35641.1 MFLOP/sec)
 CPU time for tranop_f12                          1.07 sec (36197.9 MFLOP/sec)
 CPU time for f12 integrals (total)               9.94 sec, Elapsed time:     12.74 sec
 CPU time for f12 matrices (total)                0.35 sec, Elapsed time:      0.59 sec

 Diagonal F12 approximation with fixed coefficients:  TSING= 0.500,  TTRIP= 0.250 (scaled by -1/beta)

 DF-MP2-F12 energy corrections:
 ==============================
 Approx.                                    Singlet             Triplet             Total
 DF-MP2-F12/3*C(DX,FIX)                -0.041443776166     -0.004156380020     -0.045600156187
 DF-MP2-F12/3*C(FIX)                   -0.039312871397     -0.003887576850     -0.043200448247
 DF-MP2-F12/3C(FIX)                    -0.039176318740     -0.003996526493     -0.043172845233

 DF-MP2-F12 correlation energies:
 ================================
 Approx.                                    Singlet             Triplet             Ecorr            Total Energy
 DF-MP2                                -0.320704827015     -0.156186420472     -0.476891247487   -116.756605372630
 DF-MP2-F12/3*C(DX,FIX)                -0.362148603182     -0.160342800492     -0.522491403674   -116.802205528817
 DF-MP2-F12/3*C(FIX)                   -0.360017698412     -0.160073997322     -0.520091695735   -116.799805820877
 DF-MP2-F12/3C(FIX)                    -0.359881145756     -0.160182946965     -0.520064092721   -116.799778217863

 SCS-DF-MP2 energies (F_SING= 1.20000  F_TRIP= 0.62222  F_PARALLEL= 0.33333):
 ============================================================================
 SCS-DF-MP2                            -0.482028454046   -116.761742579188
 SCS-DF-MP2-F12/3*C(DX,FIX)            -0.534347177458   -116.814061302600
 SCS-DF-MP2-F12/3*C(FIX)               -0.531622836429   -116.811336961571
 SCS-DF-MP2-F12/3C(FIX)                -0.531526764130   -116.811240889272
 Symmetry transformation completed.

 Number of N-1 electron functions:               8
 Number of N-2 electron functions:              36
 Number of singly external CSFs:              1632
 Number of doubly external CSFs:           1332528
 Total number of CSFs:                     1334161

 Length of J-op  integral file:             205.73 MB
 Length of K-op  integral file:             258.78 MB
 Length of 3-ext integral record:             0.00 MB

 Memory could be reduced to 93.27 Mwords without degradation in triples

 Integral transformation finished. Total CPU:   9.36 sec, npass=  1  Memory used:  48.07 MW

 Reference energy:                   -116.27971413

 Adding F12 terms to K(Cij), methodcc=6,  factor= 1.0

 ITER.      SQ.NORM     CORR.ENERGY   TOTAL ENERGY   ENERGY CHANGE        DEN1      VAR(S)    VAR(P)  DIIS     TIME  TIME/IT
   1      1.13256602    -0.49209502  -116.77180915    -0.01512905    -0.00360284  0.14D-02  0.19D-02  1  1    31.34     9.54
   2      1.14055184    -0.49266084  -116.77237497    -0.00056582    -0.00958880  0.30D-04  0.23D-03  2  2    39.96     9.38
   3      1.14356874    -0.49291458  -116.77262870    -0.00025373    -0.00213800  0.13D-04  0.13D-04  3  3    48.58     9.39
   4      1.14454568    -0.49294644  -116.77266057    -0.00003187    -0.00060640  0.60D-06  0.11D-05  4  4    57.18     9.34
   5      1.14470484    -0.49294561  -116.77265974     0.00000083    -0.00003064  0.18D-06  0.68D-07  5  5    65.80    15.54
   6      1.14474062    -0.49294332  -116.77265745     0.00000229    -0.00000675  0.16D-07  0.74D-08  6  6    74.43    14.50
   7      1.14475006    -0.49294237  -116.77265650     0.00000095    -0.00000303  0.18D-08  0.63D-09  6  1    83.07    13.75
   8      1.14475176    -0.49294248  -116.77265661    -0.00000011     0.00000020  0.29D-09  0.83D-10  6  3    91.71    13.18
   9      1.14475281    -0.49294244  -116.77265657     0.00000004    -0.00000034  0.23D-10  0.15D-10  6  2   100.37    12.73
  10      1.14475297    -0.49294245  -116.77265657    -0.00000000     0.00000005  0.26D-11  0.15D-11  6  4   109.01    12.39
  11      1.14475297    -0.49294245  -116.77265657    -0.00000000     0.00000004  0.40D-12  0.20D-12  6  5   117.65    12.09

 Norm of t1 vector:      0.04950116      S-energy:     0.00000000      T1 diagnostic:  0.00875065
                                                                       D1 diagnostic:  0.01905991

 Adding energy correction from Wij-K(Fij), methodcc=6  factor= 1.0
 
  CCSD correlation energy              -0.492942446380
  MP2-F12 correction (uncoupled)       -0.041740762463
  C*T doubles correction               -0.001132399032
  f12b correction                       0.007815541326


 Total CPU time for triples:    153.17 sec

  Ecorr(MP2)                           -0.476965971004
  Ecorr(MP2-F12)                       -0.520138816238
  Scale factor for triples energy       1.090515566849


 RESULTS
 =======

  Reference energy                   -116.278105339945
  F12 singles correction               -0.001608785197

 F12 singles corrections added to reference energy

  New reference energy               -116.279714125143

  F12a singlet correction              -0.038998725052
  F12a triplet correction              -0.003874436444
  F12a total correction                -0.042873161496

 F12a corrections for ansatz F12/3C(FIX) added to CCSD energy
 
  CCSD-F12a singlet pair energy        -0.389030163899
  CCSD-F12a triplet pair energy        -0.146785446176
  CCSD-F12a correlation energy         -0.535815607876

  Triples (T) contribution (scaled)    -0.016924583746
  Total correlation energy             -0.552740191622

  CCSD-F12a total energy             -116.815529733019
  CCSD[T]-F12a energy                -116.833039081046
  CCSD-T-F12a energy                 -116.832230561687
 !CCSD(T)-F12a total energy          -116.832454316765

 F12b corrections for ansatz F12/3C(FIX) added to CCSD(T)-F12a energy

  CCSD-F12b singlet pair energy        -0.381681639584
  CCSD-F12b triplet pair energy        -0.146318429165
  CCSD-F12b correlation energy         -0.528000066550

  Triples (T) contribution (scaled)    -0.016924583746
  Total correlation energy             -0.544924650297

  CCSD-F12b total energy             -116.807714191693
  CCSD[T]-F12b energy                -116.825223539720
  CCSD-T-F12b energy                 -116.824415020361
 !CCSD(T)-F12b total energy          -116.824638775439

 Timing summary (sec):

 STEP                 CPU(USER)    SYS     CPU(TOT)    WALL
 Transformation          9.47      1.03     10.50     10.89
 CCSD iterations        94.80      6.17    100.97    133.15
 Triples               153.17      2.51    155.68    155.75
 MP2-F12                13.39      1.54     14.93     16.82
 F12b energy             6.87      0.33      7.20      7.20

 Program statistics:

 Available memory in ccsd:              2999999464
 Min. memory needed in ccsd:               3963025
 Max. memory used in ccsd:                 5096465
 Max. memory used in cckext:               3666031 (12 integral passes)



 **********************************************************************************************************************************
 DATASETS  * FILE   NREC   LENGTH (MB)   RECORD NAMES
              1      20     2209.87       500      610      700      900      950      970     1000      129      960     1100   
                                          VAR    BASINP    GEOM    SYMINP    ZMAT    AOBASIS   BASIS     P2S    ABASIS      S 
                                         1400     1410     1200     1210     1080     1600     1650     1300     1700     1380   
                                           T        V       H0       H01     AOSYM     SMH    MOLCAS    ERIS     OPER     JKOP   

              2       6        4.74       700     1000      520     2100     7360     7350   
                                         GEOM     BASIS   MCVARS     RHF    F12ABS    EF12   

 PROGRAMS   *        TOTAL   CCSD(T)        HF       INT
 CPU TIMES  *       318.16    277.73     24.71     15.60
 REAL TIME  *       394.04 SEC
 DISK USED  *         5.23 GB      
 **********************************************************************************************************************************
 SETTING E_F12_AB(1)    =      -116.83245432  AU                              
 SETTING E_F12_AB(2)    =      -116.82463878  AU                              

 Dummy atoms: O1  H5  H6


 Recomputing one-electron integrals since nuclear charges changed


 PROGRAM * SEWARD (Integral evaluation for generally contracted gaussian basis sets)     Author: Roland Lindh, 1990

 Geometry written to block  1 of record 700


 Point group  C1  



 ATOMIC COORDINATES

 NR  ATOM    CHARGE       X              Y              Z

   1  C1      6.00   -6.193010455    2.801518980    2.403542658
   2  H1      1.00   -4.656285171    1.699997622    3.119937832
   3  H2      1.00   -5.973046335    4.726205038    2.982932688
   4  H3      1.00   -7.940251230    2.077186956    3.118237078
   5  H4      1.00   -6.176569838    2.685300823    0.384937212
   6  O1      0.00   -4.362810704   -2.860478435    6.396722932
   7  H5      0.00   -5.253627599   -3.421160176    4.877005182
   8  H6      0.00   -5.588487068   -1.881600302    7.381837160

 Bond lengths in Bohr (Angstrom)

 1-2  2.021904040  1-3  2.022002335  1-4  2.021953343  1-5  2.022015060  6-7  1.848637551
     ( 1.069945541)     ( 1.069997556)     ( 1.069971630)     ( 1.070004290)     ( 0.978256863)

 6-8  1.852278325
     ( 0.980183478)

 Bond angles

  2-1-3  109.53398059   2-1-4  109.65604535   2-1-5  108.43490854   3-1-4  109.49436728

  3-1-5  109.86987750   4-1-5  109.83468330   7-6-8  106.17843926

 NUCLEAR CHARGE:                   10
 NUMBER OF PRIMITIVE AOS:         270
 NUMBER OF SYMMETRY AOS:          246
 NUMBER OF CONTRACTIONS:          214   ( 214A   )
 NUMBER OF CORE ORBITALS:           1   (   1A   )
 NUMBER OF VALENCE ORBITALS:        8   (   8A   )

 MOLECULE CHANGED: INITIALIZING OCCUPATION AND DUMP RECORDS


 NUCLEAR REPULSION ENERGY   13.68681606


 Eigenvalues of metric

         1 0.742E-04 0.198E-03 0.314E-03 0.323E-03 0.333E-03 0.452E-03 0.525E-03 0.562E-03


 Contracted 2-electron integrals neglected if value below      1.0D-19

 OPERATOR DM      FOR CENTER  0  COORDINATES:    0.000000    0.000000    0.000000


 **********************************************************************************************************************************
 DATASETS  * FILE   NREC   LENGTH (MB)   RECORD NAMES
              1      19     1916.32       500      610      700      900      950      970     1000      129      960     1100   
                                          VAR    BASINP    GEOM    SYMINP    ZMAT    AOBASIS   BASIS     P2S    ABASIS      S 
                                         1400     1410     1200     1210     1080     1600     1650     1300     1700   
                                           T        V       H0       H01     AOSYM     SMH    MOLCAS    ERIS     OPER   

              2       6        4.74       700     1000      520     2100     7360     7350   
                                         GEOM     BASIS   MCVARS     RHF    F12ABS    EF12   

 PROGRAMS   *        TOTAL       INT   CCSD(T)        HF       INT
 CPU TIMES  *       318.23      0.07    277.73     24.71     15.60
 REAL TIME  *       394.53 SEC
 DISK USED  *         5.23 GB      
 **********************************************************************************************************************************


 PROGRAM * RHF-SCF (CLOSED SHELL)       Authors: W. Meyer, H.-J. Werner


 NUMBER OF ELECTRONS:       5+    5-    SPACE SYMMETRY=1    SPIN SYMMETRY: Singlet 
 CONVERGENCE THRESHOLDS:    1.00E-04 (Density)    1.00E-09 (Energy)
 MAX. NUMBER OF ITERATIONS:       60
 INTERPOLATION TYPE:            DIIS
 INTERPOLATION STEPS:              2 (START)      1 (STEP)
 LEVEL SHIFTS:                  0.00 (CLOSED)  0.00 (OPEN) 



 Orbital guess generated from atomic densities. Full valence occupancy:    9

 Molecular orbital dump at record        2101.2

 Initial occupancy:   5

 ITERATION    DDIFF          GRAD             ENERGY        2-EL.EN.            DIPOLE MOMENTS         DIIS   ORB.
    1      0.000D+00      0.000D+00       -40.19565419     53.501363    0.00405   -0.00283   -0.00123    0    start
    2      0.000D+00      0.368D-02       -40.21289905     52.216649    0.00120   -0.00092   -0.00032    1    diag
    3      0.318D-02      0.143D-02       -40.21516788     52.670308    0.00173   -0.00127   -0.00049    2    diag
    4      0.857D-03      0.357D-03       -40.21548610     52.615360    0.00152   -0.00113   -0.00042    3    diag
    5      0.329D-03      0.463D-04       -40.21549157     52.617514    0.00149   -0.00111   -0.00041    4    diag
    6      0.578D-04      0.375D-05       -40.21549161     52.617659    0.00148   -0.00111   -0.00041    5    diag
    7      0.873D-05      0.303D-06       -40.21549161     52.617619    0.00148   -0.00111   -0.00041    6    diag
    8      0.976D-06      0.227D-07       -40.21549161     52.617621    0.00148   -0.00111   -0.00041    0    orth

 Final occupancy:   5

 !RHF STATE 1.1 Energy                -40.215491606782
 Nuclear energy                        13.68681606
 One-electron energy                  -80.21111793
 Two-electron energy                   26.30881027
 Virial quotient                       -0.99832330
 !RHF STATE 1.1 Dipole moment           0.00148359    -0.00110963    -0.00041121
 Dipole moment /Debye                   0.00377067    -0.00282022    -0.00104512

 Orbital energies:

         1.1          2.1          3.1          4.1          5.1          6.1          7.1
    -11.196270    -0.950712    -0.551937    -0.550004    -0.547826     0.056088     0.068971

 HOMO      5.1    -0.547826 =     -14.9071eV
 LUMO      6.1     0.056088 =       1.5262eV
 LUMO-HOMO         0.603914 =      16.4333eV


 **********************************************************************************************************************************
 DATASETS  * FILE   NREC   LENGTH (MB)   RECORD NAMES
              1      19     1916.32       500      610      700      900      950      970     1000      129      960     1100   
                                          VAR    BASINP    GEOM    SYMINP    ZMAT    AOBASIS   BASIS     P2S    ABASIS      S 
                                         1400     1410     1200     1210     1080     1600     1650     1300     1700   
                                           T        V       H0       H01     AOSYM     SMH    MOLCAS    ERIS     OPER   

              2       7        8.14       700     1000      520     2100     7360     7350     2101   
                                         GEOM     BASIS   MCVARS     RHF    F12ABS    EF12      RHF  

 PROGRAMS   *        TOTAL        HF       INT   CCSD(T)        HF       INT
 CPU TIMES  *       338.59     20.36      0.07    277.73     24.71     15.60
 REAL TIME  *       450.69 SEC
 DISK USED  *         5.23 GB      
 **********************************************************************************************************************************
 SETTING E_HF_A         =       -40.21549161  AU                              


 PROGRAM * CCSD (Closed-shell coupled cluster)     Authors: C. Hampel, H.-J. Werner, 1991, M. Deegan, P.J. Knowles, 1992

                                  CCSD-F12 implementation by  H.-J. Werner, 2007

                   Density fitting integral evaluation by F.R. Manby, 2003,2007, G. Knizia, 2010

 Basis set CC-PVTZ/JKFIT generated.      Number of basis functions:   338 
 Basis set CC-PVTZ-F12/OPTRI generated.  Number of basis functions:   396 
 Basis set AUG-CC-PVTZ/MP2FIT generated. Number of basis functions:   488 

 Convergence thresholds:  THRVAR = 1.00D-08  THRDEN = 1.00D-08

 CCSD(T)     terms to be evaluated (factor= 1.000)


 Number of core orbitals:           1 (   1 )
 Number of closed-shell orbitals:   4 (   4 )
 Number of external orbitals:     209 ( 209 )

 Molecular orbitals read from record     2101.2  Type=RHF/CANONICAL (state 1.1)

 MP2-F12 correlation treatment (H.-J. Werner, 2006)
 ==================================================

 Using MP2-F12 with ansatz 3C(FIX)

 Using projected zeroth-order Hamiltonian (+Z)

 FOCKRIB=T FOCKRIC=T FOCKRIP=T CABSP=T CABSA=T CABSK=T CABSF=T GBC=F EBC=F DMAT=T NOFIK=T NOPAO=1 SOLVE=-1  USEPAO=0
 EXCH_A= T EXCH_B= F EXCH_C= F EXCH_P= F
 
 Geminal basis:    OPTFULL  GEM_TYPE=SLATER  BETA=1.0  NGEM=6

 Optimizing Gaussian exponents for each gem_beta

 Geminal optimization for beta= 1.0000
 Weight function:   m=0, omega= 1.4646

 Augmented Hessian optimization of geminal fit. Trust ratio= 0.40000
 Convergence reached after   2 iterations. Final gradient= 8.26D-16, Step= 4.26D-06, Delta= 1.28D-09
 
 Alpha:                 0.19532     0.81920     2.85917     9.50073    35.69989   197.79328
 Coeff:                 0.27070     0.30552     0.18297     0.10986     0.06810     0.04224
 

 All pairs explicitly correlated. Number of r12-pairs:           10

 Excluding core orbitals from MO domains
 
 AO(A)-basis ORBITAL           loaded. Number of functions:     214
 RI(R)-basis CC-PVTZ-F12/OPTRI loaded. Number of functions:     396
 DF-basis CC-PVTZ/JKFIT        loaded. Number of functions:     338

 Screening thresholds:   THRAO=  1.00D-10  THRMO=  1.00D-09  THRPROD=  1.00D-09
                         THRSW=  1.00D-05  THROV=  1.00D-12  THRAOF12=   1.00D-08

 CPU time for Fock operators                      2.69 sec
 
 Construction of ABS:
 Smallest eigenvalue of S          4.00E-04  (threshold= 1.00E-08)
 Ratio eigmin/eigmax               5.13E-05  (threshold= 1.00E-09)
 Smallest eigenvalue of S kept     4.00E-04  (threshold= 4.00E-04, 0 functions deleted, 396 kept)
 
 Construction of CABS:
 Smallest eigenvalue of S          8.26E-07  (threshold= 1.00E-08)
 Ratio eigmin/eigmax               8.26E-07  (threshold= 1.00E-09)
 Smallest eigenvalue of S kept     8.26E-07  (threshold= 8.26E-07, 0 functions deleted, 396 kept)
 
 CPU time for CABS singles                        0.11 sec

 CABS-singles contribution of  -0.00063646 patched into reference energy.
 New reference energy         -40.21612807
 
 AO(A)-basis ORBITAL           loaded. Number of functions:     214
 RI(R)-basis CC-PVTZ-F12/OPTRI loaded. Number of functions:     396
 DF-basis AUG-CC-PVTZ/MP2FIT   loaded. Number of functions:     488

 Screening thresholds:   THRAO=  1.00D-10  THRMO=  1.00D-09  THRPROD=  1.00D-09
                         THRSW=  1.00D-05  THROV=  1.00D-12  THRAOF12=   1.00D-08

 CPU time for 3-index integral evaluation         5.90 sec
 CPU time for first  half transformation          0.43 sec ( 5988.1 MFLOP/sec)
 CPU time for second half transformation          0.01 sec ( 2924.1 MFLOP/sec)
 CPU time for sorting                             0.01 sec
 CPU time for fitting                             0.03 sec (39690.7 MFLOP/sec)
 CPU time for tilde quantities                    0.03 sec (52963.2 MFLOP/sec)
 CPU time for assembly                            0.24 sec (33233.6 MFLOP/sec)
 CPU time for tranop_f12                          0.25 sec (38326.5 MFLOP/sec)
 CPU time for f12 integrals (total)               7.40 sec, Elapsed time:      7.94 sec
 CPU time for f12 matrices (total)                0.08 sec, Elapsed time:      3.81 sec

 Diagonal F12 approximation with fixed coefficients:  TSING= 0.500,  TTRIP= 0.250 (scaled by -1/beta)

 DF-MP2-F12 energy corrections:
 ==============================
 Approx.                                    Singlet             Triplet             Total
 DF-MP2-F12/3*C(DX,FIX)                -0.016286113419     -0.001139823796     -0.017425937216
 DF-MP2-F12/3*C(FIX)                   -0.015925122469     -0.001149687881     -0.017074810349
 DF-MP2-F12/3C(FIX)                    -0.015857481827     -0.001156930411     -0.017014412238

 DF-MP2-F12 correlation energies:
 ================================
 Approx.                                    Singlet             Triplet             Ecorr            Total Energy
 DF-MP2                                -0.145616067809     -0.055805512565     -0.201421580373    -40.417549646794
 DF-MP2-F12/3*C(DX,FIX)                -0.161902181228     -0.056945336361     -0.218847517589    -40.434975584010
 DF-MP2-F12/3*C(FIX)                   -0.161541190278     -0.056955200445     -0.218496390723    -40.434624457143
 DF-MP2-F12/3C(FIX)                    -0.161473549636     -0.056962442976     -0.218435992612    -40.434564059032

 SCS-DF-MP2 energies (F_SING= 1.20000  F_TRIP= 0.62222  F_PARALLEL= 0.33333):
 ============================================================================
 SCS-DF-MP2                            -0.209462711411    -40.425590777831
 SCS-DF-MP2-F12/3*C(DX,FIX)            -0.229715271210    -40.445843337630
 SCS-DF-MP2-F12/3*C(FIX)               -0.229288219721    -40.445416286142
 SCS-DF-MP2-F12/3C(FIX)                -0.229211557415    -40.445339623835
 Symmetry transformation completed.

 Number of N-1 electron functions:               4
 Number of N-2 electron functions:              10
 Number of singly external CSFs:               836
 Number of doubly external CSFs:            349866
 Total number of CSFs:                      350703

 Length of J-op  integral file:              53.89 MB
 Length of K-op  integral file:              87.81 MB
 Length of 3-ext integral record:             0.00 MB

 Memory could be reduced to 60.96 Mwords without degradation in triples

 Integral transformation finished. Total CPU:   5.52 sec, npass=  1  Memory used:  26.32 MW

 Reference energy:                    -40.21612807

 Adding F12 terms to K(Cij), methodcc=6,  factor= 1.0

 ITER.      SQ.NORM     CORR.ENERGY   TOTAL ENERGY   ENERGY CHANGE        DEN1      VAR(S)    VAR(P)  DIIS     TIME  TIME/IT
   1      1.06960674    -0.21652510   -40.43265317    -0.01506888    -0.00954325  0.62D-03  0.94D-03  1  1    19.65     3.86
   2      1.07446135    -0.21734098   -40.43346905    -0.00081588    -0.00516236  0.14D-04  0.90D-04  2  2    23.49     4.02
   3      1.07598322    -0.21745240   -40.43358046    -0.00011141    -0.00108986  0.20D-05  0.57D-05  3  3    27.35     4.07
   4      1.07635264    -0.21746692   -40.43359499    -0.00001452    -0.00020094  0.13D-06  0.31D-06  4  4    31.18     5.59
   5      1.07640454    -0.21746655   -40.43359462     0.00000037    -0.00000933  0.77D-08  0.15D-07  5  5    35.04     6.19
   6      1.07641084    -0.21746530   -40.43359337     0.00000125    -0.00000294  0.32D-09  0.88D-09  6  6    38.86     8.41
   7      1.07641160    -0.21746522   -40.43359329     0.00000008    -0.00000043  0.22D-10  0.73D-10  6  1    42.70     7.99
   8      1.07641169    -0.21746525   -40.43359332    -0.00000003     0.00000001  0.29D-11  0.64D-11  6  2    46.51     7.58
   9      1.07641169    -0.21746526   -40.43359332    -0.00000001     0.00000003  0.21D-12  0.36D-12  6  3    50.34     8.25
  10      1.07641168    -0.21746526   -40.43359332    -0.00000000     0.00000001  0.24D-13  0.34D-13  6  4    54.21     8.01

 Norm of t1 vector:      0.03261142      S-energy:    -0.00000000      T1 diagnostic:  0.00815285
                                                                       D1 diagnostic:  0.01307363

 Adding energy correction from Wij-K(Fij), methodcc=6  factor= 1.0
 
  CCSD correlation energy              -0.217465258312
  MP2-F12 correction (uncoupled)       -0.016713577243
  C*T doubles correction               -0.000291510775
  f12b correction                       0.003525323256


 Total CPU time for triples:     21.73 sec

  Ecorr(MP2)                           -0.201456227482
  Ecorr(MP2-F12)                       -0.218470639720
  Scale factor for triples energy       1.084457117316


 RESULTS
 =======

  Reference energy                    -40.215491606782
  F12 singles correction               -0.000636459639

 F12 singles corrections added to reference energy

  New reference energy                -40.216128066420

  F12a singlet correction              -0.015860748353
  F12a triplet correction              -0.001144339665
  F12a total correction                -0.017005088017

 F12a corrections for ansatz F12/3C(FIX) added to CCSD energy
 
  CCSD-F12a singlet pair energy        -0.179253435649
  CCSD-F12a triplet pair energy        -0.055216910239
  CCSD-F12a correlation energy         -0.234470346329

  Triples (T) contribution (scaled)    -0.006988958619
  Total correlation energy             -0.241459304949

  CCSD-F12a total energy              -40.450598412750
  CCSD[T]-F12a energy                 -40.457828827971
  CCSD-T-F12a energy                  -40.457514000647
 !CCSD(T)-F12a total energy           -40.457587371369

 F12b corrections for ansatz F12/3C(FIX) added to CCSD(T)-F12a energy

  CCSD-F12b singlet pair energy        -0.175882908499
  CCSD-F12b triplet pair energy        -0.055062114133
  CCSD-F12b correlation energy         -0.230945023073

  Triples (T) contribution (scaled)    -0.006988958619
  Total correlation energy             -0.237933981692

  CCSD-F12b total energy              -40.447073089493
  CCSD[T]-F12b energy                 -40.454303504714
  CCSD-T-F12b energy                  -40.453988677391
 !CCSD(T)-F12b total energy           -40.454062048113

 Timing summary (sec):

 STEP                 CPU(USER)    SYS     CPU(TOT)    WALL
 Transformation          5.56      0.70      6.26      6.84
 CCSD iterations        38.22      3.27     41.49     81.68
 Triples                21.73      0.35     22.08     22.09
 MP2-F12                10.44      0.44     10.88     40.00
 F12b energy             3.35      0.28      3.63      3.63

 Program statistics:

 Available memory in ccsd:              2999999786
 Min. memory needed in ccsd:               1609972
 Max. memory used in ccsd:                 1864434
 Max. memory used in cckext:               1252381 (11 integral passes)



 **********************************************************************************************************************************
 DATASETS  * FILE   NREC   LENGTH (MB)   RECORD NAMES
              1      20     2069.32       500      610      700      900      950      970     1000      129      960     1100   
                                          VAR    BASINP    GEOM    SYMINP    ZMAT    AOBASIS   BASIS     P2S    ABASIS      S 
                                         1400     1410     1200     1210     1080     1600     1650     1300     1700     1380   
                                           T        V       H0       H01     AOSYM     SMH    MOLCAS    ERIS     OPER     JKOP   

              2       7        8.14       700     1000      520     2100     7360     7350     2101   
                                         GEOM     BASIS   MCVARS     RHF    F12ABS    EF12      RHF  

 PROGRAMS   *        TOTAL   CCSD(T)        HF       INT   CCSD(T)        HF       INT
 CPU TIMES  *       417.93     79.34     20.36      0.07    277.73     24.71     15.60
 REAL TIME  *       610.30 SEC
 DISK USED  *         5.23 GB      
 **********************************************************************************************************************************
 SETTING E_F12_A(1)     =       -40.45758737  AU                              
 SETTING E_F12_A(2)     =       -40.45406205  AU                              

 Dummy atoms: C1  H1  H2  H3  H4


 Recomputing one-electron integrals since nuclear charges changed


 PROGRAM * SEWARD (Integral evaluation for generally contracted gaussian basis sets)     Author: Roland Lindh, 1990

 Geometry written to block  1 of record 700


 Point group  C1  



 ATOMIC COORDINATES

 NR  ATOM    CHARGE       X              Y              Z

   1  C1      0.00   -6.193010455    2.801518980    2.403542658
   2  H1      0.00   -4.656285171    1.699997622    3.119937832
   3  H2      0.00   -5.973046335    4.726205038    2.982932688
   4  H3      0.00   -7.940251230    2.077186956    3.118237078
   5  H4      0.00   -6.176569838    2.685300823    0.384937212
   6  O1      8.00   -4.362810704   -2.860478435    6.396722932
   7  H5      1.00   -5.253627599   -3.421160176    4.877005182
   8  H6      1.00   -5.588487068   -1.881600302    7.381837160

 Bond lengths in Bohr (Angstrom)

 1-2  2.021904040  1-3  2.022002335  1-4  2.021953343  1-5  2.022015060  6-7  1.848637551
     ( 1.069945541)     ( 1.069997556)     ( 1.069971630)     ( 1.070004290)     ( 0.978256863)

 6-8  1.852278325
     ( 0.980183478)

 Bond angles

  2-1-3  109.53398059   2-1-4  109.65604535   2-1-5  108.43490854   3-1-4  109.49436728

  3-1-5  109.86987750   4-1-5  109.83468330   7-6-8  106.17843926

 NUCLEAR CHARGE:                   10
 NUMBER OF PRIMITIVE AOS:         270
 NUMBER OF SYMMETRY AOS:          246
 NUMBER OF CONTRACTIONS:          214   ( 214A   )
 NUMBER OF CORE ORBITALS:           1   (   1A   )
 NUMBER OF VALENCE ORBITALS:        6   (   6A   )

 MOLECULE CHANGED: INITIALIZING OCCUPATION AND DUMP RECORDS


 NUCLEAR REPULSION ENERGY    8.98445179


 Eigenvalues of metric

         1 0.742E-04 0.198E-03 0.314E-03 0.323E-03 0.333E-03 0.452E-03 0.525E-03 0.562E-03


 Contracted 2-electron integrals neglected if value below      1.0D-19

 OPERATOR DM      FOR CENTER  0  COORDINATES:    0.000000    0.000000    0.000000


 **********************************************************************************************************************************
 DATASETS  * FILE   NREC   LENGTH (MB)   RECORD NAMES
              1      19     1916.32       500      610      700      900      950      970     1000      129      960     1100   
                                          VAR    BASINP    GEOM    SYMINP    ZMAT    AOBASIS   BASIS     P2S    ABASIS      S 
                                         1400     1410     1200     1210     1080     1600     1650     1300     1700   
                                           T        V       H0       H01     AOSYM     SMH    MOLCAS    ERIS     OPER   

              2       7        8.14       700     1000      520     2100     7360     7350     2101   
                                         GEOM     BASIS   MCVARS     RHF    F12ABS    EF12      RHF  

 PROGRAMS   *        TOTAL       INT   CCSD(T)        HF       INT   CCSD(T)        HF       INT
 CPU TIMES  *       418.00      0.07     79.34     20.36      0.07    277.73     24.71     15.60
 REAL TIME  *       618.10 SEC
 DISK USED  *         5.23 GB      
 **********************************************************************************************************************************


 PROGRAM * RHF-SCF (CLOSED SHELL)       Authors: W. Meyer, H.-J. Werner


 NUMBER OF ELECTRONS:       5+    5-    SPACE SYMMETRY=1    SPIN SYMMETRY: Singlet 
 CONVERGENCE THRESHOLDS:    1.00E-04 (Density)    1.00E-09 (Energy)
 MAX. NUMBER OF ITERATIONS:       60
 INTERPOLATION TYPE:            DIIS
 INTERPOLATION STEPS:              2 (START)      1 (STEP)
 LEVEL SHIFTS:                  0.00 (CLOSED)  0.00 (OPEN) 



 Orbital guess generated from atomic densities. Full valence occupancy:    7

 Molecular orbital dump at record        2102.2

 Initial occupancy:   5

 ITERATION    DDIFF          GRAD             ENERGY        2-EL.EN.            DIPOLE MOMENTS         DIIS   ORB.
    1      0.000D+00      0.000D+00       -76.02438591     77.390911   -1.08819    0.21566   -0.27447    0    start
    2      0.000D+00      0.671D-02       -76.05108962     73.737248   -0.63570    0.12533   -0.16054    1    diag
    3      0.463D-02      0.426D-02       -76.06261460     75.358838   -0.74791    0.14775   -0.18897    2    diag
    4      0.162D-02      0.400D-03       -76.06280982     75.266482   -0.74329    0.14677   -0.18790    3    diag
    5      0.228D-03      0.112D-03       -76.06283074     75.280869   -0.74156    0.14641   -0.18751    4    diag
    6      0.791D-04      0.223D-04       -76.06283210     75.279800   -0.74113    0.14632   -0.18742    5    diag
    7      0.236D-04      0.452D-05       -76.06283217     75.279954   -0.74099    0.14629   -0.18739    6    diag
    8      0.548D-05      0.881D-06       -76.06283217     75.279942   -0.74094    0.14629   -0.18738    7    diag
    9      0.936D-06      0.119D-06       -76.06283217     75.279932   -0.74094    0.14628   -0.18738    8    diag
   10      0.188D-06      0.267D-07       -76.06283217     75.279937   -0.74094    0.14629   -0.18738    0    orth

 Final occupancy:   5

 !RHF STATE 1.1 Energy                -76.062832174479
 Nuclear energy                         8.98445179
 One-electron energy                 -122.68725255
 Two-electron energy                   37.63996859
 Virial quotient                       -1.00203340
 !RHF STATE 1.1 Dipole moment          -0.74093539     0.14628502    -0.18738149
 Dipole moment /Debye                  -1.88314657     0.37179508    -0.47624505

 Orbital energies:

         1.1          2.1          3.1          4.1          5.1          6.1          7.1
    -20.567950    -1.340765    -0.709083    -0.577606    -0.508254     0.037254     0.062808

 HOMO      5.1    -0.508254 =     -13.8303eV
 LUMO      6.1     0.037254 =       1.0137eV
 LUMO-HOMO         0.545508 =      14.8440eV


 **********************************************************************************************************************************
 DATASETS  * FILE   NREC   LENGTH (MB)   RECORD NAMES
              1      19     1916.32       500      610      700      900      950      970     1000      129      960     1100   
                                          VAR    BASINP    GEOM    SYMINP    ZMAT    AOBASIS   BASIS     P2S    ABASIS      S 
                                         1400     1410     1200     1210     1080     1600     1650     1300     1700   
                                           T        V       H0       H01     AOSYM     SMH    MOLCAS    ERIS     OPER   

              2       8       12.47       700     1000      520     2100     7360     7350     2101     2102   
                                         GEOM     BASIS   MCVARS     RHF    F12ABS    EF12      RHF      RHF  

 PROGRAMS   *        TOTAL        HF       INT   CCSD(T)        HF       INT   CCSD(T)        HF       INT
 CPU TIMES  *       442.89     24.89      0.07     79.34     20.36      0.07    277.73     24.71     15.60
 REAL TIME  *       665.80 SEC
 DISK USED  *         5.23 GB      
 **********************************************************************************************************************************
 SETTING E_HF_B         =       -76.06283217  AU                              


 PROGRAM * CCSD (Closed-shell coupled cluster)     Authors: C. Hampel, H.-J. Werner, 1991, M. Deegan, P.J. Knowles, 1992

                                  CCSD-F12 implementation by  H.-J. Werner, 2007

                   Density fitting integral evaluation by F.R. Manby, 2003,2007, G. Knizia, 2010

 Basis set CC-PVTZ/JKFIT generated.      Number of basis functions:   338 
 Basis set CC-PVTZ-F12/OPTRI generated.  Number of basis functions:   396 
 Basis set AUG-CC-PVTZ/MP2FIT generated. Number of basis functions:   488 

 Convergence thresholds:  THRVAR = 1.00D-08  THRDEN = 1.00D-08

 CCSD(T)     terms to be evaluated (factor= 1.000)


 Number of core orbitals:           1 (   1 )
 Number of closed-shell orbitals:   4 (   4 )
 Number of external orbitals:     209 ( 209 )

 Molecular orbitals read from record     2102.2  Type=RHF/CANONICAL (state 1.1)

 MP2-F12 correlation treatment (H.-J. Werner, 2006)
 ==================================================

 Using MP2-F12 with ansatz 3C(FIX)

 Using projected zeroth-order Hamiltonian (+Z)

 FOCKRIB=T FOCKRIC=T FOCKRIP=T CABSP=T CABSA=T CABSK=T CABSF=T GBC=F EBC=F DMAT=T NOFIK=T NOPAO=1 SOLVE=-1  USEPAO=0
 EXCH_A= T EXCH_B= F EXCH_C= F EXCH_P= F
 
 Geminal basis:    OPTFULL  GEM_TYPE=SLATER  BETA=1.0  NGEM=6

 Optimizing Gaussian exponents for each gem_beta

 Geminal optimization for beta= 1.0000
 Weight function:   m=0, omega= 1.4646

 Augmented Hessian optimization of geminal fit. Trust ratio= 0.40000
 Convergence reached after   2 iterations. Final gradient= 8.26D-16, Step= 4.26D-06, Delta= 1.28D-09
 
 Alpha:                 0.19532     0.81920     2.85917     9.50073    35.69989   197.79328
 Coeff:                 0.27070     0.30552     0.18297     0.10986     0.06810     0.04224
 

 All pairs explicitly correlated. Number of r12-pairs:           10

 Excluding core orbitals from MO domains
 
 AO(A)-basis ORBITAL           loaded. Number of functions:     214
 RI(R)-basis CC-PVTZ-F12/OPTRI loaded. Number of functions:     396
 DF-basis CC-PVTZ/JKFIT        loaded. Number of functions:     338

 Screening thresholds:   THRAO=  1.00D-10  THRMO=  1.00D-09  THRPROD=  1.00D-09
                         THRSW=  1.00D-05  THROV=  1.00D-12  THRAOF12=   1.00D-08

 CPU time for Fock operators                      2.67 sec
 
 Construction of ABS:
 Smallest eigenvalue of S          4.00E-04  (threshold= 1.00E-08)
 Ratio eigmin/eigmax               5.13E-05  (threshold= 1.00E-09)
 Smallest eigenvalue of S kept     4.00E-04  (threshold= 4.00E-04, 0 functions deleted, 396 kept)
 
 Construction of CABS:
 Smallest eigenvalue of S          8.26E-07  (threshold= 1.00E-08)
 Ratio eigmin/eigmax               8.26E-07  (threshold= 1.00E-09)
 Smallest eigenvalue of S kept     8.26E-07  (threshold= 8.26E-07, 0 functions deleted, 396 kept)
 
 CPU time for CABS singles                        0.11 sec

 CABS-singles contribution of  -0.00096785 patched into reference energy.
 New reference energy         -76.06380003
 
 AO(A)-basis ORBITAL           loaded. Number of functions:     214
 RI(R)-basis CC-PVTZ-F12/OPTRI loaded. Number of functions:     396
 DF-basis AUG-CC-PVTZ/MP2FIT   loaded. Number of functions:     488

 Screening thresholds:   THRAO=  1.00D-10  THRMO=  1.00D-09  THRPROD=  1.00D-09
                         THRSW=  1.00D-05  THROV=  1.00D-12  THRAOF12=   1.00D-08

 CPU time for 3-index integral evaluation         5.99 sec
 CPU time for first  half transformation          0.37 sec ( 6959.1 MFLOP/sec)
 CPU time for second half transformation          0.02 sec ( 1462.0 MFLOP/sec)
 CPU time for fitting                             0.03 sec (39690.7 MFLOP/sec)
 CPU time for tilde quantities                    0.04 sec (39722.4 MFLOP/sec)
 CPU time for assembly                            0.21 sec (37981.3 MFLOP/sec)
 CPU time for tranop_f12                          0.26 sec (36852.4 MFLOP/sec)
 CPU time for f12 integrals (total)               7.39 sec, Elapsed time:      7.85 sec
 CPU time for f12 matrices (total)                0.08 sec, Elapsed time:      0.12 sec

 Diagonal F12 approximation with fixed coefficients:  TSING= 0.500,  TTRIP= 0.250 (scaled by -1/beta)

 DF-MP2-F12 energy corrections:
 ==============================
 Approx.                                    Singlet             Triplet             Total
 DF-MP2-F12/3*C(DX,FIX)                -0.025116125113     -0.002996055550     -0.028112180663
 DF-MP2-F12/3*C(FIX)                   -0.023345501629     -0.002710145377     -0.026055647006
 DF-MP2-F12/3C(FIX)                    -0.023273784940     -0.002807348008     -0.026081132948

 DF-MP2-F12 correlation energies:
 ================================
 Approx.                                    Singlet             Triplet             Ecorr            Total Energy
 DF-MP2                                -0.174936478693     -0.099756194886     -0.274692673579    -76.338492698728
 DF-MP2-F12/3*C(DX,FIX)                -0.200052603806     -0.102752250436     -0.302804854242    -76.366604879390
 DF-MP2-F12/3*C(FIX)                   -0.198281980322     -0.102466340263     -0.300748320585    -76.364548345734
 DF-MP2-F12/3C(FIX)                    -0.198210263634     -0.102563542894     -0.300773806528    -76.364573831676

 SCS-DF-MP2 energies (F_SING= 1.20000  F_TRIP= 0.62222  F_PARALLEL= 0.33333):
 ============================================================================
 SCS-DF-MP2                            -0.271994295694    -76.335794320843
 SCS-DF-MP2-F12/3*C(DX,FIX)            -0.303997858172    -76.367797883320
 SCS-DF-MP2-F12/3*C(FIX)               -0.301695210328    -76.365495235477
 SCS-DF-MP2-F12/3C(FIX)                -0.301669631939    -76.365469657087
 Symmetry transformation completed.

 Number of N-1 electron functions:               4
 Number of N-2 electron functions:              10
 Number of singly external CSFs:               836
 Number of doubly external CSFs:            349866
 Total number of CSFs:                      350703

 Length of J-op  integral file:              53.89 MB
 Length of K-op  integral file:              87.81 MB
 Length of 3-ext integral record:             0.00 MB

 Memory could be reduced to 60.96 Mwords without degradation in triples

 Integral transformation finished. Total CPU:   5.52 sec, npass=  1  Memory used:  26.32 MW

 Reference energy:                    -76.06380003

 Adding F12 terms to K(Cij), methodcc=6,  factor= 1.0

 ITER.      SQ.NORM     CORR.ENERGY   TOTAL ENERGY   ENERGY CHANGE        DEN1      VAR(S)    VAR(P)  DIIS     TIME  TIME/IT
   1      1.06271183    -0.27481478   -76.33861481    -0.00008174     0.00591791  0.77D-03  0.10D-02  1  1    19.60     3.85
   2      1.06612021    -0.27456678   -76.33836681     0.00024800    -0.00468941  0.14D-04  0.11D-03  2  2    23.42     4.01
   3      1.06734376    -0.27470253   -76.33850256    -0.00013575    -0.00082436  0.95D-05  0.73D-05  3  3    27.23     4.06
   4      1.06790633    -0.27472500   -76.33852503    -0.00002247    -0.00036454  0.47D-06  0.61D-06  4  4    31.06     4.09
   5      1.06800359    -0.27472350   -76.33852352     0.00000151    -0.00002225  0.15D-06  0.44D-07  5  5    34.91     4.10
   6      1.06803116    -0.27472210   -76.33852213     0.00000140    -0.00000423  0.15D-07  0.44D-08  6  6    38.75     4.11
   7      1.06803901    -0.27472168   -76.33852171     0.00000042    -0.00000172  0.13D-08  0.62D-09  6  1    42.59     4.12
   8      1.06804069    -0.27472168   -76.33852171     0.00000000    -0.00000013  0.21D-09  0.74D-10  6  2    46.45     4.13
   9      1.06804127    -0.27472169   -76.33852171    -0.00000001     0.00000005  0.18D-10  0.97D-11  6  3    50.31     4.14

 Norm of t1 vector:      0.03648275      S-energy:    -0.00000005      T1 diagnostic:  0.00912069
                                                                       D1 diagnostic:  0.01839418

 Adding energy correction from Wij-K(Fij), methodcc=6  factor= 1.0
 
  CCSD correlation energy              -0.274721689622
  MP2-F12 correction (uncoupled)       -0.024963091246
  C*T doubles correction               -0.000832909915
  f12b correction                       0.004280238464

 Total CPU time for triples:     21.73 sec

  Ecorr(MP2)                           -0.274733041808
  Ecorr(MP2-F12)                       -0.300814174757
  Scale factor for triples energy       1.094932639979


 RESULTS
 =======

  Reference energy                    -76.062832174479
  F12 singles correction               -0.000967850669

 F12 singles corrections added to reference energy

  New reference energy                -76.063800025148

  F12a singlet correction              -0.023095383613
  F12a triplet correction              -0.002700617547
  F12a total correction                -0.025796001160

 F12a corrections for ansatz F12/3C(FIX) added to CCSD energy
 
  CCSD-F12a singlet pair energy        -0.209668661293
  CCSD-F12a triplet pair energy        -0.090848977957
  CCSD-F12a correlation energy         -0.300517690782

  Triples (T) contribution (scaled)    -0.009781410761
  Total correlation energy             -0.310299101544

  CCSD-F12a total energy              -76.364317715931
  CCSD[T]-F12a energy                 -76.374438395238
  CCSD-T-F12a energy                  -76.373951191279
 !CCSD(T)-F12a total energy           -76.374099126692

 F12b corrections for ansatz F12/3C(FIX) added to CCSD(T)-F12a energy

  CCSD-F12b singlet pair energy        -0.205698612998
  CCSD-F12b triplet pair energy        -0.090538787788
  CCSD-F12b correlation energy         -0.296237452318

  Triples (T) contribution (scaled)    -0.009781410761
  Total correlation energy             -0.306018863080

  CCSD-F12b total energy              -76.360037477467
  CCSD[T]-F12b energy                 -76.370158156774
  CCSD-T-F12b energy                  -76.369670952815
 !CCSD(T)-F12b total energy           -76.369818888228

 Timing summary (sec):

 STEP                 CPU(USER)    SYS     CPU(TOT)    WALL
 Transformation          5.55      0.68      6.23      6.46
 CCSD iterations        34.34      2.93     37.27     37.37
 Triples                21.73      0.35     22.08     22.09
 MP2-F12                10.42      0.44     10.86     12.44
 F12b energy             3.35      0.27      3.62      3.62

 Program statistics:

 Available memory in ccsd:              2999999786
 Min. memory needed in ccsd:               1609972
 Max. memory used in ccsd:                 1864434
 Max. memory used in cckext:               1252381 (10 integral passes)



 **********************************************************************************************************************************
 DATASETS  * FILE   NREC   LENGTH (MB)   RECORD NAMES
              1      20     2069.32       500      610      700      900      950      970     1000      129      960     1100   
                                          VAR    BASINP    GEOM    SYMINP    ZMAT    AOBASIS   BASIS     P2S    ABASIS      S 
                                         1400     1410     1200     1210     1080     1600     1650     1300     1700     1380   
                                           T        V       H0       H01     AOSYM     SMH    MOLCAS    ERIS     OPER     JKOP   

              2       8       12.47       700     1000      520     2100     7360     7350     2101     2102   
                                         GEOM     BASIS   MCVARS     RHF    F12ABS    EF12      RHF      RHF  

 PROGRAMS   *        TOTAL   CCSD(T)        HF       INT   CCSD(T)        HF       INT   CCSD(T)        HF       INT
 CPU TIMES  *       518.33     75.44     24.89      0.07     79.34     20.36      0.07    277.73     24.71     15.60
 REAL TIME  *       748.04 SEC
 DISK USED  *         5.23 GB      
 **********************************************************************************************************************************
 SETTING E_F12_B(1)     =       -76.37409913  AU                              
 SETTING E_F12_B(2)     =       -76.36981889  AU                              
 SETTING E_INT_HF       =         0.00021844  AU                              
 SETTING E_INT_F12(1)   =        -0.00076782  AU                              
 SETTING E_INT_F12(2)   =        -0.00075784  AU                              
 E_INT_HF         =         0.00021844 AU
 E_INT_F12(1:2)   = [      -0.00076782    -0.00075784] AU

 CCSD(T)-F12/cc-pVTZ-F12 energy=    -76.369818888228

     CCSD(T)-F12        HF-SCF       CCSD(T)-F12        HF-SCF       CCSD(T)-F12        HF-SCF  
    -76.36981889    -76.06283217    -40.45406205    -40.21549161   -116.82463878   -116.27810534
 **********************************************************************************************************************************
 Molpro calculation terminated
 Variable memory released
