
 Primary working directories    : /net/scratch/people/plgsirous
 Secondary working directories  : /net/scratch/people/plgsirous
 Wavefunction directory         : /net/people/plgsirous/wfu/
 Main file repository           : /net/scratch/people/plgsirous/

 SHA1      : 
 NAME      : 
 ARCHNAME  : linux/x86_64
 FC        : /net/software/local/intel/impi/2018.1.163/bin64/mpiifort
 BLASLIB   : -L/net/software/local/intel/compilers_and_libraries_2018.1.163/linux/mkl/lib/intel64 -lmkl_scalapack_ilp64 -lmkl_intel_ilp64 -lmkl_intel_thread -lmkl_core -lmkl_blacs_intelmpi_ilp64 -liomp5 -lpthread -lm -ldl
 id        : pl

 Nodes     nprocs
 p1442        1

 Using customized tuning parameters: mindgm=7; mindgv=20; mindgc=1; mindgr=1; noblas=0; minvec=7
 default implementation of scratch files=df  

 memory,3000,m
 zsymel=nosym
 angstrom
 geometry={
 C1        -3.2772    1.4825     1.2719
 H1        -2.4640    0.8996     1.6510
 H2        -3.1608    2.5010     1.5785
 H3        -4.2018    1.0992     1.6501
 H4        -3.2685    1.4210     0.2037
 O1        -2.4415    2.8743     -2.1855
 H5        -3.1212    3.4468     -1.7803
 H6        -2.8926    2.0187     -2.3352
 }
 basis=vtz-f12
 gthresh,orbital=1d-8,energy=1d-8,twoint=1.d-19
 
 
 nkerna=1
 nkernb=1
 nkernab=$nkerna+$nkernb
 
                                                                                 ! AB Dimer
 {hf,accu=1.d-8}
 E_HF_AB=energy
 core,$nkernab
 {ccsd(t)-f12,scale_trip=1,THRF12=1.d-12}
 E_F12_AB=energy
 
                                                                                 ! Monomer A Part
 
 dummy,6,7,8;
 {hf,accu=1.d-8}
 E_HF_A=energy
 core,$nkerna
 {ccsd(t)-f12,scale_trip=1,THRF12=1.d-12}
 E_F12_A=energy
 
                                                                                 ! Monomer B Part
 
 dummy,1,2,3,4,5;
 {hf,accu=1.d-8}
 E_HF_B=energy
 core,$nkernb
 {ccsd(t)-f12,scale_trip=1,THRF12=1.d-12}
 E_F12_B=energy
 
 E_int_HF = E_HF_AB-(E_HF_A+E_HF_B)
 E_int_F12 = E_F12_AB-(E_F12_A+E_F12_B)
 
 
 show,E_int_HF,E_int_F12

 Variables initialized (889), CPU time= 0.01 sec
 Commands  initialized (702), CPU time= 0.00 sec, 572 directives.
 Default parameters read. Elapsed time= 0.23 sec

 Checking input...
 Passed
1


                                         ***  PROGRAM SYSTEM MOLPRO  ***
                                       Copyright, TTI GmbH Stuttgart, 2015
                                    Version 2015.1 linked Jul  2 2018 15:03:07


 **********************************************************************************************************************************
 LABEL *                                                                                 
  64 bit serial version                                                                  DATE: 17-Jan-19          TIME: 14:52:49  
 **********************************************************************************************************************************

 SHA1:             
 **********************************************************************************************************************************
 SETTING ZSYMEL         =    NOSYM
 ZSYMEL=NOSYM
 ZUNIT=ANG
 

Geometry recognized as XYZ


 Variable memory set to 3000000000 words,  buffer space   230000 words

 SETTING BASIS          =    VTZ-F12

 THRESHOLDS:

 ZERO    =  1.00D-12  ONEINT  =  1.00D-12  TWOINT  =  1.00D-19  PREFAC  =  1.00D-14  LOCALI  =  1.00D-09  EORDER  =  1.00D-04
 ENERGY  =  1.00D-08  ETEST   =  0.00D+00  EDENS   =  0.00D+00  THRDEDEF=  1.00D-06  GRADIENT=  1.00D-02  STEP    =  1.00D-03
 ORBITAL =  1.00D-08  CIVEC   =  1.00D-05  COEFF   =  1.00D-04  PRINTCI =  5.00D-02  PUNCHCI =  9.90D+01  OPTGRAD =  3.00D-04
 OPTENERG=  1.00D-06  OPTSTEP =  3.00D-04  THRGRAD =  1.00D-10  COMPRESS=  1.00D-11  VARMIN  =  1.00D-07  VARMAX  =  1.00D-03
 THRDOUB =  0.00D+00  THRDIV  =  1.00D-05  THRRED  =  1.00D-07  THRPSP  =  1.00D+00  THRDC   =  1.00D-10  THRCS   =  1.00D-10
 THRNRM  =  1.00D-08  THREQ   =  0.00D+00  THRDE   =  1.00D+00  THRREF  =  1.00D-05  SPARFAC =  1.00D+00  THRDLP  =  1.00D-07
 THRDIA  =  1.00D-10  THRDLS  =  1.00D-07  THRGPS  =  0.00D+00  THRKEX  =  0.00D+00  THRDIS  =  2.00D-01  THRVAR  =  1.00D-10
 THRLOC  =  1.00D-06  THRGAP  =  1.00D-06  THRLOCT = -1.00D+00  THRGAPT = -1.00D+00  THRORB  =  1.00D-06  THRMLTP =  0.00D+00
 THRCPQCI=  1.00D-10  KEXTA   =  0.00D+00  THRCOARS=  0.00D+00  SYMTOL  =  1.00D-06  GRADTOL =  1.00D-06  THROVL  =  1.00D-08
 THRORTH =  1.00D-08  GRID    =  1.00D-06  GRIDMAX =  1.00D-03  DTMAX   =  0.00D+00  THROCCDE=  1.00D-01  THROCCDE=  1.00D-01


 SETTING NKERNA         =         1.00000000                                  
 SETTING NKERNB         =         1.00000000                                  
 SETTING NKERNAB        =         2.00000000                                  


 Recomputing integrals since basis changed


 Using spherical harmonics

 Library entry C      S cc-pVTZ-F12          selected for orbital group  1
 Library entry C      P cc-pVTZ-F12          selected for orbital group  1
 Library entry C      D cc-pVTZ-F12          selected for orbital group  1
 Library entry C      F cc-pVTZ-F12          selected for orbital group  1
 Library entry H      S cc-pVTZ-F12          selected for orbital group  2
 Library entry H      P cc-pVTZ-F12          selected for orbital group  2
 Library entry H      D cc-pVTZ-F12          selected for orbital group  2
 Library entry O      S cc-pVTZ-F12          selected for orbital group  3
 Library entry O      P cc-pVTZ-F12          selected for orbital group  3
 Library entry O      D cc-pVTZ-F12          selected for orbital group  3
 Library entry O      F cc-pVTZ-F12          selected for orbital group  3


 PROGRAM * SEWARD (Integral evaluation for generally contracted gaussian basis sets)     Author: Roland Lindh, 1990

 Geometry written to block  1 of record 700


 Point group  C1  



 ATOMIC COORDINATES

 NR  ATOM    CHARGE       X              Y              Z

   1  C1      6.00   -6.193010455    2.801518980    2.403542658
   2  H1      1.00   -4.656285171    1.699997622    3.119937832
   3  H2      1.00   -5.973046335    4.726205038    2.982932688
   4  H3      1.00   -7.940251230    2.077186956    3.118237078
   5  H4      1.00   -6.176569838    2.685300823    0.384937212
   6  O1      8.00   -4.613766333    5.431639800   -4.129996445
   7  H5      1.00   -5.898213180    6.513508006   -3.364279420
   8  H6      1.00   -5.466221788    3.814790128   -4.412888446

 Bond lengths in Bohr (Angstrom)

 1-2  2.021904040  1-3  2.022002335  1-4  2.021953343  1-5  2.022015060  6-7  1.845688241
     ( 1.069945541)     ( 1.069997556)     ( 1.069971630)     ( 1.070004290)     ( 0.976696155)

 6-8  1.849570504
     ( 0.978750561)

 Bond angles

  2-1-3  109.53398059   2-1-4  109.65604535   2-1-5  108.43490854   3-1-4  109.49436728

  3-1-5  109.86987750   4-1-5  109.83468330   7-6-8  104.78050181

 NUCLEAR CHARGE:                   20
 NUMBER OF PRIMITIVE AOS:         270
 NUMBER OF SYMMETRY AOS:          246
 NUMBER OF CONTRACTIONS:          214   ( 214A   )
 NUMBER OF CORE ORBITALS:           2   (   2A   )
 NUMBER OF VALENCE ORBITALS:       14   (  14A   )


 NUCLEAR REPULSION ENERGY   36.70371194


 Eigenvalues of metric

         1 0.736E-04 0.203E-03 0.292E-03 0.319E-03 0.336E-03 0.453E-03 0.542E-03 0.556E-03


 Contracted 2-electron integrals neglected if value below      1.0D-19
 AO integral compression algorithm  1   Integral accuracy      1.0D-19

     2117.075 MB (compressed) written to integral file ( 86.9%)


 NUMBER OF SORTED TWO-ELECTRON INTEGRALS:  264626515.     BUFFER LENGTH:  32768
 NUMBER OF SEGMENTS:  17  SEGMENT LENGTH:   15999762      RECORD LENGTH: 524288

 Memory used in sort:      16.56 MW

 SORT1 READ   304636334. AND WROTE   249599107. INTEGRALS IN    723 RECORDS. CPU TIME:     3.26 SEC, REAL TIME:     8.76 SEC
 SORT2 READ   249599107. AND WROTE   264626515. INTEGRALS IN   8076 RECORDS. CPU TIME:     3.19 SEC, REAL TIME:    15.87 SEC

 FILE SIZES:   FILE 1:  2138.8 MBYTE,  FILE 4:  3032.5 MBYTE,   TOTAL:   5171.3 MBYTE

 OPERATOR DM      FOR CENTER  0  COORDINATES:    0.000000    0.000000    0.000000


 **********************************************************************************************************************************
 DATASETS  * FILE   NREC   LENGTH (MB)   RECORD NAMES
              1      19     1882.25       500      610      700      900      950      970     1000      129      960     1100   
                                          VAR    BASINP    GEOM    SYMINP    ZMAT    AOBASIS   BASIS     P2S    ABASIS      S 
                                         1400     1410     1200     1210     1080     1600     1650     1300     1700   
                                           T        V       H0       H01     AOSYM     SMH    MOLCAS    ERIS     OPER   

 PROGRAMS   *        TOTAL       INT
 CPU TIMES  *        15.92     15.79
 REAL TIME  *        44.55 SEC
 DISK USED  *         5.17 GB      
 **********************************************************************************************************************************


 PROGRAM * RHF-SCF (CLOSED SHELL)       Authors: W. Meyer, H.-J. Werner


 NUMBER OF ELECTRONS:      10+   10-    SPACE SYMMETRY=1    SPIN SYMMETRY: Singlet 
 CONVERGENCE THRESHOLDS:    1.00E-04 (Density)    1.00E-09 (Energy)
 MAX. NUMBER OF ITERATIONS:       60
 INTERPOLATION TYPE:            DIIS
 INTERPOLATION STEPS:              2 (START)      1 (STEP)
 LEVEL SHIFTS:                  0.00 (CLOSED)  0.00 (OPEN) 



 Orbital guess generated from atomic densities. Full valence occupancy:   16

 Molecular orbital dump at record        2100.2

 Initial occupancy:  10

 ITERATION    DDIFF          GRAD             ENERGY        2-EL.EN.            DIPOLE MOMENTS         DIIS   ORB.
    1      0.000D+00      0.000D+00      -116.21935247    158.789804   -1.08845   -0.27469    0.24328    0    start
    2      0.000D+00      0.548D-02      -116.26360655    153.984780   -0.59833   -0.15486    0.16429    1    diag
    3      0.564D-02      0.320D-02      -116.27707737    156.002488   -0.72468   -0.18570    0.18293    2    diag
    4      0.183D-02      0.480D-03      -116.27773851    155.888329   -0.71522   -0.18334    0.17946    3    diag
    5      0.423D-03      0.141D-03      -116.27780801    155.883813   -0.71491   -0.18352    0.17979    4    diag
    6      0.158D-03      0.341D-04      -116.27781192    155.889440   -0.71416   -0.18350    0.17974    5    diag
    7      0.414D-04      0.697D-05      -116.27781216    155.887724   -0.71419   -0.18354    0.17979    6    diag
    8      0.111D-04      0.177D-05      -116.27781218    155.887908   -0.71413   -0.18354    0.17981    7    diag
    9      0.320D-05      0.412D-06      -116.27781218    155.887879   -0.71410   -0.18354    0.17981    8    diag
   10      0.682D-06      0.506D-07      -116.27781218    155.887881   -0.71410   -0.18354    0.17981    0    orth

 Final occupancy:  10

 !RHF STATE 1.1 Energy               -116.277812178496
 Nuclear energy                        36.70371194
 One-electron energy                 -230.92546464
 Two-electron energy                   77.94394052
 Virial quotient                       -1.00062845
 !RHF STATE 1.1 Dipole moment          -0.71410177    -0.18353915     0.17981306
 Dipole moment /Debye                  -1.81494677    -0.46647943     0.45700927

 Orbital energies:

         1.1          2.1          3.1          4.1          5.1          6.1          7.1          8.1          9.1         10.1
    -20.568111   -11.198943    -1.342620    -0.953529    -0.707429    -0.581478    -0.555125    -0.552796    -0.551196    -0.507564

        11.1         12.1
      0.055316     0.070796

 HOMO     10.1    -0.507564 =     -13.8115eV
 LUMO     11.1     0.055316 =       1.5052eV
 LUMO-HOMO         0.562880 =      15.3167eV


 **********************************************************************************************************************************
 DATASETS  * FILE   NREC   LENGTH (MB)   RECORD NAMES
              1      19     1882.25       500      610      700      900      950      970     1000      129      960     1100   
                                          VAR    BASINP    GEOM    SYMINP    ZMAT    AOBASIS   BASIS     P2S    ABASIS      S 
                                         1400     1410     1200     1210     1080     1600     1650     1300     1700   
                                           T        V       H0       H01     AOSYM     SMH    MOLCAS    ERIS     OPER   

              2       4        3.81       700     1000      520     2100   
                                         GEOM     BASIS   MCVARS     RHF  

 PROGRAMS   *        TOTAL        HF       INT
 CPU TIMES  *        40.71     24.79     15.79
 REAL TIME  *        78.84 SEC
 DISK USED  *         5.17 GB      
 **********************************************************************************************************************************
 SETTING E_HF_AB        =      -116.27781218  AU                              


 PROGRAM * CCSD (Closed-shell coupled cluster)     Authors: C. Hampel, H.-J. Werner, 1991, M. Deegan, P.J. Knowles, 1992

                                  CCSD-F12 implementation by  H.-J. Werner, 2007

                   Density fitting integral evaluation by F.R. Manby, 2003,2007, G. Knizia, 2010

 Basis set CC-PVTZ/JKFIT generated.      Number of basis functions:   338 
 Basis set CC-PVTZ-F12/OPTRI generated.  Number of basis functions:   396 
 Basis set AUG-CC-PVTZ/MP2FIT generated. Number of basis functions:   488 

 Convergence thresholds:  THRVAR = 1.00D-08  THRDEN = 1.00D-08

 CCSD(T)     terms to be evaluated (factor= 1.000)


 Number of core orbitals:           2 (   2 )
 Number of closed-shell orbitals:   8 (   8 )
 Number of external orbitals:     204 ( 204 )

 Molecular orbitals read from record     2100.2  Type=RHF/CANONICAL (state 1.1)

 MP2-F12 correlation treatment (H.-J. Werner, 2006)
 ==================================================

 Using MP2-F12 with ansatz 3C(FIX)

 Using projected zeroth-order Hamiltonian (+Z)

 FOCKRIB=T FOCKRIC=T FOCKRIP=T CABSP=T CABSA=T CABSK=T CABSF=T GBC=F EBC=F DMAT=T NOFIK=T NOPAO=1 SOLVE=-1  USEPAO=0
 EXCH_A= T EXCH_B= F EXCH_C= F EXCH_P= F
 
 Geminal basis:    OPTFULL  GEM_TYPE=SLATER  BETA=1.0  NGEM=6

 Optimizing Gaussian exponents for each gem_beta

 Geminal optimization for beta= 1.0000
 Weight function:   m=0, omega= 1.4646

 Augmented Hessian optimization of geminal fit. Trust ratio= 0.40000
 Convergence reached after   2 iterations. Final gradient= 8.26D-16, Step= 4.26D-06, Delta= 1.28D-09
 
 Alpha:                 0.19532     0.81920     2.85917     9.50073    35.69989   197.79328
 Coeff:                 0.27070     0.30552     0.18297     0.10986     0.06810     0.04224
 

 All pairs explicitly correlated. Number of r12-pairs:           36

 Excluding core orbitals from MO domains
 
 AO(A)-basis ORBITAL           loaded. Number of functions:     214
 RI(R)-basis CC-PVTZ-F12/OPTRI loaded. Number of functions:     396
 DF-basis CC-PVTZ/JKFIT        loaded. Number of functions:     338

 Screening thresholds:   THRAO=  1.00D-10  THRMO=  1.00D-09  THRPROD=  1.00D-09
                         THRSW=  1.00D-05  THROV=  1.00D-12  THRAOF12=   1.00D-08

 CPU time for Fock operators                      2.86 sec
 
 Construction of ABS:
 Smallest eigenvalue of S          3.51E-04  (threshold= 1.00E-08)
 Ratio eigmin/eigmax               4.51E-05  (threshold= 1.00E-09)
 Smallest eigenvalue of S kept     3.51E-04  (threshold= 3.51E-04, 0 functions deleted, 396 kept)
 
 Construction of CABS:
 Smallest eigenvalue of S          8.02E-07  (threshold= 1.00E-08)
 Ratio eigmin/eigmax               8.02E-07  (threshold= 1.00E-09)
 Smallest eigenvalue of S kept     8.02E-07  (threshold= 8.02E-07, 0 functions deleted, 396 kept)
 
 CPU time for CABS singles                        0.12 sec

 CABS-singles contribution of  -0.00160940 patched into reference energy.
 New reference energy        -116.27942158
 
 AO(A)-basis ORBITAL           loaded. Number of functions:     214
 RI(R)-basis CC-PVTZ-F12/OPTRI loaded. Number of functions:     396
 DF-basis AUG-CC-PVTZ/MP2FIT   loaded. Number of functions:     488

 Screening thresholds:   THRAO=  1.00D-10  THRMO=  1.00D-09  THRPROD=  1.00D-09
                         THRSW=  1.00D-05  THROV=  1.00D-12  THRAOF12=   1.00D-08

 CPU time for 3-index integral evaluation         6.36 sec
 CPU time for first  half transformation          0.53 sec ( 9716.5 MFLOP/sec)
 CPU time for sorting                             0.02 sec
 CPU time for fitting                             0.09 sec (27095.5 MFLOP/sec)
 CPU time for tilde quantities                    0.07 sec (45941.4 MFLOP/sec)
 CPU time for assembly                            0.84 sec (35641.1 MFLOP/sec)
 CPU time for tranop_f12                          1.10 sec (35210.7 MFLOP/sec)
 CPU time for f12 integrals (total)              10.46 sec, Elapsed time:     12.49 sec
 CPU time for f12 matrices (total)                0.34 sec, Elapsed time:      0.40 sec

 Diagonal F12 approximation with fixed coefficients:  TSING= 0.500,  TTRIP= 0.250 (scaled by -1/beta)

 DF-MP2-F12 energy corrections:
 ==============================
 Approx.                                    Singlet             Triplet             Total
 DF-MP2-F12/3*C(DX,FIX)                -0.041429091705     -0.004154123892     -0.045583215597
 DF-MP2-F12/3*C(FIX)                   -0.039294149610     -0.003884024013     -0.043178173623
 DF-MP2-F12/3C(FIX)                    -0.039157905708     -0.003992882595     -0.043150788302

 DF-MP2-F12 correlation energies:
 ================================
 Approx.                                    Singlet             Triplet             Ecorr            Total Energy
 DF-MP2                                -0.320742636407     -0.156167131845     -0.476909768252   -116.756331344349
 DF-MP2-F12/3*C(DX,FIX)                -0.362171728112     -0.160321255737     -0.522492983849   -116.801914559946
 DF-MP2-F12/3*C(FIX)                   -0.360036786017     -0.160051155858     -0.520087941875   -116.799509517972
 DF-MP2-F12/3C(FIX)                    -0.359900542114     -0.160160014440     -0.520060556554   -116.799482132651

 SCS-DF-MP2 energies (F_SING= 1.20000  F_TRIP= 0.62222  F_PARALLEL= 0.33333):
 ============================================================================
 SCS-DF-MP2                            -0.482061823503   -116.761483399600
 SCS-DF-MP2-F12/3*C(DX,FIX)            -0.534361521748   -116.813783097845
 SCS-DF-MP2-F12/3*C(FIX)               -0.531631529087   -116.811053105184
 SCS-DF-MP2-F12/3C(FIX)                -0.531535770633   -116.810957346730
 Symmetry transformation completed.

 Number of N-1 electron functions:               8
 Number of N-2 electron functions:              36
 Number of singly external CSFs:              1632
 Number of doubly external CSFs:           1332528
 Total number of CSFs:                     1334161

 Length of J-op  integral file:             205.73 MB
 Length of K-op  integral file:             258.78 MB
 Length of 3-ext integral record:             0.00 MB

 Memory could be reduced to 93.27 Mwords without degradation in triples

 Integral transformation finished. Total CPU:   9.27 sec, npass=  1  Memory used:  48.07 MW

 Reference energy:                   -116.27942158

 Adding F12 terms to K(Cij), methodcc=6,  factor= 1.0

 ITER.      SQ.NORM     CORR.ENERGY   TOTAL ENERGY   ENERGY CHANGE        DEN1      VAR(S)    VAR(P)  DIIS     TIME  TIME/IT
   1      1.13256104    -0.49212978  -116.77155135    -0.01514585    -0.00361190  0.14D-02  0.19D-02  1  1    32.01     9.99
   2      1.14055321    -0.49269588  -116.77211746    -0.00056610    -0.00959675  0.30D-04  0.23D-03  2  2    40.84     9.77
   3      1.14357128    -0.49294935  -116.77237092    -0.00025346    -0.00213675  0.13D-04  0.13D-04  3  3    49.64     9.70
   4      1.14454945    -0.49298108  -116.77240266    -0.00003174    -0.00060687  0.60D-06  0.11D-05  4  4    58.47     9.66
   5      1.14470913    -0.49298026  -116.77240183     0.00000083    -0.00003096  0.19D-06  0.70D-07  5  5    67.30     9.73
   6      1.14474555    -0.49297794  -116.77239952     0.00000232    -0.00000673  0.16D-07  0.76D-08  6  6    76.06     9.78
   7      1.14475530    -0.49297696  -116.77239854     0.00000097    -0.00000311  0.18D-08  0.67D-09  6  1    84.90     9.76
   8      1.14475701    -0.49297706  -116.77239864    -0.00000010     0.00000019  0.31D-09  0.86D-10  6  3    93.74     9.74
   9      1.14475811    -0.49297702  -116.77239860     0.00000004    -0.00000035  0.24D-10  0.15D-10  6  2   102.58     9.89
  10      1.14475827    -0.49297702  -116.77239860    -0.00000000     0.00000005  0.28D-11  0.15D-11  6  4   111.46     9.85
  11      1.14475827    -0.49297702  -116.77239860    -0.00000000     0.00000005  0.47D-12  0.22D-12  6  5   120.34     9.92

 Norm of t1 vector:      0.04958516      S-energy:     0.00000000      T1 diagnostic:  0.00876550
                                                                       D1 diagnostic:  0.01919481

 Adding energy correction from Wij-K(Fij), methodcc=6  factor= 1.0
 
  CCSD correlation energy              -0.492977024008
  MP2-F12 correction (uncoupled)       -0.041720149466
  C*T doubles correction               -0.001131283785
  f12b correction                       0.007812617303


 Total CPU time for triples:    153.35 sec

  Ecorr(MP2)                           -0.476983930820
  Ecorr(MP2-F12)                       -0.520134719122
  Scale factor for triples energy       1.090465916174


 RESULTS
 =======

  Reference energy                   -116.277812178497
  F12 singles correction               -0.001609397600

 F12 singles corrections added to reference energy

  New reference energy               -116.279421576097

  F12a singlet correction              -0.038980669617
  F12a triplet correction              -0.003870763635
  F12a total correction                -0.042851433252

 F12a corrections for ansatz F12/3C(FIX) added to CCSD energy
 
  CCSD-F12a singlet pair energy        -0.389057193496
  CCSD-F12a triplet pair energy        -0.146771266444
  CCSD-F12a correlation energy         -0.535828457260

  Triples (T) contribution (scaled)    -0.016929534899
  Total correlation energy             -0.552757992159

  CCSD-F12a total energy             -116.815250033357
  CCSD[T]-F12a energy                -116.832765363114
  CCSD-T-F12a energy                 -116.831955076583
 !CCSD(T)-F12a total energy          -116.832179568256

 F12b corrections for ansatz F12/3C(FIX) added to CCSD(T)-F12a energy

  CCSD-F12b singlet pair energy        -0.381711320345
  CCSD-F12b triplet pair energy        -0.146304522292
  CCSD-F12b correlation energy         -0.528015839957

  Triples (T) contribution (scaled)    -0.016929534899
  Total correlation energy             -0.544945374856

  CCSD-F12b total energy             -116.807437416054
  CCSD[T]-F12b energy                -116.824952745812
  CCSD-T-F12b energy                 -116.824142459280
 !CCSD(T)-F12b total energy          -116.824366950953

 Timing summary (sec):

 STEP                 CPU(USER)    SYS     CPU(TOT)    WALL
 Transformation          9.39      1.93     11.32     12.57
 CCSD iterations        96.98      8.10    105.08    109.27
 Triples               153.35      2.57    155.92    156.07
 MP2-F12                13.99      1.42     15.41     16.43
 F12b energy             7.03      0.34      7.37      7.41

 Program statistics:

 Available memory in ccsd:              2999999464
 Min. memory needed in ccsd:               3963025
 Max. memory used in ccsd:                 5096465
 Max. memory used in cckext:               3666031 (12 integral passes)



 **********************************************************************************************************************************
 DATASETS  * FILE   NREC   LENGTH (MB)   RECORD NAMES
              1      20     2175.80       500      610      700      900      950      970     1000      129      960     1100   
                                          VAR    BASINP    GEOM    SYMINP    ZMAT    AOBASIS   BASIS     P2S    ABASIS      S 
                                         1400     1410     1200     1210     1080     1600     1650     1300     1700     1380   
                                           T        V       H0       H01     AOSYM     SMH    MOLCAS    ERIS     OPER     JKOP   

              2       6        4.74       700     1000      520     2100     7360     7350   
                                         GEOM     BASIS   MCVARS     RHF    F12ABS    EF12   

 PROGRAMS   *        TOTAL   CCSD(T)        HF       INT
 CPU TIMES  *       321.49    280.78     24.79     15.79
 REAL TIME  *       380.75 SEC
 DISK USED  *         5.17 GB      
 **********************************************************************************************************************************
 SETTING E_F12_AB(1)    =      -116.83217957  AU                              
 SETTING E_F12_AB(2)    =      -116.82436695  AU                              

 Dummy atoms: O1  H5  H6


 Recomputing one-electron integrals since nuclear charges changed


 PROGRAM * SEWARD (Integral evaluation for generally contracted gaussian basis sets)     Author: Roland Lindh, 1990

 Geometry written to block  1 of record 700


 Point group  C1  



 ATOMIC COORDINATES

 NR  ATOM    CHARGE       X              Y              Z

   1  C1      6.00   -6.193010455    2.801518980    2.403542658
   2  H1      1.00   -4.656285171    1.699997622    3.119937832
   3  H2      1.00   -5.973046335    4.726205038    2.982932688
   4  H3      1.00   -7.940251230    2.077186956    3.118237078
   5  H4      1.00   -6.176569838    2.685300823    0.384937212
   6  O1      0.00   -4.613766333    5.431639800   -4.129996445
   7  H5      0.00   -5.898213180    6.513508006   -3.364279420
   8  H6      0.00   -5.466221788    3.814790128   -4.412888446

 Bond lengths in Bohr (Angstrom)

 1-2  2.021904040  1-3  2.022002335  1-4  2.021953343  1-5  2.022015060  6-7  1.845688241
     ( 1.069945541)     ( 1.069997556)     ( 1.069971630)     ( 1.070004290)     ( 0.976696155)

 6-8  1.849570504
     ( 0.978750561)

 Bond angles

  2-1-3  109.53398059   2-1-4  109.65604535   2-1-5  108.43490854   3-1-4  109.49436728

  3-1-5  109.86987750   4-1-5  109.83468330   7-6-8  104.78050181

 NUCLEAR CHARGE:                   10
 NUMBER OF PRIMITIVE AOS:         270
 NUMBER OF SYMMETRY AOS:          246
 NUMBER OF CONTRACTIONS:          214   ( 214A   )
 NUMBER OF CORE ORBITALS:           1   (   1A   )
 NUMBER OF VALENCE ORBITALS:        8   (   8A   )

 MOLECULE CHANGED: INITIALIZING OCCUPATION AND DUMP RECORDS


 NUCLEAR REPULSION ENERGY   13.68681606


 Eigenvalues of metric

         1 0.736E-04 0.203E-03 0.292E-03 0.319E-03 0.336E-03 0.453E-03 0.542E-03 0.556E-03


 Contracted 2-electron integrals neglected if value below      1.0D-19

 OPERATOR DM      FOR CENTER  0  COORDINATES:    0.000000    0.000000    0.000000


 **********************************************************************************************************************************
 DATASETS  * FILE   NREC   LENGTH (MB)   RECORD NAMES
              1      19     1882.25       500      610      700      900      950      970     1000      129      960     1100   
                                          VAR    BASINP    GEOM    SYMINP    ZMAT    AOBASIS   BASIS     P2S    ABASIS      S 
                                         1400     1410     1200     1210     1080     1600     1650     1300     1700   
                                           T        V       H0       H01     AOSYM     SMH    MOLCAS    ERIS     OPER   

              2       6        4.74       700     1000      520     2100     7360     7350   
                                         GEOM     BASIS   MCVARS     RHF    F12ABS    EF12   

 PROGRAMS   *        TOTAL       INT   CCSD(T)        HF       INT
 CPU TIMES  *       321.56      0.06    280.78     24.79     15.79
 REAL TIME  *       381.05 SEC
 DISK USED  *         5.17 GB      
 **********************************************************************************************************************************


 PROGRAM * RHF-SCF (CLOSED SHELL)       Authors: W. Meyer, H.-J. Werner


 NUMBER OF ELECTRONS:       5+    5-    SPACE SYMMETRY=1    SPIN SYMMETRY: Singlet 
 CONVERGENCE THRESHOLDS:    1.00E-04 (Density)    1.00E-09 (Energy)
 MAX. NUMBER OF ITERATIONS:       60
 INTERPOLATION TYPE:            DIIS
 INTERPOLATION STEPS:              2 (START)      1 (STEP)
 LEVEL SHIFTS:                  0.00 (CLOSED)  0.00 (OPEN) 



 Orbital guess generated from atomic densities. Full valence occupancy:    9

 Molecular orbital dump at record        2101.2

 Initial occupancy:   5

 ITERATION    DDIFF          GRAD             ENERGY        2-EL.EN.            DIPOLE MOMENTS         DIIS   ORB.
    1      0.000D+00      0.000D+00       -40.19565464     53.501374    0.00413   -0.00269   -0.00129    0    start
    2      0.000D+00      0.368D-02       -40.21289961     52.216643    0.00132   -0.00080   -0.00035    1    diag
    3      0.319D-02      0.143D-02       -40.21516848     52.670307    0.00185   -0.00116   -0.00051    2    diag
    4      0.857D-03      0.357D-03       -40.21548670     52.615359    0.00164   -0.00102   -0.00044    3    diag
    5      0.330D-03      0.463D-04       -40.21549217     52.617513    0.00161   -0.00100   -0.00043    4    diag
    6      0.580D-04      0.375D-05       -40.21549222     52.617658    0.00161   -0.00099   -0.00043    5    diag
    7      0.868D-05      0.302D-06       -40.21549222     52.617618    0.00161   -0.00099   -0.00043    6    diag
    8      0.946D-06      0.228D-07       -40.21549222     52.617619    0.00161   -0.00099   -0.00043    0    orth

 Final occupancy:   5

 !RHF STATE 1.1 Energy                -40.215492216003
 Nuclear energy                        13.68681606
 One-electron energy                  -80.21111787
 Two-electron energy                   26.30880960
 Virial quotient                       -0.99832337
 !RHF STATE 1.1 Dipole moment           0.00161071    -0.00099332    -0.00042854
 Dipole moment /Debye                   0.00409374    -0.00252461    -0.00108918

 Orbital energies:

         1.1          2.1          3.1          4.1          5.1          6.1          7.1
    -11.196270    -0.950712    -0.551938    -0.550004    -0.547825     0.055306     0.068826

 HOMO      5.1    -0.547825 =     -14.9071eV
 LUMO      6.1     0.055306 =       1.5050eV
 LUMO-HOMO         0.603131 =      16.4120eV


 **********************************************************************************************************************************
 DATASETS  * FILE   NREC   LENGTH (MB)   RECORD NAMES
              1      19     1882.25       500      610      700      900      950      970     1000      129      960     1100   
                                          VAR    BASINP    GEOM    SYMINP    ZMAT    AOBASIS   BASIS     P2S    ABASIS      S 
                                         1400     1410     1200     1210     1080     1600     1650     1300     1700   
                                           T        V       H0       H01     AOSYM     SMH    MOLCAS    ERIS     OPER   

              2       7        8.14       700     1000      520     2100     7360     7350     2101   
                                         GEOM     BASIS   MCVARS     RHF    F12ABS    EF12      RHF  

 PROGRAMS   *        TOTAL        HF       INT   CCSD(T)        HF       INT
 CPU TIMES  *       342.02     20.46      0.06    280.78     24.79     15.79
 REAL TIME  *       405.46 SEC
 DISK USED  *         5.17 GB      
 **********************************************************************************************************************************
 SETTING E_HF_A         =       -40.21549222  AU                              


 PROGRAM * CCSD (Closed-shell coupled cluster)     Authors: C. Hampel, H.-J. Werner, 1991, M. Deegan, P.J. Knowles, 1992

                                  CCSD-F12 implementation by  H.-J. Werner, 2007

                   Density fitting integral evaluation by F.R. Manby, 2003,2007, G. Knizia, 2010

 Basis set CC-PVTZ/JKFIT generated.      Number of basis functions:   338 
 Basis set CC-PVTZ-F12/OPTRI generated.  Number of basis functions:   396 
 Basis set AUG-CC-PVTZ/MP2FIT generated. Number of basis functions:   488 

 Convergence thresholds:  THRVAR = 1.00D-08  THRDEN = 1.00D-08

 CCSD(T)     terms to be evaluated (factor= 1.000)


 Number of core orbitals:           1 (   1 )
 Number of closed-shell orbitals:   4 (   4 )
 Number of external orbitals:     209 ( 209 )

 Molecular orbitals read from record     2101.2  Type=RHF/CANONICAL (state 1.1)

 MP2-F12 correlation treatment (H.-J. Werner, 2006)
 ==================================================

 Using MP2-F12 with ansatz 3C(FIX)

 Using projected zeroth-order Hamiltonian (+Z)

 FOCKRIB=T FOCKRIC=T FOCKRIP=T CABSP=T CABSA=T CABSK=T CABSF=T GBC=F EBC=F DMAT=T NOFIK=T NOPAO=1 SOLVE=-1  USEPAO=0
 EXCH_A= T EXCH_B= F EXCH_C= F EXCH_P= F
 
 Geminal basis:    OPTFULL  GEM_TYPE=SLATER  BETA=1.0  NGEM=6

 Optimizing Gaussian exponents for each gem_beta

 Geminal optimization for beta= 1.0000
 Weight function:   m=0, omega= 1.4646

 Augmented Hessian optimization of geminal fit. Trust ratio= 0.40000
 Convergence reached after   2 iterations. Final gradient= 8.26D-16, Step= 4.26D-06, Delta= 1.28D-09
 
 Alpha:                 0.19532     0.81920     2.85917     9.50073    35.69989   197.79328
 Coeff:                 0.27070     0.30552     0.18297     0.10986     0.06810     0.04224
 

 All pairs explicitly correlated. Number of r12-pairs:           10

 Excluding core orbitals from MO domains
 
 AO(A)-basis ORBITAL           loaded. Number of functions:     214
 RI(R)-basis CC-PVTZ-F12/OPTRI loaded. Number of functions:     396
 DF-basis CC-PVTZ/JKFIT        loaded. Number of functions:     338

 Screening thresholds:   THRAO=  1.00D-10  THRMO=  1.00D-09  THRPROD=  1.00D-09
                         THRSW=  1.00D-05  THROV=  1.00D-12  THRAOF12=   1.00D-08

 CPU time for Fock operators                      2.76 sec
 
 Construction of ABS:
 Smallest eigenvalue of S          3.51E-04  (threshold= 1.00E-08)
 Ratio eigmin/eigmax               4.51E-05  (threshold= 1.00E-09)
 Smallest eigenvalue of S kept     3.51E-04  (threshold= 3.51E-04, 0 functions deleted, 396 kept)
 
 Construction of CABS:
 Smallest eigenvalue of S          8.02E-07  (threshold= 1.00E-08)
 Ratio eigmin/eigmax               8.02E-07  (threshold= 1.00E-09)
 Smallest eigenvalue of S kept     8.02E-07  (threshold= 8.02E-07, 0 functions deleted, 396 kept)
 
 CPU time for CABS singles                        0.11 sec

 CABS-singles contribution of  -0.00063593 patched into reference energy.
 New reference energy         -40.21612815
 
 AO(A)-basis ORBITAL           loaded. Number of functions:     214
 RI(R)-basis CC-PVTZ-F12/OPTRI loaded. Number of functions:     396
 DF-basis AUG-CC-PVTZ/MP2FIT   loaded. Number of functions:     488

 Screening thresholds:   THRAO=  1.00D-10  THRMO=  1.00D-09  THRPROD=  1.00D-09
                         THRSW=  1.00D-05  THROV=  1.00D-12  THRAOF12=   1.00D-08

 CPU time for 3-index integral evaluation         6.26 sec
 CPU time for first  half transformation          0.57 sec ( 4517.3 MFLOP/sec)
 CPU time for second half transformation          0.03 sec (  974.7 MFLOP/sec)
 CPU time for sorting                             0.01 sec
 CPU time for fitting                             0.03 sec (39690.7 MFLOP/sec)
 CPU time for tilde quantities                    0.05 sec (31777.9 MFLOP/sec)
 CPU time for assembly                            0.21 sec (37981.3 MFLOP/sec)
 CPU time for tranop_f12                          0.28 sec (34220.1 MFLOP/sec)
 CPU time for f12 integrals (total)               7.95 sec, Elapsed time:      8.43 sec
 CPU time for f12 matrices (total)                0.08 sec, Elapsed time:      0.10 sec

 Diagonal F12 approximation with fixed coefficients:  TSING= 0.500,  TTRIP= 0.250 (scaled by -1/beta)

 DF-MP2-F12 energy corrections:
 ==============================
 Approx.                                    Singlet             Triplet             Total
 DF-MP2-F12/3*C(DX,FIX)                -0.016284204078     -0.001139550213     -0.017423754291
 DF-MP2-F12/3*C(FIX)                   -0.015923000349     -0.001149333322     -0.017072333671
 DF-MP2-F12/3C(FIX)                    -0.015854955946     -0.001156491264     -0.017011447210

 DF-MP2-F12 correlation energies:
 ================================
 Approx.                                    Singlet             Triplet             Ecorr            Total Energy
 DF-MP2                                -0.145618544543     -0.055805758742     -0.201424303285    -40.417552448402
 DF-MP2-F12/3*C(DX,FIX)                -0.161902748621     -0.056945308955     -0.218848057576    -40.434976202693
 DF-MP2-F12/3*C(FIX)                   -0.161541544892     -0.056955092064     -0.218496636957    -40.434624782074
 DF-MP2-F12/3C(FIX)                    -0.161473500489     -0.056962250007     -0.218435750496    -40.434563895613

 SCS-DF-MP2 energies (F_SING= 1.20000  F_TRIP= 0.62222  F_PARALLEL= 0.33333):
 ============================================================================
 SCS-DF-MP2                            -0.209465836669    -40.425593981786
 SCS-DF-MP2-F12/3*C(DX,FIX)            -0.229715935029    -40.445844080146
 SCS-DF-MP2-F12/3*C(FIX)               -0.229288577822    -40.445416722939
 SCS-DF-MP2-F12/3C(FIX)                -0.229211378369    -40.445339523486
 Symmetry transformation completed.

 Number of N-1 electron functions:               4
 Number of N-2 electron functions:              10
 Number of singly external CSFs:               836
 Number of doubly external CSFs:            349866
 Total number of CSFs:                      350703

 Length of J-op  integral file:              53.89 MB
 Length of K-op  integral file:              87.81 MB
 Length of 3-ext integral record:             0.00 MB

 Memory could be reduced to 60.96 Mwords without degradation in triples

 Integral transformation finished. Total CPU:   5.54 sec, npass=  1  Memory used:  26.32 MW

 Reference energy:                    -40.21612815

 Adding F12 terms to K(Cij), methodcc=6,  factor= 1.0

 ITER.      SQ.NORM     CORR.ENERGY   TOTAL ENERGY   ENERGY CHANGE        DEN1      VAR(S)    VAR(P)  DIIS     TIME  TIME/IT
   1      1.06960644    -0.21652669   -40.43265484    -0.01506777    -0.00954231  0.62D-03  0.94D-03  1  1    20.35     3.93
   2      1.07446096    -0.21734289   -40.43347103    -0.00081619    -0.00516238  0.14D-04  0.90D-04  2  2    24.25     4.10
   3      1.07598294    -0.21745429   -40.43358244    -0.00011141    -0.00108999  0.20D-05  0.57D-05  3  3    28.17     4.15
   4      1.07635231    -0.21746881   -40.43359695    -0.00001451    -0.00020090  0.13D-06  0.31D-06  4  4    32.07     4.17
   5      1.07640422    -0.21746844   -40.43359659     0.00000036    -0.00000934  0.77D-08  0.15D-07  5  5    36.00     4.19
   6      1.07641052    -0.21746719   -40.43359534     0.00000125    -0.00000293  0.33D-09  0.90D-09  6  6    39.92     4.26
   7      1.07641128    -0.21746711   -40.43359526     0.00000008    -0.00000043  0.23D-10  0.76D-10  6  1    43.81     4.26
   8      1.07641137    -0.21746714   -40.43359528    -0.00000003     0.00000001  0.30D-11  0.65D-11  6  2    47.71     4.26
   9      1.07641137    -0.21746715   -40.43359529    -0.00000001     0.00000003  0.22D-12  0.37D-12  6  3    51.63     4.26
  10      1.07641137    -0.21746715   -40.43359529    -0.00000000     0.00000001  0.25D-13  0.35D-13  6  4    55.54     4.26

 Norm of t1 vector:      0.03261138      S-energy:    -0.00000000      T1 diagnostic:  0.00815285
                                                                       D1 diagnostic:  0.01307333

 Adding energy correction from Wij-K(Fij), methodcc=6  factor= 1.0
 
  CCSD correlation energy              -0.217467146116
  MP2-F12 correction (uncoupled)       -0.016712165571
  C*T doubles correction               -0.000290584656
  f12b correction                       0.003524976318


 Total CPU time for triples:     21.78 sec

  Ecorr(MP2)                           -0.201458920439
  Ecorr(MP2-F12)                       -0.218470367649
  Scale factor for triples energy       1.084441270574


 RESULTS
 =======

  Reference energy                    -40.215492216003
  F12 singles correction               -0.000635929114

 F12 singles corrections added to reference energy

  New reference energy                -40.216128145117

  F12a singlet correction              -0.015858762782
  F12a triplet correction              -0.001143987445
  F12a total correction                -0.017002750227

 F12a corrections for ansatz F12/3C(FIX) added to CCSD energy
 
  CCSD-F12a singlet pair energy        -0.179253317515
  CCSD-F12a triplet pair energy        -0.055216578378
  CCSD-F12a correlation energy         -0.234469896343

  Triples (T) contribution (scaled)    -0.006988906116
  Total correlation energy             -0.241458802459

  CCSD-F12a total energy              -40.450598041460
  CCSD[T]-F12a energy                 -40.457828397483
  CCSD-T-F12a energy                  -40.457513581483
 !CCSD(T)-F12a total energy           -40.457586947576

 F12b corrections for ansatz F12/3C(FIX) added to CCSD(T)-F12a energy

  CCSD-F12b singlet pair energy        -0.175883101627
  CCSD-F12b triplet pair energy        -0.055061817948
  CCSD-F12b correlation energy         -0.230944920025

  Triples (T) contribution (scaled)    -0.006988906116
  Total correlation energy             -0.237933826141

  CCSD-F12b total energy              -40.447073065142
  CCSD[T]-F12b energy                 -40.454303421165
  CCSD-T-F12b energy                  -40.453988605165
 !CCSD(T)-F12b total energy           -40.454061971258

 Timing summary (sec):

 STEP                 CPU(USER)    SYS     CPU(TOT)    WALL
 Transformation          5.58      0.63      6.21     10.72
 CCSD iterations        38.92      3.44     42.36     42.75
 Triples                21.78      0.35     22.13     22.17
 MP2-F12                11.06      0.46     11.52     30.90
 F12b energy             3.38      0.30      3.68      3.70

 Program statistics:

 Available memory in ccsd:              2999999786
 Min. memory needed in ccsd:               1609972
 Max. memory used in ccsd:                 1864434
 Max. memory used in cckext:               1252381 (11 integral passes)



 **********************************************************************************************************************************
 DATASETS  * FILE   NREC   LENGTH (MB)   RECORD NAMES
              1      20     2035.25       500      610      700      900      950      970     1000      129      960     1100   
                                          VAR    BASINP    GEOM    SYMINP    ZMAT    AOBASIS   BASIS     P2S    ABASIS      S 
                                         1400     1410     1200     1210     1080     1600     1650     1300     1700     1380   
                                           T        V       H0       H01     AOSYM     SMH    MOLCAS    ERIS     OPER     JKOP   

              2       7        8.14       700     1000      520     2100     7360     7350     2101   
                                         GEOM     BASIS   MCVARS     RHF    F12ABS    EF12      RHF  

 PROGRAMS   *        TOTAL   CCSD(T)        HF       INT   CCSD(T)        HF       INT
 CPU TIMES  *       422.78     80.75     20.46      0.06    280.78     24.79     15.79
 REAL TIME  *       520.18 SEC
 DISK USED  *         5.17 GB      
 **********************************************************************************************************************************
 SETTING E_F12_A(1)     =       -40.45758695  AU                              
 SETTING E_F12_A(2)     =       -40.45406197  AU                              

 Dummy atoms: C1  H1  H2  H3  H4


 Recomputing one-electron integrals since nuclear charges changed


 PROGRAM * SEWARD (Integral evaluation for generally contracted gaussian basis sets)     Author: Roland Lindh, 1990

 Geometry written to block  1 of record 700


 Point group  C1  



 ATOMIC COORDINATES

 NR  ATOM    CHARGE       X              Y              Z

   1  C1      0.00   -6.193010455    2.801518980    2.403542658
   2  H1      0.00   -4.656285171    1.699997622    3.119937832
   3  H2      0.00   -5.973046335    4.726205038    2.982932688
   4  H3      0.00   -7.940251230    2.077186956    3.118237078
   5  H4      0.00   -6.176569838    2.685300823    0.384937212
   6  O1      8.00   -4.613766333    5.431639800   -4.129996445
   7  H5      1.00   -5.898213180    6.513508006   -3.364279420
   8  H6      1.00   -5.466221788    3.814790128   -4.412888446

 Bond lengths in Bohr (Angstrom)

 1-2  2.021904040  1-3  2.022002335  1-4  2.021953343  1-5  2.022015060  6-7  1.845688241
     ( 1.069945541)     ( 1.069997556)     ( 1.069971630)     ( 1.070004290)     ( 0.976696155)

 6-8  1.849570504
     ( 0.978750561)

 Bond angles

  2-1-3  109.53398059   2-1-4  109.65604535   2-1-5  108.43490854   3-1-4  109.49436728

  3-1-5  109.86987750   4-1-5  109.83468330   7-6-8  104.78050181

 NUCLEAR CHARGE:                   10
 NUMBER OF PRIMITIVE AOS:         270
 NUMBER OF SYMMETRY AOS:          246
 NUMBER OF CONTRACTIONS:          214   ( 214A   )
 NUMBER OF CORE ORBITALS:           1   (   1A   )
 NUMBER OF VALENCE ORBITALS:        6   (   6A   )

 MOLECULE CHANGED: INITIALIZING OCCUPATION AND DUMP RECORDS


 NUCLEAR REPULSION ENERGY    9.00136291


 Eigenvalues of metric

         1 0.736E-04 0.203E-03 0.292E-03 0.319E-03 0.336E-03 0.453E-03 0.542E-03 0.556E-03


 Contracted 2-electron integrals neglected if value below      1.0D-19

 OPERATOR DM      FOR CENTER  0  COORDINATES:    0.000000    0.000000    0.000000


 **********************************************************************************************************************************
 DATASETS  * FILE   NREC   LENGTH (MB)   RECORD NAMES
              1      19     1882.25       500      610      700      900      950      970     1000      129      960     1100   
                                          VAR    BASINP    GEOM    SYMINP    ZMAT    AOBASIS   BASIS     P2S    ABASIS      S 
                                         1400     1410     1200     1210     1080     1600     1650     1300     1700   
                                           T        V       H0       H01     AOSYM     SMH    MOLCAS    ERIS     OPER   

              2       7        8.14       700     1000      520     2100     7360     7350     2101   
                                         GEOM     BASIS   MCVARS     RHF    F12ABS    EF12      RHF  

 PROGRAMS   *        TOTAL       INT   CCSD(T)        HF       INT   CCSD(T)        HF       INT
 CPU TIMES  *       422.86      0.06     80.75     20.46      0.06    280.78     24.79     15.79
 REAL TIME  *       520.44 SEC
 DISK USED  *         5.17 GB      
 **********************************************************************************************************************************


 PROGRAM * RHF-SCF (CLOSED SHELL)       Authors: W. Meyer, H.-J. Werner


 NUMBER OF ELECTRONS:       5+    5-    SPACE SYMMETRY=1    SPIN SYMMETRY: Singlet 
 CONVERGENCE THRESHOLDS:    1.00E-04 (Density)    1.00E-09 (Energy)
 MAX. NUMBER OF ITERATIONS:       60
 INTERPOLATION TYPE:            DIIS
 INTERPOLATION STEPS:              2 (START)      1 (STEP)
 LEVEL SHIFTS:                  0.00 (CLOSED)  0.00 (OPEN) 



 Orbital guess generated from atomic densities. Full valence occupancy:    7

 Molecular orbital dump at record        2102.2

 Initial occupancy:   5

 ITERATION    DDIFF          GRAD             ENERGY        2-EL.EN.            DIPOLE MOMENTS         DIIS   ORB.
    1      0.000D+00      0.000D+00       -76.02448514     77.404171   -1.09552   -0.27505    0.24764    0    start
    2      0.000D+00      0.672D-02       -76.05132916     73.757248   -0.63876   -0.15945    0.14425    1    diag
    3      0.465D-02      0.427D-02       -76.06287267     75.377692   -0.75257   -0.18819    0.17015    2    diag
    4      0.163D-02      0.401D-03       -76.06306729     75.285122   -0.74803   -0.18692    0.16915    3    diag
    5      0.231D-03      0.112D-03       -76.06308828     75.299758   -0.74638   -0.18647    0.16881    4    diag
    6      0.811D-04      0.223D-04       -76.06308964     75.298694   -0.74598   -0.18635    0.16873    5    diag
    7      0.237D-04      0.452D-05       -76.06308971     75.298846   -0.74585   -0.18632    0.16870    6    diag
    8      0.555D-05      0.864D-06       -76.06308971     75.298833   -0.74581   -0.18631    0.16869    7    diag
    9      0.986D-06      0.114D-06       -76.06308971     75.298824   -0.74581   -0.18631    0.16869    8    diag
   10      0.183D-06      0.248D-07       -76.06308971     75.298829   -0.74581   -0.18631    0.16869    0    orth

 Final occupancy:   5

 !RHF STATE 1.1 Energy                -76.063089710670
 Nuclear energy                         9.00136291
 One-electron energy                 -122.71386702
 Two-electron energy                   37.64941440
 Virial quotient                       -1.00193283
 !RHF STATE 1.1 Dipole moment          -0.74580678    -0.18630564     0.16868968
 Dipole moment /Debye                  -1.89552760    -0.47351070     0.42873831

 Orbital energies:

         1.1          2.1          3.1          4.1          5.1          6.1          7.1
    -20.568347    -1.342454    -0.707322    -0.580592    -0.508804     0.037421     0.063164

 HOMO      5.1    -0.508804 =     -13.8453eV
 LUMO      6.1     0.037421 =       1.0183eV
 LUMO-HOMO         0.546225 =      14.8635eV


 **********************************************************************************************************************************
 DATASETS  * FILE   NREC   LENGTH (MB)   RECORD NAMES
              1      19     1882.25       500      610      700      900      950      970     1000      129      960     1100   
                                          VAR    BASINP    GEOM    SYMINP    ZMAT    AOBASIS   BASIS     P2S    ABASIS      S 
                                         1400     1410     1200     1210     1080     1600     1650     1300     1700   
                                           T        V       H0       H01     AOSYM     SMH    MOLCAS    ERIS     OPER   

              2       8       12.47       700     1000      520     2100     7360     7350     2101     2102   
                                         GEOM     BASIS   MCVARS     RHF    F12ABS    EF12      RHF      RHF  

 PROGRAMS   *        TOTAL        HF       INT   CCSD(T)        HF       INT   CCSD(T)        HF       INT
 CPU TIMES  *       447.81     24.95      0.06     80.75     20.46      0.06    280.78     24.79     15.79
 REAL TIME  *       550.45 SEC
 DISK USED  *         5.17 GB      
 **********************************************************************************************************************************
 SETTING E_HF_B         =       -76.06308971  AU                              


 PROGRAM * CCSD (Closed-shell coupled cluster)     Authors: C. Hampel, H.-J. Werner, 1991, M. Deegan, P.J. Knowles, 1992

                                  CCSD-F12 implementation by  H.-J. Werner, 2007

                   Density fitting integral evaluation by F.R. Manby, 2003,2007, G. Knizia, 2010

 Basis set CC-PVTZ/JKFIT generated.      Number of basis functions:   338 
 Basis set CC-PVTZ-F12/OPTRI generated.  Number of basis functions:   396 
 Basis set AUG-CC-PVTZ/MP2FIT generated. Number of basis functions:   488 

 Convergence thresholds:  THRVAR = 1.00D-08  THRDEN = 1.00D-08

 CCSD(T)     terms to be evaluated (factor= 1.000)


 Number of core orbitals:           1 (   1 )
 Number of closed-shell orbitals:   4 (   4 )
 Number of external orbitals:     209 ( 209 )

 Molecular orbitals read from record     2102.2  Type=RHF/CANONICAL (state 1.1)

 MP2-F12 correlation treatment (H.-J. Werner, 2006)
 ==================================================

 Using MP2-F12 with ansatz 3C(FIX)

 Using projected zeroth-order Hamiltonian (+Z)

 FOCKRIB=T FOCKRIC=T FOCKRIP=T CABSP=T CABSA=T CABSK=T CABSF=T GBC=F EBC=F DMAT=T NOFIK=T NOPAO=1 SOLVE=-1  USEPAO=0
 EXCH_A= T EXCH_B= F EXCH_C= F EXCH_P= F
 
 Geminal basis:    OPTFULL  GEM_TYPE=SLATER  BETA=1.0  NGEM=6

 Optimizing Gaussian exponents for each gem_beta

 Geminal optimization for beta= 1.0000
 Weight function:   m=0, omega= 1.4646

 Augmented Hessian optimization of geminal fit. Trust ratio= 0.40000
 Convergence reached after   2 iterations. Final gradient= 8.26D-16, Step= 4.26D-06, Delta= 1.28D-09
 
 Alpha:                 0.19532     0.81920     2.85917     9.50073    35.69989   197.79328
 Coeff:                 0.27070     0.30552     0.18297     0.10986     0.06810     0.04224
 

 All pairs explicitly correlated. Number of r12-pairs:           10

 Excluding core orbitals from MO domains
 
 AO(A)-basis ORBITAL           loaded. Number of functions:     214
 RI(R)-basis CC-PVTZ-F12/OPTRI loaded. Number of functions:     396
 DF-basis CC-PVTZ/JKFIT        loaded. Number of functions:     338

 Screening thresholds:   THRAO=  1.00D-10  THRMO=  1.00D-09  THRPROD=  1.00D-09
                         THRSW=  1.00D-05  THROV=  1.00D-12  THRAOF12=   1.00D-08

 CPU time for Fock operators                      2.74 sec
 
 Construction of ABS:
 Smallest eigenvalue of S          3.51E-04  (threshold= 1.00E-08)
 Ratio eigmin/eigmax               4.51E-05  (threshold= 1.00E-09)
 Smallest eigenvalue of S kept     3.51E-04  (threshold= 3.51E-04, 0 functions deleted, 396 kept)
 
 Construction of CABS:
 Smallest eigenvalue of S          8.02E-07  (threshold= 1.00E-08)
 Ratio eigmin/eigmax               8.02E-07  (threshold= 1.00E-09)
 Smallest eigenvalue of S kept     8.02E-07  (threshold= 8.02E-07, 0 functions deleted, 396 kept)
 
 CPU time for CABS singles                        0.11 sec

 CABS-singles contribution of  -0.00097212 patched into reference energy.
 New reference energy         -76.06406183
 
 AO(A)-basis ORBITAL           loaded. Number of functions:     214
 RI(R)-basis CC-PVTZ-F12/OPTRI loaded. Number of functions:     396
 DF-basis AUG-CC-PVTZ/MP2FIT   loaded. Number of functions:     488

 Screening thresholds:   THRAO=  1.00D-10  THRMO=  1.00D-09  THRPROD=  1.00D-09
                         THRSW=  1.00D-05  THROV=  1.00D-12  THRAOF12=   1.00D-08

 CPU time for 3-index integral evaluation         6.24 sec
 CPU time for first  half transformation          0.63 sec ( 4087.1 MFLOP/sec)
 CPU time for second half transformation          0.03 sec (  974.7 MFLOP/sec)
 CPU time for sorting                             0.01 sec
 CPU time for fitting                             0.04 sec (29768.0 MFLOP/sec)
 CPU time for tilde quantities                    0.04 sec (39722.4 MFLOP/sec)
 CPU time for assembly                            0.22 sec (36254.9 MFLOP/sec)
 CPU time for tranop_f12                          0.26 sec (36852.4 MFLOP/sec)
 CPU time for f12 integrals (total)               7.95 sec, Elapsed time:      8.49 sec
 CPU time for f12 matrices (total)                0.08 sec, Elapsed time:      0.10 sec

 Diagonal F12 approximation with fixed coefficients:  TSING= 0.500,  TTRIP= 0.250 (scaled by -1/beta)

 DF-MP2-F12 energy corrections:
 ==============================
 Approx.                                    Singlet             Triplet             Total
 DF-MP2-F12/3*C(DX,FIX)                -0.025111740184     -0.002996625519     -0.028108365703
 DF-MP2-F12/3*C(FIX)                   -0.023337941177     -0.002710242528     -0.026048183705
 DF-MP2-F12/3C(FIX)                    -0.023267034754     -0.002807702302     -0.026074737056

 DF-MP2-F12 correlation energies:
 ================================
 Approx.                                    Singlet             Triplet             Ecorr            Total Energy
 DF-MP2                                -0.174922307578     -0.099755573301     -0.274677880879    -76.338739712983
 DF-MP2-F12/3*C(DX,FIX)                -0.200034047761     -0.102752198820     -0.302786246581    -76.366848078686
 DF-MP2-F12/3*C(FIX)                   -0.198260248755     -0.102465815829     -0.300726064584    -76.364787896689
 DF-MP2-F12/3C(FIX)                    -0.198189342331     -0.102563275603     -0.300752617934    -76.364814450039

 SCS-DF-MP2 energies (F_SING= 1.20000  F_TRIP= 0.62222  F_PARALLEL= 0.33333):
 ============================================================================
 SCS-DF-MP2                            -0.271976903592    -76.336038735696
 SCS-DF-MP2-F12/3*C(DX,FIX)            -0.303975558802    -76.368037390906
 SCS-DF-MP2-F12/3*C(FIX)               -0.301668806133    -76.365730638237
 SCS-DF-MP2-F12/3C(FIX)                -0.301644360062    -76.365706192166
 Symmetry transformation completed.

 Number of N-1 electron functions:               4
 Number of N-2 electron functions:              10
 Number of singly external CSFs:               836
 Number of doubly external CSFs:            349866
 Total number of CSFs:                      350703

 Length of J-op  integral file:              53.89 MB
 Length of K-op  integral file:              87.81 MB
 Length of 3-ext integral record:             0.00 MB

 Memory could be reduced to 60.96 Mwords without degradation in triples

 Integral transformation finished. Total CPU:   5.52 sec, npass=  1  Memory used:  26.32 MW

 Reference energy:                    -76.06406183

 Adding F12 terms to K(Cij), methodcc=6,  factor= 1.0

 ITER.      SQ.NORM     CORR.ENERGY   TOTAL ENERGY   ENERGY CHANGE        DEN1      VAR(S)    VAR(P)  DIIS     TIME  TIME/IT
   1      1.06266210    -0.27480384   -76.33886567    -0.00008615     0.00590819  0.77D-03  0.10D-02  1  1    20.31     4.14
   2      1.06606337    -0.27455465   -76.33861648     0.00024920    -0.00468526  0.14D-04  0.11D-03  2  2    24.21     4.20
   3      1.06728296    -0.27468982   -76.33875165    -0.00013517    -0.00082206  0.95D-05  0.73D-05  3  3    28.10     4.32
   4      1.06784402    -0.27471220   -76.33877403    -0.00002238    -0.00036368  0.48D-06  0.61D-06  4  4    31.98     4.30
   5      1.06794112    -0.27471068   -76.33877252     0.00000151    -0.00002236  0.15D-06  0.44D-07  5  5    35.85     4.29
   6      1.06796878    -0.27470927   -76.33877110     0.00000141    -0.00000417  0.16D-07  0.44D-08  6  6    39.78     4.29
   7      1.06797671    -0.27470884   -76.33877067     0.00000043    -0.00000174  0.13D-08  0.61D-09  6  1    43.65     4.28
   8      1.06797839    -0.27470884   -76.33877067     0.00000000    -0.00000013  0.20D-09  0.73D-10  6  2    47.52     4.28
   9      1.06797896    -0.27470884   -76.33877068    -0.00000001     0.00000005  0.17D-10  0.93D-11  6  3    51.41     4.28

 Norm of t1 vector:      0.03649547      S-energy:    -0.00000005      T1 diagnostic:  0.00912387
                                                                       D1 diagnostic:  0.01842952

 Adding energy correction from Wij-K(Fij), methodcc=6  factor= 1.0
 
  CCSD correlation energy              -0.274708844408
  MP2-F12 correction (uncoupled)       -0.024955974785
  C*T doubles correction               -0.000833040267
  f12b correction                       0.004277632130

 Total CPU time for triples:     21.76 sec

  Ecorr(MP2)                           -0.274717697085
  Ecorr(MP2-F12)                       -0.300792434140
  Scale factor for triples energy       1.094914660877


 RESULTS
 =======

  Reference energy                    -76.063089710670
  F12 singles correction               -0.000972121435

 F12 singles corrections added to reference energy

  New reference energy                -76.064061832104

  F12a singlet correction              -0.023088257350
  F12a triplet correction              -0.002700757702
  F12a total correction                -0.025789015052

 F12a corrections for ansatz F12/3C(FIX) added to CCSD energy
 
  CCSD-F12a singlet pair energy        -0.209637214796
  CCSD-F12a triplet pair energy        -0.090860592390
  CCSD-F12a correlation energy         -0.300497859460

  Triples (T) contribution (scaled)    -0.009775086714
  Total correlation energy             -0.310272946174

  CCSD-F12a total energy              -76.364559691565
  CCSD[T]-F12a energy                 -76.374673877524
  CCSD-T-F12a energy                  -76.374186861991
 !CCSD(T)-F12a total energy           -76.374334778279

 F12b corrections for ansatz F12/3C(FIX) added to CCSD(T)-F12a energy

  CCSD-F12b singlet pair energy        -0.205669683067
  CCSD-F12b triplet pair energy        -0.090550491990
  CCSD-F12b correlation energy         -0.296220227331

  Triples (T) contribution (scaled)    -0.009775086714
  Total correlation energy             -0.305995314045

  CCSD-F12b total energy              -76.360282059435
  CCSD[T]-F12b energy                 -76.370396245395
  CCSD-T-F12b energy                  -76.369909229861
 !CCSD(T)-F12b total energy           -76.370057146149

 Timing summary (sec):

 STEP                 CPU(USER)    SYS     CPU(TOT)    WALL
 Transformation          5.55      0.65      6.20      6.32
 CCSD iterations        34.82      3.27     38.09     38.61
 Triples                21.76      0.34     22.10     22.15
 MP2-F12                11.04      0.48     11.52     12.22
 F12b energy             3.38      0.30      3.68      3.69

 Program statistics:

 Available memory in ccsd:              2999999786
 Min. memory needed in ccsd:               1609972
 Max. memory used in ccsd:                 1864434
 Max. memory used in cckext:               1252381 (10 integral passes)



 **********************************************************************************************************************************
 DATASETS  * FILE   NREC   LENGTH (MB)   RECORD NAMES
              1      20     2035.25       500      610      700      900      950      970     1000      129      960     1100   
                                          VAR    BASINP    GEOM    SYMINP    ZMAT    AOBASIS   BASIS     P2S    ABASIS      S 
                                         1400     1410     1200     1210     1080     1600     1650     1300     1700     1380   
                                           T        V       H0       H01     AOSYM     SMH    MOLCAS    ERIS     OPER     JKOP   

              2       8       12.47       700     1000      520     2100     7360     7350     2101     2102   
                                         GEOM     BASIS   MCVARS     RHF    F12ABS    EF12      RHF      RHF  

 PROGRAMS   *        TOTAL   CCSD(T)        HF       INT   CCSD(T)        HF       INT   CCSD(T)        HF       INT
 CPU TIMES  *       524.41     76.58     24.95      0.06     80.75     20.46      0.06    280.78     24.79     15.79
 REAL TIME  *       633.67 SEC
 DISK USED  *         5.17 GB      
 **********************************************************************************************************************************
 SETTING E_F12_B(1)     =       -76.37433478  AU                              
 SETTING E_F12_B(2)     =       -76.37005715  AU                              
 SETTING E_INT_HF       =         0.00076975  AU                              
 SETTING E_INT_F12(1)   =        -0.00025784  AU                              
 SETTING E_INT_F12(2)   =        -0.00024783  AU                              
 E_INT_HF         =         0.00076975 AU
 E_INT_F12(1:2)   = [      -0.00025784    -0.00024783] AU

 CCSD(T)-F12/cc-pVTZ-F12 energy=    -76.370057146149

     CCSD(T)-F12        HF-SCF       CCSD(T)-F12        HF-SCF       CCSD(T)-F12        HF-SCF  
    -76.37005715    -76.06308971    -40.45406197    -40.21549222   -116.82436695   -116.27781218
 **********************************************************************************************************************************
 Molpro calculation terminated
 Variable memory released
