
 Primary working directories    : /net/scratch/people/plgsirous
 Secondary working directories  : /net/scratch/people/plgsirous
 Wavefunction directory         : /net/people/plgsirous/wfu/
 Main file repository           : /net/scratch/people/plgsirous/

 SHA1      : 
 NAME      : 
 ARCHNAME  : linux/x86_64
 FC        : /net/software/local/intel/impi/2018.1.163/bin64/mpiifort
 BLASLIB   : -L/net/software/local/intel/compilers_and_libraries_2018.1.163/linux/mkl/lib/intel64 -lmkl_scalapack_ilp64 -lmkl_intel_ilp64 -lmkl_intel_thread -lmkl_core -lmkl_blacs_intelmpi_ilp64 -liomp5 -lpthread -lm -ldl
 id        : pl

 Nodes     nprocs
 p1431        1

 Using customized tuning parameters: mindgm=7; mindgv=20; mindgc=1; mindgr=1; noblas=0; minvec=7
 default implementation of scratch files=df  

 memory,3000,m
 zsymel=nosym
 angstrom
 geometry={
 C1        -3.2772    1.4825     1.2719
 H1        -2.4640    0.8996     1.6510
 H2        -3.1608    2.5010     1.5785
 H3        -4.2018    1.0992     1.6501
 H4        -3.2685    1.4210     0.2037
 O1        -3.5189    -2.4195     0.9913
 H5        -3.3889    -3.3718     0.8933
 H6        -2.9907    -2.0102     0.2310
 }
 basis=vtz-f12
 gthresh,orbital=1d-8,energy=1d-8,twoint=1.d-19
 
 
 nkerna=1
 nkernb=1
 nkernab=$nkerna+$nkernb
 
                                                                                 ! AB Dimer
 {hf,accu=1.d-8}
 E_HF_AB=energy
 core,$nkernab
 {ccsd(t)-f12,scale_trip=1,THRF12=1.d-12}
 E_F12_AB=energy
 
                                                                                 ! Monomer A Part
 
 dummy,6,7,8;
 {hf,accu=1.d-8}
 E_HF_A=energy
 core,$nkerna
 {ccsd(t)-f12,scale_trip=1,THRF12=1.d-12}
 E_F12_A=energy
 
                                                                                 ! Monomer B Part
 
 dummy,1,2,3,4,5;
 {hf,accu=1.d-8}
 E_HF_B=energy
 core,$nkernb
 {ccsd(t)-f12,scale_trip=1,THRF12=1.d-12}
 E_F12_B=energy
 
 E_int_HF = E_HF_AB-(E_HF_A+E_HF_B)
 E_int_F12 = E_F12_AB-(E_F12_A+E_F12_B)
 
 
 show,E_int_HF,E_int_F12

 Variables initialized (889), CPU time= 0.01 sec
 Commands  initialized (702), CPU time= 0.00 sec, 572 directives.
 Default parameters read. Elapsed time= 0.06 sec

 Checking input...
 Passed
1


                                         ***  PROGRAM SYSTEM MOLPRO  ***
                                       Copyright, TTI GmbH Stuttgart, 2015
                                    Version 2015.1 linked Jul  2 2018 15:03:07


 **********************************************************************************************************************************
 LABEL *                                                                                 
  64 bit serial version                                                                  DATE: 17-Jan-19          TIME: 14:53:16  
 **********************************************************************************************************************************

 SHA1:             
 **********************************************************************************************************************************
 SETTING ZSYMEL         =    NOSYM
 ZSYMEL=NOSYM
 ZUNIT=ANG
 

Geometry recognized as XYZ


 Variable memory set to 3000000000 words,  buffer space   230000 words

 SETTING BASIS          =    VTZ-F12

 THRESHOLDS:

 ZERO    =  1.00D-12  ONEINT  =  1.00D-12  TWOINT  =  1.00D-19  PREFAC  =  1.00D-14  LOCALI  =  1.00D-09  EORDER  =  1.00D-04
 ENERGY  =  1.00D-08  ETEST   =  0.00D+00  EDENS   =  0.00D+00  THRDEDEF=  1.00D-06  GRADIENT=  1.00D-02  STEP    =  1.00D-03
 ORBITAL =  1.00D-08  CIVEC   =  1.00D-05  COEFF   =  1.00D-04  PRINTCI =  5.00D-02  PUNCHCI =  9.90D+01  OPTGRAD =  3.00D-04
 OPTENERG=  1.00D-06  OPTSTEP =  3.00D-04  THRGRAD =  1.00D-10  COMPRESS=  1.00D-11  VARMIN  =  1.00D-07  VARMAX  =  1.00D-03
 THRDOUB =  0.00D+00  THRDIV  =  1.00D-05  THRRED  =  1.00D-07  THRPSP  =  1.00D+00  THRDC   =  1.00D-10  THRCS   =  1.00D-10
 THRNRM  =  1.00D-08  THREQ   =  0.00D+00  THRDE   =  1.00D+00  THRREF  =  1.00D-05  SPARFAC =  1.00D+00  THRDLP  =  1.00D-07
 THRDIA  =  1.00D-10  THRDLS  =  1.00D-07  THRGPS  =  0.00D+00  THRKEX  =  0.00D+00  THRDIS  =  2.00D-01  THRVAR  =  1.00D-10
 THRLOC  =  1.00D-06  THRGAP  =  1.00D-06  THRLOCT = -1.00D+00  THRGAPT = -1.00D+00  THRORB  =  1.00D-06  THRMLTP =  0.00D+00
 THRCPQCI=  1.00D-10  KEXTA   =  0.00D+00  THRCOARS=  0.00D+00  SYMTOL  =  1.00D-06  GRADTOL =  1.00D-06  THROVL  =  1.00D-08
 THRORTH =  1.00D-08  GRID    =  1.00D-06  GRIDMAX =  1.00D-03  DTMAX   =  0.00D+00  THROCCDE=  1.00D-01  THROCCDE=  1.00D-01


 SETTING NKERNA         =         1.00000000                                  
 SETTING NKERNB         =         1.00000000                                  
 SETTING NKERNAB        =         2.00000000                                  


 Recomputing integrals since basis changed


 Using spherical harmonics

 Library entry C      S cc-pVTZ-F12          selected for orbital group  1
 Library entry C      P cc-pVTZ-F12          selected for orbital group  1
 Library entry C      D cc-pVTZ-F12          selected for orbital group  1
 Library entry C      F cc-pVTZ-F12          selected for orbital group  1
 Library entry H      S cc-pVTZ-F12          selected for orbital group  2
 Library entry H      P cc-pVTZ-F12          selected for orbital group  2
 Library entry H      D cc-pVTZ-F12          selected for orbital group  2
 Library entry O      S cc-pVTZ-F12          selected for orbital group  3
 Library entry O      P cc-pVTZ-F12          selected for orbital group  3
 Library entry O      D cc-pVTZ-F12          selected for orbital group  3
 Library entry O      F cc-pVTZ-F12          selected for orbital group  3


 PROGRAM * SEWARD (Integral evaluation for generally contracted gaussian basis sets)     Author: Roland Lindh, 1990

 Geometry written to block  1 of record 700


 Point group  C1  



 ATOMIC COORDINATES

 NR  ATOM    CHARGE       X              Y              Z

   1  C1      6.00   -6.193010455    2.801518980    2.403542658
   2  H1      1.00   -4.656285171    1.699997622    3.119937832
   3  H2      1.00   -5.973046335    4.726205038    2.982932688
   4  H3      1.00   -7.940251230    2.077186956    3.118237078
   5  H4      1.00   -6.176569838    2.685300823    0.384937212
   6  O1      8.00   -6.649757260   -4.572192358    1.873285507
   7  H5      1.00   -6.404092864   -6.371778547    1.688092347
   8  H6      1.00   -5.651603921   -3.798727456    0.436526735

 Bond lengths in Bohr (Angstrom)

 1-2  2.021904040  1-3  2.022002335  1-4  2.021953343  1-5  2.022015060  6-7  1.825693827
     ( 1.069945541)     ( 1.069997556)     ( 1.069971630)     ( 1.070004290)     ( 0.966115568)

 6-8  1.912807835
     ( 1.012214315)

 Bond angles

  2-1-3  109.53398059   2-1-4  109.65604535   2-1-5  108.43490854   3-1-4  109.49436728

  3-1-5  109.86987750   4-1-5  109.83468330   7-6-8  104.60595341

 NUCLEAR CHARGE:                   20
 NUMBER OF PRIMITIVE AOS:         270
 NUMBER OF SYMMETRY AOS:          246
 NUMBER OF CONTRACTIONS:          214   ( 214A   )
 NUMBER OF CORE ORBITALS:           2   (   2A   )
 NUMBER OF VALENCE ORBITALS:       14   (  14A   )


 NUCLEAR REPULSION ENERGY   35.88176990


 Eigenvalues of metric

         1 0.721E-04 0.192E-03 0.279E-03 0.331E-03 0.333E-03 0.446E-03 0.548E-03 0.563E-03


 Contracted 2-electron integrals neglected if value below      1.0D-19
 AO integral compression algorithm  1   Integral accuracy      1.0D-19

     2007.761 MB (compressed) written to integral file ( 82.4%)


 NUMBER OF SORTED TWO-ELECTRON INTEGRALS:  264626515.     BUFFER LENGTH:  32768
 NUMBER OF SEGMENTS:  17  SEGMENT LENGTH:   15999762      RECORD LENGTH: 524288

 Memory used in sort:      16.56 MW

 SORT1 READ   304635709. AND WROTE   242990562. INTEGRALS IN    705 RECORDS. CPU TIME:     3.30 SEC, REAL TIME:     7.08 SEC
 SORT2 READ   242990562. AND WROTE   264626515. INTEGRALS IN   7659 RECORDS. CPU TIME:     3.23 SEC, REAL TIME:     7.53 SEC

 FILE SIZES:   FILE 1:  2029.5 MBYTE,  FILE 4:  2957.0 MBYTE,   TOTAL:   4986.5 MBYTE

 OPERATOR DM      FOR CENTER  0  COORDINATES:    0.000000    0.000000    0.000000


 **********************************************************************************************************************************
 DATASETS  * FILE   NREC   LENGTH (MB)   RECORD NAMES
              1      19     1780.70       500      610      700      900      950      970     1000      129      960     1100   
                                          VAR    BASINP    GEOM    SYMINP    ZMAT    AOBASIS   BASIS     P2S    ABASIS      S 
                                         1400     1410     1200     1210     1080     1600     1650     1300     1700   
                                           T        V       H0       H01     AOSYM     SMH    MOLCAS    ERIS     OPER   

 PROGRAMS   *        TOTAL       INT
 CPU TIMES  *        15.85     15.72
 REAL TIME  *        29.16 SEC
 DISK USED  *         4.99 GB      
 **********************************************************************************************************************************


 PROGRAM * RHF-SCF (CLOSED SHELL)       Authors: W. Meyer, H.-J. Werner


 NUMBER OF ELECTRONS:      10+   10-    SPACE SYMMETRY=1    SPIN SYMMETRY: Singlet 
 CONVERGENCE THRESHOLDS:    1.00E-04 (Density)    1.00E-09 (Energy)
 MAX. NUMBER OF ITERATIONS:       60
 INTERPOLATION TYPE:            DIIS
 INTERPOLATION STEPS:              2 (START)      1 (STEP)
 LEVEL SHIFTS:                  0.00 (CLOSED)  0.00 (OPEN) 



 Orbital guess generated from atomic densities. Full valence occupancy:   16

 Molecular orbital dump at record        2100.2

 Initial occupancy:  10

 ITERATION    DDIFF          GRAD             ENERGY        2-EL.EN.            DIPOLE MOMENTS         DIIS   ORB.
    1      0.000D+00      0.000D+00      -116.21667763    157.526268    0.64633   -0.51609   -0.84003    0    start
    2      0.000D+00      0.549D-02      -116.26095958    152.447883    0.34391   -0.33229   -0.44830    1    diag
    3      0.562D-02      0.327D-02      -116.27504746    154.561794    0.42093   -0.38202   -0.54621    2    diag
    4      0.185D-02      0.481D-03      -116.27571713    154.446910    0.41420   -0.37920   -0.53650    3    diag
    5      0.416D-03      0.143D-03      -116.27578907    154.442006    0.41343   -0.38008   -0.53532    4    diag
    6      0.156D-03      0.347D-04      -116.27579314    154.447621    0.41282   -0.38008   -0.53445    5    diag
    7      0.399D-04      0.724D-05      -116.27579341    154.445890    0.41278   -0.38017   -0.53438    6    diag
    8      0.106D-04      0.191D-05      -116.27579343    154.446084    0.41271   -0.38019   -0.53429    7    diag
    9      0.303D-05      0.433D-06      -116.27579343    154.446056    0.41269   -0.38018   -0.53427    8    diag
   10      0.641D-06      0.496D-07      -116.27579343    154.446056    0.41269   -0.38018   -0.53427    9    orth
   11      0.124D-06      0.118D-07      -116.27579343    154.446059    0.41269   -0.38018   -0.53427    0    orth

 Final occupancy:  10

 !RHF STATE 1.1 Energy               -116.275793430314
 Nuclear energy                        35.88176990
 One-electron energy                 -229.38059278
 Two-electron energy                   77.22302945
 Virial quotient                       -1.00097079
 !RHF STATE 1.1 Dipole moment           0.41269310    -0.38018329    -0.53426756
 Dipole moment /Debye                   1.04889253    -0.96626624    -1.35788376

 Orbital energies:

         1.1          2.1          3.1          4.1          5.1          6.1          7.1          8.1          9.1         10.1
    -20.569956   -11.191499    -1.337273    -0.945986    -0.700927    -0.578415    -0.547759    -0.544447    -0.543240    -0.507765

        11.1         12.1
      0.055606     0.068056

 HOMO     10.1    -0.507765 =     -13.8170eV
 LUMO     11.1     0.055606 =       1.5131eV
 LUMO-HOMO         0.563372 =      15.3301eV


 **********************************************************************************************************************************
 DATASETS  * FILE   NREC   LENGTH (MB)   RECORD NAMES
              1      19     1780.70       500      610      700      900      950      970     1000      129      960     1100   
                                          VAR    BASINP    GEOM    SYMINP    ZMAT    AOBASIS   BASIS     P2S    ABASIS      S 
                                         1400     1410     1200     1210     1080     1600     1650     1300     1700   
                                           T        V       H0       H01     AOSYM     SMH    MOLCAS    ERIS     OPER   

              2       4        3.81       700     1000      520     2100   
                                         GEOM     BASIS   MCVARS     RHF  

 PROGRAMS   *        TOTAL        HF       INT
 CPU TIMES  *        43.94     28.09     15.72
 REAL TIME  *        81.07 SEC
 DISK USED  *         4.99 GB      
 **********************************************************************************************************************************
 SETTING E_HF_AB        =      -116.27579343  AU                              


 PROGRAM * CCSD (Closed-shell coupled cluster)     Authors: C. Hampel, H.-J. Werner, 1991, M. Deegan, P.J. Knowles, 1992

                                  CCSD-F12 implementation by  H.-J. Werner, 2007

                   Density fitting integral evaluation by F.R. Manby, 2003,2007, G. Knizia, 2010

 Basis set CC-PVTZ/JKFIT generated.      Number of basis functions:   338 
 Basis set CC-PVTZ-F12/OPTRI generated.  Number of basis functions:   396 
 Basis set AUG-CC-PVTZ/MP2FIT generated. Number of basis functions:   488 

 Convergence thresholds:  THRVAR = 1.00D-08  THRDEN = 1.00D-08

 CCSD(T)     terms to be evaluated (factor= 1.000)


 Number of core orbitals:           2 (   2 )
 Number of closed-shell orbitals:   8 (   8 )
 Number of external orbitals:     204 ( 204 )

 Molecular orbitals read from record     2100.2  Type=RHF/CANONICAL (state 1.1)

 MP2-F12 correlation treatment (H.-J. Werner, 2006)
 ==================================================

 Using MP2-F12 with ansatz 3C(FIX)

 Using projected zeroth-order Hamiltonian (+Z)

 FOCKRIB=T FOCKRIC=T FOCKRIP=T CABSP=T CABSA=T CABSK=T CABSF=T GBC=F EBC=F DMAT=T NOFIK=T NOPAO=1 SOLVE=-1  USEPAO=0
 EXCH_A= T EXCH_B= F EXCH_C= F EXCH_P= F
 
 Geminal basis:    OPTFULL  GEM_TYPE=SLATER  BETA=1.0  NGEM=6

 Optimizing Gaussian exponents for each gem_beta

 Geminal optimization for beta= 1.0000
 Weight function:   m=0, omega= 1.4646

 Augmented Hessian optimization of geminal fit. Trust ratio= 0.40000
 Convergence reached after   2 iterations. Final gradient= 8.26D-16, Step= 4.26D-06, Delta= 1.28D-09
 
 Alpha:                 0.19532     0.81920     2.85917     9.50073    35.69989   197.79328
 Coeff:                 0.27070     0.30552     0.18297     0.10986     0.06810     0.04224
 

 All pairs explicitly correlated. Number of r12-pairs:           36

 Excluding core orbitals from MO domains
 
 AO(A)-basis ORBITAL           loaded. Number of functions:     214
 RI(R)-basis CC-PVTZ-F12/OPTRI loaded. Number of functions:     396
 DF-basis CC-PVTZ/JKFIT        loaded. Number of functions:     338

 Screening thresholds:   THRAO=  1.00D-10  THRMO=  1.00D-09  THRPROD=  1.00D-09
                         THRSW=  1.00D-05  THROV=  1.00D-12  THRAOF12=   1.00D-08

 CPU time for Fock operators                      2.78 sec
 
 Construction of ABS:
 Smallest eigenvalue of S          4.12E-04  (threshold= 1.00E-08)
 Ratio eigmin/eigmax               5.30E-05  (threshold= 1.00E-09)
 Smallest eigenvalue of S kept     4.12E-04  (threshold= 4.12E-04, 0 functions deleted, 396 kept)
 
 Construction of CABS:
 Smallest eigenvalue of S          8.30E-07  (threshold= 1.00E-08)
 Ratio eigmin/eigmax               8.30E-07  (threshold= 1.00E-09)
 Smallest eigenvalue of S kept     8.30E-07  (threshold= 8.30E-07, 0 functions deleted, 396 kept)
 
 CPU time for CABS singles                        0.11 sec

 CABS-singles contribution of  -0.00158766 patched into reference energy.
 New reference energy        -116.27738109
 
 AO(A)-basis ORBITAL           loaded. Number of functions:     214
 RI(R)-basis CC-PVTZ-F12/OPTRI loaded. Number of functions:     396
 DF-basis AUG-CC-PVTZ/MP2FIT   loaded. Number of functions:     488

 Screening thresholds:   THRAO=  1.00D-10  THRMO=  1.00D-09  THRPROD=  1.00D-09
                         THRSW=  1.00D-05  THROV=  1.00D-12  THRAOF12=   1.00D-08

 CPU time for 3-index integral evaluation         5.81 sec
 CPU time for first  half transformation          0.45 sec (11443.9 MFLOP/sec)
 CPU time for second half transformation          0.01 sec (11696.4 MFLOP/sec)
 CPU time for sorting                             0.03 sec
 CPU time for fitting                             0.08 sec (30482.4 MFLOP/sec)
 CPU time for tilde quantities                    0.08 sec (40198.7 MFLOP/sec)
 CPU time for assembly                            0.83 sec (36070.5 MFLOP/sec)
 CPU time for tranop_f12                          1.08 sec (35862.7 MFLOP/sec)
 CPU time for f12 integrals (total)               9.79 sec, Elapsed time:     11.65 sec
 CPU time for f12 matrices (total)                0.33 sec, Elapsed time:      0.44 sec

 Diagonal F12 approximation with fixed coefficients:  TSING= 0.500,  TTRIP= 0.250 (scaled by -1/beta)

 DF-MP2-F12 energy corrections:
 ==============================
 Approx.                                    Singlet             Triplet             Total
 DF-MP2-F12/3*C(DX,FIX)                -0.041380503184     -0.004139243241     -0.045519746425
 DF-MP2-F12/3*C(FIX)                   -0.039265003908     -0.003870810799     -0.043135814707
 DF-MP2-F12/3C(FIX)                    -0.039123146743     -0.003976745786     -0.043099892529

 DF-MP2-F12 correlation energies:
 ================================
 Approx.                                    Singlet             Triplet             Ecorr            Total Energy
 DF-MP2                                -0.321260566616     -0.156221050721     -0.477481617337   -116.754862708253
 DF-MP2-F12/3*C(DX,FIX)                -0.362641069801     -0.160360293962     -0.523001363762   -116.800382454678
 DF-MP2-F12/3*C(FIX)                   -0.360525570524     -0.160091861520     -0.520617432044   -116.797998522960
 DF-MP2-F12/3C(FIX)                    -0.360383713359     -0.160197796507     -0.520581509866   -116.797962600781

 SCS-DF-MP2 energies (F_SING= 1.20000  F_TRIP= 0.62222  F_PARALLEL= 0.33333):
 ============================================================================
 SCS-DF-MP2                            -0.482716889277   -116.760097980192
 SCS-DF-MP2-F12/3*C(DX,FIX)            -0.534949022226   -116.812330113141
 SCS-DF-MP2-F12/3*C(FIX)               -0.532243398464   -116.809624489379
 SCS-DF-MP2-F12/3C(FIX)                -0.532139084969   -116.809520175884
 Symmetry transformation completed.

 Number of N-1 electron functions:               8
 Number of N-2 electron functions:              36
 Number of singly external CSFs:              1632
 Number of doubly external CSFs:           1332528
 Total number of CSFs:                     1334161

 Length of J-op  integral file:             205.73 MB
 Length of K-op  integral file:             258.78 MB
 Length of 3-ext integral record:             0.00 MB

 Memory could be reduced to 93.27 Mwords without degradation in triples

 Integral transformation finished. Total CPU:   9.35 sec, npass=  1  Memory used:  48.07 MW

 Reference energy:                   -116.27738109

 Adding F12 terms to K(Cij), methodcc=6,  factor= 1.0

 ITER.      SQ.NORM     CORR.ENERGY   TOTAL ENERGY   ENERGY CHANGE        DEN1      VAR(S)    VAR(P)  DIIS     TIME  TIME/IT
   1      1.13318931    -0.49255687  -116.76993796    -0.01499823    -0.00333322  0.14D-02  0.20D-02  1  1    31.22     9.64
   2      1.14127784    -0.49312559  -116.77050668    -0.00056872    -0.00968403  0.30D-04  0.24D-03  2  2    39.87     9.42
   3      1.14435933    -0.49338658  -116.77076767    -0.00026099    -0.00217757  0.12D-04  0.14D-04  3  3    48.58     9.37
   4      1.14536611    -0.49342036  -116.77080145    -0.00003378    -0.00062226  0.63D-06  0.11D-05  4  4    57.26     9.33
   5      1.14552969    -0.49341955  -116.77080064     0.00000081    -0.00003123  0.17D-06  0.65D-07  5  5    65.96     9.31
   6      1.14556500    -0.49341733  -116.77079842     0.00000222    -0.00000687  0.15D-07  0.71D-08  6  6    74.66     9.28
   7      1.14557311    -0.49341665  -116.77079774     0.00000068    -0.00000235  0.22D-08  0.62D-09  6  2    83.37     9.26
   8      1.14557602    -0.49341652  -116.77079761     0.00000013    -0.00000057  0.19D-09  0.64D-10  6  1    92.05     9.25
   9      1.14557664    -0.49341653  -116.77079762    -0.00000001    -0.00000001  0.16D-10  0.12D-10  6  3   100.73     9.23
  10      1.14557673    -0.49341654  -116.77079763    -0.00000001     0.00000009  0.23D-11  0.14D-11  6  4   109.42     9.22
  11      1.14557670    -0.49341655  -116.77079764    -0.00000000     0.00000007  0.37D-12  0.17D-12  6  5   118.10     9.22
  12      1.14557667    -0.49341655  -116.77079764    -0.00000000     0.00000002  0.74D-13  0.20D-13  6  6   126.79     9.21

 Norm of t1 vector:      0.04969595      S-energy:     0.00000001      T1 diagnostic:  0.00878509
                                                                       D1 diagnostic:  0.01886883

 Adding energy correction from Wij-K(Fij), methodcc=6  factor= 1.0
 
  CCSD correlation energy              -0.493416545822
  MP2-F12 correction (uncoupled)       -0.041676879135
  C*T doubles correction               -0.001127316136
  f12b correction                       0.007817502070


 Total CPU time for triples:    153.10 sec

  Ecorr(MP2)                           -0.477558642712
  Ecorr(MP2-F12)                       -0.520658535241
  Scale factor for triples energy       1.090250471197


 RESULTS
 =======

  Reference energy                   -116.275793430313
  F12 singles correction               -0.001587660602

 F12 singles corrections added to reference energy

  New reference energy               -116.277381090915

  F12a singlet correction              -0.038947787224
  F12a triplet correction              -0.003856408047
  F12a total correction                -0.042804195271

 F12a corrections for ansatz F12/3C(FIX) added to CCSD energy
 
  CCSD-F12a singlet pair energy        -0.389710422961
  CCSD-F12a triplet pair energy        -0.146510324785
  CCSD-F12a correlation energy         -0.536220741094

  Triples (T) contribution (scaled)    -0.016966442714
  Total correlation energy             -0.553187183808

  CCSD-F12a total energy             -116.813601832009
  CCSD[T]-F12a energy                -116.831160802508
  CCSD-T-F12a energy                 -116.830340433096
 !CCSD(T)-F12a total energy          -116.830568274723

 F12b corrections for ansatz F12/3C(FIX) added to CCSD(T)-F12a energy

  CCSD-F12b singlet pair energy        -0.382358557067
  CCSD-F12b triplet pair energy        -0.146044688610
  CCSD-F12b correlation energy         -0.528403239024

  Triples (T) contribution (scaled)    -0.016966442714
  Total correlation energy             -0.545369681738

  CCSD-F12b total energy             -116.805784329939
  CCSD[T]-F12b energy                -116.823343300438
  CCSD-T-F12b energy                 -116.822522931027
 !CCSD(T)-F12b total energy          -116.822750772653

 Timing summary (sec):

 STEP                 CPU(USER)    SYS     CPU(TOT)    WALL
 Transformation          9.47      1.15     10.62     36.69
 CCSD iterations       104.11      6.13    110.24    110.78
 Triples               153.10      2.58    155.68    155.73
 MP2-F12                13.21      1.68     14.89     21.29
 F12b energy             6.92      0.30      7.22      7.23

 Program statistics:

 Available memory in ccsd:              2999999464
 Min. memory needed in ccsd:               3963025
 Max. memory used in ccsd:                 5096465
 Max. memory used in cckext:               3666031 (13 integral passes)



 **********************************************************************************************************************************
 DATASETS  * FILE   NREC   LENGTH (MB)   RECORD NAMES
              1      20     2074.25       500      610      700      900      950      970     1000      129      960     1100   
                                          VAR    BASINP    GEOM    SYMINP    ZMAT    AOBASIS   BASIS     P2S    ABASIS      S 
                                         1400     1410     1200     1210     1080     1600     1650     1300     1700     1380   
                                           T        V       H0       H01     AOSYM     SMH    MOLCAS    ERIS     OPER     JKOP   

              2       6        4.74       700     1000      520     2100     7360     7350   
                                         GEOM     BASIS   MCVARS     RHF    F12ABS    EF12   

 PROGRAMS   *        TOTAL   CCSD(T)        HF       INT
 CPU TIMES  *       330.80    286.85     28.09     15.72
 REAL TIME  *       412.94 SEC
 DISK USED  *         4.99 GB      
 **********************************************************************************************************************************
 SETTING E_F12_AB(1)    =      -116.83056827  AU                              
 SETTING E_F12_AB(2)    =      -116.82275077  AU                              

 Dummy atoms: O1  H5  H6


 Recomputing one-electron integrals since nuclear charges changed


 PROGRAM * SEWARD (Integral evaluation for generally contracted gaussian basis sets)     Author: Roland Lindh, 1990

 Geometry written to block  1 of record 700


 Point group  C1  



 ATOMIC COORDINATES

 NR  ATOM    CHARGE       X              Y              Z

   1  C1      6.00   -6.193010455    2.801518980    2.403542658
   2  H1      1.00   -4.656285171    1.699997622    3.119937832
   3  H2      1.00   -5.973046335    4.726205038    2.982932688
   4  H3      1.00   -7.940251230    2.077186956    3.118237078
   5  H4      1.00   -6.176569838    2.685300823    0.384937212
   6  O1      0.00   -6.649757260   -4.572192358    1.873285507
   7  H5      0.00   -6.404092864   -6.371778547    1.688092347
   8  H6      0.00   -5.651603921   -3.798727456    0.436526735

 Bond lengths in Bohr (Angstrom)

 1-2  2.021904040  1-3  2.022002335  1-4  2.021953343  1-5  2.022015060  6-7  1.825693827
     ( 1.069945541)     ( 1.069997556)     ( 1.069971630)     ( 1.070004290)     ( 0.966115568)

 6-8  1.912807835
     ( 1.012214315)

 Bond angles

  2-1-3  109.53398059   2-1-4  109.65604535   2-1-5  108.43490854   3-1-4  109.49436728

  3-1-5  109.86987750   4-1-5  109.83468330   7-6-8  104.60595341

 NUCLEAR CHARGE:                   10
 NUMBER OF PRIMITIVE AOS:         270
 NUMBER OF SYMMETRY AOS:          246
 NUMBER OF CONTRACTIONS:          214   ( 214A   )
 NUMBER OF CORE ORBITALS:           1   (   1A   )
 NUMBER OF VALENCE ORBITALS:        8   (   8A   )

 MOLECULE CHANGED: INITIALIZING OCCUPATION AND DUMP RECORDS


 NUCLEAR REPULSION ENERGY   13.68681606


 Eigenvalues of metric

         1 0.721E-04 0.192E-03 0.279E-03 0.331E-03 0.333E-03 0.446E-03 0.548E-03 0.563E-03


 Contracted 2-electron integrals neglected if value below      1.0D-19

 OPERATOR DM      FOR CENTER  0  COORDINATES:    0.000000    0.000000    0.000000


 **********************************************************************************************************************************
 DATASETS  * FILE   NREC   LENGTH (MB)   RECORD NAMES
              1      19     1780.70       500      610      700      900      950      970     1000      129      960     1100   
                                          VAR    BASINP    GEOM    SYMINP    ZMAT    AOBASIS   BASIS     P2S    ABASIS      S 
                                         1400     1410     1200     1210     1080     1600     1650     1300     1700   
                                           T        V       H0       H01     AOSYM     SMH    MOLCAS    ERIS     OPER   

              2       6        4.74       700     1000      520     2100     7360     7350   
                                         GEOM     BASIS   MCVARS     RHF    F12ABS    EF12   

 PROGRAMS   *        TOTAL       INT   CCSD(T)        HF       INT
 CPU TIMES  *       330.86      0.06    286.85     28.09     15.72
 REAL TIME  *       413.20 SEC
 DISK USED  *         4.99 GB      
 **********************************************************************************************************************************


 PROGRAM * RHF-SCF (CLOSED SHELL)       Authors: W. Meyer, H.-J. Werner


 NUMBER OF ELECTRONS:       5+    5-    SPACE SYMMETRY=1    SPIN SYMMETRY: Singlet 
 CONVERGENCE THRESHOLDS:    1.00E-04 (Density)    1.00E-09 (Energy)
 MAX. NUMBER OF ITERATIONS:       60
 INTERPOLATION TYPE:            DIIS
 INTERPOLATION STEPS:              2 (START)      1 (STEP)
 LEVEL SHIFTS:                  0.00 (CLOSED)  0.00 (OPEN) 



 Orbital guess generated from atomic densities. Full valence occupancy:    9

 Molecular orbital dump at record        2101.2

 Initial occupancy:   5

 ITERATION    DDIFF          GRAD             ENERGY        2-EL.EN.            DIPOLE MOMENTS         DIIS   ORB.
    1      0.000D+00      0.000D+00       -40.19565500     53.501361    0.00411   -0.00278   -0.00127    0    start
    2      0.000D+00      0.368D-02       -40.21290017     52.216645    0.00129   -0.00087   -0.00034    1    diag
    3      0.319D-02      0.143D-02       -40.21516906     52.670303    0.00182   -0.00123   -0.00050    2    diag
    4      0.855D-03      0.357D-03       -40.21548731     52.615356    0.00162   -0.00108   -0.00043    3    diag
    5      0.324D-03      0.463D-04       -40.21549279     52.617510    0.00159   -0.00106   -0.00041    4    diag
    6      0.554D-04      0.375D-05       -40.21549283     52.617655    0.00159   -0.00106   -0.00041    5    diag
    7      0.864D-05      0.302D-06       -40.21549283     52.617615    0.00159   -0.00106   -0.00041    6    diag
    8      0.100D-05      0.227D-07       -40.21549283     52.617616    0.00159   -0.00106   -0.00041    0    orth

 Final occupancy:   5

 !RHF STATE 1.1 Energy                -40.215492826687
 Nuclear energy                        13.68681606
 One-electron energy                  -80.21111708
 Two-electron energy                   26.30880820
 Virial quotient                       -0.99832373
 !RHF STATE 1.1 Dipole moment           0.00158817    -0.00105771    -0.00041277
 Dipole moment /Debye                   0.00403646    -0.00268825    -0.00104909

 Orbital energies:

         1.1          2.1          3.1          4.1          5.1          6.1          7.1
    -11.196272    -0.950712    -0.551938    -0.550005    -0.547823     0.050691     0.065847

 HOMO      5.1    -0.547823 =     -14.9070eV
 LUMO      6.1     0.050691 =       1.3794eV
 LUMO-HOMO         0.598514 =      16.2864eV


 **********************************************************************************************************************************
 DATASETS  * FILE   NREC   LENGTH (MB)   RECORD NAMES
              1      19     1780.70       500      610      700      900      950      970     1000      129      960     1100   
                                          VAR    BASINP    GEOM    SYMINP    ZMAT    AOBASIS   BASIS     P2S    ABASIS      S 
                                         1400     1410     1200     1210     1080     1600     1650     1300     1700   
                                           T        V       H0       H01     AOSYM     SMH    MOLCAS    ERIS     OPER   

              2       7        8.14       700     1000      520     2100     7360     7350     2101   
                                         GEOM     BASIS   MCVARS     RHF    F12ABS    EF12      RHF  

 PROGRAMS   *        TOTAL        HF       INT   CCSD(T)        HF       INT
 CPU TIMES  *       351.89     21.03      0.06    286.85     28.09     15.72
 REAL TIME  *       437.09 SEC
 DISK USED  *         4.99 GB      
 **********************************************************************************************************************************
 SETTING E_HF_A         =       -40.21549283  AU                              


 PROGRAM * CCSD (Closed-shell coupled cluster)     Authors: C. Hampel, H.-J. Werner, 1991, M. Deegan, P.J. Knowles, 1992

                                  CCSD-F12 implementation by  H.-J. Werner, 2007

                   Density fitting integral evaluation by F.R. Manby, 2003,2007, G. Knizia, 2010

 Basis set CC-PVTZ/JKFIT generated.      Number of basis functions:   338 
 Basis set CC-PVTZ-F12/OPTRI generated.  Number of basis functions:   396 
 Basis set AUG-CC-PVTZ/MP2FIT generated. Number of basis functions:   488 

 Convergence thresholds:  THRVAR = 1.00D-08  THRDEN = 1.00D-08

 CCSD(T)     terms to be evaluated (factor= 1.000)


 Number of core orbitals:           1 (   1 )
 Number of closed-shell orbitals:   4 (   4 )
 Number of external orbitals:     209 ( 209 )

 Molecular orbitals read from record     2101.2  Type=RHF/CANONICAL (state 1.1)

 MP2-F12 correlation treatment (H.-J. Werner, 2006)
 ==================================================

 Using MP2-F12 with ansatz 3C(FIX)

 Using projected zeroth-order Hamiltonian (+Z)

 FOCKRIB=T FOCKRIC=T FOCKRIP=T CABSP=T CABSA=T CABSK=T CABSF=T GBC=F EBC=F DMAT=T NOFIK=T NOPAO=1 SOLVE=-1  USEPAO=0
 EXCH_A= T EXCH_B= F EXCH_C= F EXCH_P= F
 
 Geminal basis:    OPTFULL  GEM_TYPE=SLATER  BETA=1.0  NGEM=6

 Optimizing Gaussian exponents for each gem_beta

 Geminal optimization for beta= 1.0000
 Weight function:   m=0, omega= 1.4646

 Augmented Hessian optimization of geminal fit. Trust ratio= 0.40000
 Convergence reached after   2 iterations. Final gradient= 8.26D-16, Step= 4.26D-06, Delta= 1.28D-09
 
 Alpha:                 0.19532     0.81920     2.85917     9.50073    35.69989   197.79328
 Coeff:                 0.27070     0.30552     0.18297     0.10986     0.06810     0.04224
 

 All pairs explicitly correlated. Number of r12-pairs:           10

 Excluding core orbitals from MO domains
 
 AO(A)-basis ORBITAL           loaded. Number of functions:     214
 RI(R)-basis CC-PVTZ-F12/OPTRI loaded. Number of functions:     396
 DF-basis CC-PVTZ/JKFIT        loaded. Number of functions:     338

 Screening thresholds:   THRAO=  1.00D-10  THRMO=  1.00D-09  THRPROD=  1.00D-09
                         THRSW=  1.00D-05  THROV=  1.00D-12  THRAOF12=   1.00D-08

 CPU time for Fock operators                      2.67 sec
 
 Construction of ABS:
 Smallest eigenvalue of S          4.12E-04  (threshold= 1.00E-08)
 Ratio eigmin/eigmax               5.30E-05  (threshold= 1.00E-09)
 Smallest eigenvalue of S kept     4.12E-04  (threshold= 4.12E-04, 0 functions deleted, 396 kept)
 
 Construction of CABS:
 Smallest eigenvalue of S          8.30E-07  (threshold= 1.00E-08)
 Ratio eigmin/eigmax               8.30E-07  (threshold= 1.00E-09)
 Smallest eigenvalue of S kept     8.30E-07  (threshold= 8.30E-07, 0 functions deleted, 396 kept)
 
 CPU time for CABS singles                        0.11 sec

 CABS-singles contribution of  -0.00063539 patched into reference energy.
 New reference energy         -40.21612822
 
 AO(A)-basis ORBITAL           loaded. Number of functions:     214
 RI(R)-basis CC-PVTZ-F12/OPTRI loaded. Number of functions:     396
 DF-basis AUG-CC-PVTZ/MP2FIT   loaded. Number of functions:     488

 Screening thresholds:   THRAO=  1.00D-10  THRMO=  1.00D-09  THRPROD=  1.00D-09
                         THRSW=  1.00D-05  THROV=  1.00D-12  THRAOF12=   1.00D-08

 CPU time for 3-index integral evaluation         5.82 sec
 CPU time for first  half transformation          0.39 sec ( 6602.2 MFLOP/sec)
 CPU time for second half transformation          0.03 sec (  974.7 MFLOP/sec)
 CPU time for fitting                             0.05 sec (23814.4 MFLOP/sec)
 CPU time for tilde quantities                    0.04 sec (39722.4 MFLOP/sec)
 CPU time for assembly                            0.20 sec (39880.4 MFLOP/sec)
 CPU time for tranop_f12                          0.25 sec (38326.5 MFLOP/sec)
 CPU time for f12 integrals (total)               7.24 sec, Elapsed time:      7.70 sec
 CPU time for f12 matrices (total)                0.07 sec, Elapsed time:      0.10 sec

 Diagonal F12 approximation with fixed coefficients:  TSING= 0.500,  TTRIP= 0.250 (scaled by -1/beta)

 DF-MP2-F12 energy corrections:
 ==============================
 Approx.                                    Singlet             Triplet             Total
 DF-MP2-F12/3*C(DX,FIX)                -0.016292827257     -0.001140626991     -0.017433454248
 DF-MP2-F12/3*C(FIX)                   -0.015932533137     -0.001150596019     -0.017083129157
 DF-MP2-F12/3C(FIX)                    -0.015863213953     -0.001157593312     -0.017020807265

 DF-MP2-F12 correlation energies:
 ================================
 Approx.                                    Singlet             Triplet             Ecorr            Total Energy
 DF-MP2                                -0.145609398511     -0.055803842727     -0.201413241238    -40.417541458324
 DF-MP2-F12/3*C(DX,FIX)                -0.161902225768     -0.056944469718     -0.218846695485    -40.434974912572
 DF-MP2-F12/3*C(FIX)                   -0.161541931648     -0.056954438746     -0.218496370394    -40.434624587481
 DF-MP2-F12/3C(FIX)                    -0.161472612464     -0.056961436039     -0.218434048503    -40.434562265589

 SCS-DF-MP2 energies (F_SING= 1.20000  F_TRIP= 0.62222  F_PARALLEL= 0.33333):
 ============================================================================
 SCS-DF-MP2                            -0.209453669243    -40.425581886330
 SCS-DF-MP2-F12/3*C(DX,FIX)            -0.229714785412    -40.445843002499
 SCS-DF-MP2-F12/3*C(FIX)               -0.229288635420    -40.445416852507
 SCS-DF-MP2-F12/3C(FIX)                -0.229209806269    -40.445338023356
 Symmetry transformation completed.

 Number of N-1 electron functions:               4
 Number of N-2 electron functions:              10
 Number of singly external CSFs:               836
 Number of doubly external CSFs:            349866
 Total number of CSFs:                      350703

 Length of J-op  integral file:              53.89 MB
 Length of K-op  integral file:              87.81 MB
 Length of 3-ext integral record:             0.00 MB

 Memory could be reduced to 60.96 Mwords without degradation in triples

 Integral transformation finished. Total CPU:   5.63 sec, npass=  1  Memory used:  26.32 MW

 Reference energy:                    -40.21612822

 Adding F12 terms to K(Cij), methodcc=6,  factor= 1.0

 ITER.      SQ.NORM     CORR.ENERGY   TOTAL ENERGY   ENERGY CHANGE        DEN1      VAR(S)    VAR(P)  DIIS     TIME  TIME/IT
   1      1.06960409    -0.21651555   -40.43264376    -0.01506750    -0.00954268  0.62D-03  0.94D-03  1  1    19.61     3.90
   2      1.07445924    -0.21733205   -40.43346027    -0.00081651    -0.00516304  0.14D-04  0.90D-04  2  2    23.48     4.05
   3      1.07598043    -0.21744342   -40.43357164    -0.00011137    -0.00108918  0.20D-05  0.57D-05  3  3    27.40     4.10
   4      1.07634966    -0.21745797   -40.43358618    -0.00001455    -0.00020071  0.13D-06  0.30D-06  4  4    31.29     4.12
   5      1.07640152    -0.21745759   -40.43358581     0.00000037    -0.00000933  0.77D-08  0.15D-07  5  5    35.18     4.14
   6      1.07640783    -0.21745633   -40.43358455     0.00000126    -0.00000296  0.31D-09  0.83D-09  6  6    39.05     4.25
   7      1.07640856    -0.21745627   -40.43358449     0.00000006    -0.00000040  0.19D-10  0.61D-10  6  1    42.93     4.25
   8      1.07640859    -0.21745629   -40.43358451    -0.00000002     0.00000004  0.24D-11  0.54D-11  6  4    46.82     4.25
   9      1.07640861    -0.21745631   -40.43358452    -0.00000001     0.00000003  0.22D-12  0.29D-12  6  2    50.70     4.87
  10      1.07640862    -0.21745630   -40.43358452     0.00000000    -0.00000001  0.24D-13  0.29D-13  6  3    54.60     4.81
  11      1.07640863    -0.21745630   -40.43358452     0.00000000    -0.00000000  0.20D-14  0.28D-14  6  5    58.50     4.75

 Norm of t1 vector:      0.03261151      S-energy:     0.00000000      T1 diagnostic:  0.00815288
                                                                       D1 diagnostic:  0.01306919

 Adding energy correction from Wij-K(Fij), methodcc=6  factor= 1.0
 
  CCSD correlation energy              -0.217456300261
  MP2-F12 correction (uncoupled)       -0.016723418316
  C*T doubles correction               -0.000289652977
  f12b correction                       0.003526473185


 Total CPU time for triples:     21.68 sec

  Ecorr(MP2)                           -0.201448049015
  Ecorr(MP2-F12)                       -0.218468856280
  Scale factor for triples energy       1.084492291427


 RESULTS
 =======

  Reference energy                    -40.215492826688
  F12 singles correction               -0.000635390399

 F12 singles corrections added to reference energy

  New reference energy                -40.216128217087

  F12a singlet correction              -0.015867870072
  F12a triplet correction              -0.001145201221
  F12a total correction                -0.017013071293

 F12a corrections for ansatz F12/3C(FIX) added to CCSD energy
 
  CCSD-F12a singlet pair energy        -0.179253562729
  CCSD-F12a triplet pair energy        -0.055215810681
  CCSD-F12a correlation energy         -0.234469371554

  Triples (T) contribution (scaled)    -0.006988143499
  Total correlation energy             -0.241457515053

  CCSD-F12a total energy              -40.450597588641
  CCSD[T]-F12a energy                 -40.457827202249
  CCSD-T-F12a energy                  -40.457512355456
 !CCSD(T)-F12a total energy           -40.457585732139

 F12b corrections for ansatz F12/3C(FIX) added to CCSD(T)-F12a energy

  CCSD-F12b singlet pair energy        -0.175882016844
  CCSD-F12b triplet pair energy        -0.055060883381
  CCSD-F12b correlation energy         -0.230942898369

  Triples (T) contribution (scaled)    -0.006988143499
  Total correlation energy             -0.237931041868

  CCSD-F12b total energy              -40.447071115456
  CCSD[T]-F12b energy                 -40.454300729064
  CCSD-T-F12b energy                  -40.453985882271
 !CCSD(T)-F12b total energy           -40.454059258954

 Timing summary (sec):

 STEP                 CPU(USER)    SYS     CPU(TOT)    WALL
 Transformation          5.66      0.62      6.28     30.56
 CCSD iterations        42.58      3.44     46.02     52.36
 Triples                21.68      0.35     22.03     22.04
 MP2-F12                10.26      0.44     10.70     15.65
 F12b energy             3.39      0.28      3.67      3.67

 Program statistics:

 Available memory in ccsd:              2999999786
 Min. memory needed in ccsd:               1609972
 Max. memory used in ccsd:                 1864434
 Max. memory used in cckext:               1252381 (12 integral passes)



 **********************************************************************************************************************************
 DATASETS  * FILE   NREC   LENGTH (MB)   RECORD NAMES
              1      20     1933.70       500      610      700      900      950      970     1000      129      960     1100   
                                          VAR    BASINP    GEOM    SYMINP    ZMAT    AOBASIS   BASIS     P2S    ABASIS      S 
                                         1400     1410     1200     1210     1080     1600     1650     1300     1700     1380   
                                           T        V       H0       H01     AOSYM     SMH    MOLCAS    ERIS     OPER     JKOP   

              2       7        8.14       700     1000      520     2100     7360     7350     2101   
                                         GEOM     BASIS   MCVARS     RHF    F12ABS    EF12      RHF  

 PROGRAMS   *        TOTAL   CCSD(T)        HF       INT   CCSD(T)        HF       INT
 CPU TIMES  *       435.51     83.62     21.03      0.06    286.85     28.09     15.72
 REAL TIME  *       561.54 SEC
 DISK USED  *         4.99 GB      
 **********************************************************************************************************************************
 SETTING E_F12_A(1)     =       -40.45758573  AU                              
 SETTING E_F12_A(2)     =       -40.45405926  AU                              

 Dummy atoms: C1  H1  H2  H3  H4


 Recomputing one-electron integrals since nuclear charges changed


 PROGRAM * SEWARD (Integral evaluation for generally contracted gaussian basis sets)     Author: Roland Lindh, 1990

 Geometry written to block  1 of record 700


 Point group  C1  



 ATOMIC COORDINATES

 NR  ATOM    CHARGE       X              Y              Z

   1  C1      0.00   -6.193010455    2.801518980    2.403542658
   2  H1      0.00   -4.656285171    1.699997622    3.119937832
   3  H2      0.00   -5.973046335    4.726205038    2.982932688
   4  H3      0.00   -7.940251230    2.077186956    3.118237078
   5  H4      0.00   -6.176569838    2.685300823    0.384937212
   6  O1      8.00   -6.649757260   -4.572192358    1.873285507
   7  H5      1.00   -6.404092864   -6.371778547    1.688092347
   8  H6      1.00   -5.651603921   -3.798727456    0.436526735

 Bond lengths in Bohr (Angstrom)

 1-2  2.021904040  1-3  2.022002335  1-4  2.021953343  1-5  2.022015060  6-7  1.825693827
     ( 1.069945541)     ( 1.069997556)     ( 1.069971630)     ( 1.070004290)     ( 0.966115568)

 6-8  1.912807835
     ( 1.012214315)

 Bond angles

  2-1-3  109.53398059   2-1-4  109.65604535   2-1-5  108.43490854   3-1-4  109.49436728

  3-1-5  109.86987750   4-1-5  109.83468330   7-6-8  104.60595341

 NUCLEAR CHARGE:                   10
 NUMBER OF PRIMITIVE AOS:         270
 NUMBER OF SYMMETRY AOS:          246
 NUMBER OF CONTRACTIONS:          214   ( 214A   )
 NUMBER OF CORE ORBITALS:           1   (   1A   )
 NUMBER OF VALENCE ORBITALS:        6   (   6A   )

 MOLECULE CHANGED: INITIALIZING OCCUPATION AND DUMP RECORDS


 NUCLEAR REPULSION ENERGY    8.90222806


 Eigenvalues of metric

         1 0.721E-04 0.192E-03 0.279E-03 0.331E-03 0.333E-03 0.446E-03 0.548E-03 0.563E-03


 Contracted 2-electron integrals neglected if value below      1.0D-19

 OPERATOR DM      FOR CENTER  0  COORDINATES:    0.000000    0.000000    0.000000


 **********************************************************************************************************************************
 DATASETS  * FILE   NREC   LENGTH (MB)   RECORD NAMES
              1      19     1780.70       500      610      700      900      950      970     1000      129      960     1100   
                                          VAR    BASINP    GEOM    SYMINP    ZMAT    AOBASIS   BASIS     P2S    ABASIS      S 
                                         1400     1410     1200     1210     1080     1600     1650     1300     1700   
                                           T        V       H0       H01     AOSYM     SMH    MOLCAS    ERIS     OPER   

              2       7        8.14       700     1000      520     2100     7360     7350     2101   
                                         GEOM     BASIS   MCVARS     RHF    F12ABS    EF12      RHF  

 PROGRAMS   *        TOTAL       INT   CCSD(T)        HF       INT   CCSD(T)        HF       INT
 CPU TIMES  *       435.58      0.07     83.62     21.03      0.06    286.85     28.09     15.72
 REAL TIME  *       561.85 SEC
 DISK USED  *         4.99 GB      
 **********************************************************************************************************************************


 PROGRAM * RHF-SCF (CLOSED SHELL)       Authors: W. Meyer, H.-J. Werner


 NUMBER OF ELECTRONS:       5+    5-    SPACE SYMMETRY=1    SPIN SYMMETRY: Singlet 
 CONVERGENCE THRESHOLDS:    1.00E-04 (Density)    1.00E-09 (Energy)
 MAX. NUMBER OF ITERATIONS:       60
 INTERPOLATION TYPE:            DIIS
 INTERPOLATION STEPS:              2 (START)      1 (STEP)
 LEVEL SHIFTS:                  0.00 (CLOSED)  0.00 (OPEN) 



 Orbital guess generated from atomic densities. Full valence occupancy:    7

 Molecular orbital dump at record        2102.2

 Initial occupancy:   5

 ITERATION    DDIFF          GRAD             ENERGY        2-EL.EN.            DIPOLE MOMENTS         DIIS   ORB.
    1      0.000D+00      0.000D+00       -76.02121380     77.270128    0.64266   -0.51314   -0.83940    0    start
    2      0.000D+00      0.673D-02       -76.04814754     73.571802    0.36765   -0.30855   -0.47892    1    diag
    3      0.462D-02      0.433D-02       -76.06012207     75.222748    0.43559   -0.36236   -0.56771    2    diag
    4      0.164D-02      0.406D-03       -76.06032698     75.129588    0.43182   -0.36243   -0.56251    3    diag
    5      0.230D-03      0.117D-03       -76.06035059     75.144703    0.43034   -0.36258   -0.56046    4    diag
    6      0.818D-04      0.240D-04       -76.06035222     75.143489    0.42992   -0.36269   -0.55986    5    diag
    7      0.232D-04      0.496D-05       -76.06035230     75.143645    0.42979   -0.36271   -0.55969    6    diag
    8      0.508D-05      0.912D-06       -76.06035231     75.143629    0.42976   -0.36270   -0.55965    7    diag
    9      0.935D-06      0.125D-06       -76.06035231     75.143619    0.42976   -0.36270   -0.55964    8    diag
   10      0.161D-06      0.304D-07       -76.06035231     75.143624    0.42976   -0.36270   -0.55964    0    orth

 Final occupancy:   5

 !RHF STATE 1.1 Energy                -76.060352305159
 Nuclear energy                         8.90222806
 One-electron energy                 -122.53439240
 Two-electron energy                   37.57181203
 Virial quotient                       -1.00238883
 !RHF STATE 1.1 Dipole moment           0.42975597    -0.36270124    -0.55964198
 Dipole moment /Debye                   1.09225917    -0.92183423    -1.42237487

 Orbital energies:

         1.1          2.1          3.1          4.1          5.1          6.1          7.1
    -20.570220    -1.337495    -0.701135    -0.578507    -0.508027     0.042623     0.059263

 HOMO      5.1    -0.508027 =     -13.8241eV
 LUMO      6.1     0.042623 =       1.1598eV
 LUMO-HOMO         0.550650 =      14.9839eV


 **********************************************************************************************************************************
 DATASETS  * FILE   NREC   LENGTH (MB)   RECORD NAMES
              1      19     1780.70       500      610      700      900      950      970     1000      129      960     1100   
                                          VAR    BASINP    GEOM    SYMINP    ZMAT    AOBASIS   BASIS     P2S    ABASIS      S 
                                         1400     1410     1200     1210     1080     1600     1650     1300     1700   
                                           T        V       H0       H01     AOSYM     SMH    MOLCAS    ERIS     OPER   

              2       8       12.47       700     1000      520     2100     7360     7350     2101     2102   
                                         GEOM     BASIS   MCVARS     RHF    F12ABS    EF12      RHF      RHF  

 PROGRAMS   *        TOTAL        HF       INT   CCSD(T)        HF       INT   CCSD(T)        HF       INT
 CPU TIMES  *       461.34     25.76      0.07     83.62     21.03      0.06    286.85     28.09     15.72
 REAL TIME  *       604.71 SEC
 DISK USED  *         4.99 GB      
 **********************************************************************************************************************************
 SETTING E_HF_B         =       -76.06035231  AU                              


 PROGRAM * CCSD (Closed-shell coupled cluster)     Authors: C. Hampel, H.-J. Werner, 1991, M. Deegan, P.J. Knowles, 1992

                                  CCSD-F12 implementation by  H.-J. Werner, 2007

                   Density fitting integral evaluation by F.R. Manby, 2003,2007, G. Knizia, 2010

 Basis set CC-PVTZ/JKFIT generated.      Number of basis functions:   338 
 Basis set CC-PVTZ-F12/OPTRI generated.  Number of basis functions:   396 
 Basis set AUG-CC-PVTZ/MP2FIT generated. Number of basis functions:   488 

 Convergence thresholds:  THRVAR = 1.00D-08  THRDEN = 1.00D-08

 CCSD(T)     terms to be evaluated (factor= 1.000)


 Number of core orbitals:           1 (   1 )
 Number of closed-shell orbitals:   4 (   4 )
 Number of external orbitals:     209 ( 209 )

 Molecular orbitals read from record     2102.2  Type=RHF/CANONICAL (state 1.1)

 MP2-F12 correlation treatment (H.-J. Werner, 2006)
 ==================================================

 Using MP2-F12 with ansatz 3C(FIX)

 Using projected zeroth-order Hamiltonian (+Z)

 FOCKRIB=T FOCKRIC=T FOCKRIP=T CABSP=T CABSA=T CABSK=T CABSF=T GBC=F EBC=F DMAT=T NOFIK=T NOPAO=1 SOLVE=-1  USEPAO=0
 EXCH_A= T EXCH_B= F EXCH_C= F EXCH_P= F
 
 Geminal basis:    OPTFULL  GEM_TYPE=SLATER  BETA=1.0  NGEM=6

 Optimizing Gaussian exponents for each gem_beta

 Geminal optimization for beta= 1.0000
 Weight function:   m=0, omega= 1.4646

 Augmented Hessian optimization of geminal fit. Trust ratio= 0.40000
 Convergence reached after   2 iterations. Final gradient= 8.26D-16, Step= 4.26D-06, Delta= 1.28D-09
 
 Alpha:                 0.19532     0.81920     2.85917     9.50073    35.69989   197.79328
 Coeff:                 0.27070     0.30552     0.18297     0.10986     0.06810     0.04224
 

 All pairs explicitly correlated. Number of r12-pairs:           10

 Excluding core orbitals from MO domains
 
 AO(A)-basis ORBITAL           loaded. Number of functions:     214
 RI(R)-basis CC-PVTZ-F12/OPTRI loaded. Number of functions:     396
 DF-basis CC-PVTZ/JKFIT        loaded. Number of functions:     338

 Screening thresholds:   THRAO=  1.00D-10  THRMO=  1.00D-09  THRPROD=  1.00D-09
                         THRSW=  1.00D-05  THROV=  1.00D-12  THRAOF12=   1.00D-08

 CPU time for Fock operators                      2.66 sec
 
 Construction of ABS:
 Smallest eigenvalue of S          4.12E-04  (threshold= 1.00E-08)
 Ratio eigmin/eigmax               5.30E-05  (threshold= 1.00E-09)
 Smallest eigenvalue of S kept     4.12E-04  (threshold= 4.12E-04, 0 functions deleted, 396 kept)
 
 Construction of CABS:
 Smallest eigenvalue of S          8.30E-07  (threshold= 1.00E-08)
 Ratio eigmin/eigmax               8.30E-07  (threshold= 1.00E-09)
 Smallest eigenvalue of S kept     8.30E-07  (threshold= 8.30E-07, 0 functions deleted, 396 kept)
 
 CPU time for CABS singles                        0.11 sec

 CABS-singles contribution of  -0.00095193 patched into reference energy.
 New reference energy         -76.06130423
 
 AO(A)-basis ORBITAL           loaded. Number of functions:     214
 RI(R)-basis CC-PVTZ-F12/OPTRI loaded. Number of functions:     396
 DF-basis AUG-CC-PVTZ/MP2FIT   loaded. Number of functions:     488

 Screening thresholds:   THRAO=  1.00D-10  THRMO=  1.00D-09  THRPROD=  1.00D-09
                         THRSW=  1.00D-05  THROV=  1.00D-12  THRAOF12=   1.00D-08

 CPU time for 3-index integral evaluation         5.82 sec
 CPU time for first  half transformation          0.36 sec ( 7152.4 MFLOP/sec)
 CPU time for sorting                             0.03 sec
 CPU time for fitting                             0.04 sec (29768.0 MFLOP/sec)
 CPU time for tilde quantities                    0.04 sec (39722.4 MFLOP/sec)
 CPU time for assembly                            0.22 sec (36254.9 MFLOP/sec)
 CPU time for tranop_f12                          0.27 sec (35487.5 MFLOP/sec)
 CPU time for f12 integrals (total)               7.25 sec, Elapsed time:      7.73 sec
 CPU time for f12 matrices (total)                0.08 sec, Elapsed time:      0.10 sec

 Diagonal F12 approximation with fixed coefficients:  TSING= 0.500,  TTRIP= 0.250 (scaled by -1/beta)

 DF-MP2-F12 energy corrections:
 ==============================
 Approx.                                    Singlet             Triplet             Total
 DF-MP2-F12/3*C(DX,FIX)                -0.025077389141     -0.002989381206     -0.028066770347
 DF-MP2-F12/3*C(FIX)                   -0.023321463797     -0.002706620465     -0.026028084262
 DF-MP2-F12/3C(FIX)                    -0.023247407470     -0.002803100894     -0.026050508363

 DF-MP2-F12 correlation energies:
 ================================
 Approx.                                    Singlet             Triplet             Ecorr            Total Energy
 DF-MP2                                -0.175522426362     -0.100047410750     -0.275569837112    -76.336874067712
 DF-MP2-F12/3*C(DX,FIX)                -0.200599815503     -0.103036791956     -0.303636607459    -76.364940838059
 DF-MP2-F12/3*C(FIX)                   -0.198843890159     -0.102754031215     -0.301597921373    -76.362902151974
 DF-MP2-F12/3C(FIX)                    -0.198769833831     -0.102850511644     -0.301620345475    -76.362924576076

 SCS-DF-MP2 energies (F_SING= 1.20000  F_TRIP= 0.62222  F_PARALLEL= 0.33333):
 ============================================================================
 SCS-DF-MP2                            -0.272878633879    -76.334182864479
 SCS-DF-MP2-F12/3*C(DX,FIX)            -0.304831560265    -76.366135790866
 SCS-DF-MP2-F12/3*C(FIX)               -0.302548509835    -76.363852740435
 SCS-DF-MP2-F12/3C(FIX)                -0.302519674509    -76.363823905110
 Symmetry transformation completed.

 Number of N-1 electron functions:               4
 Number of N-2 electron functions:              10
 Number of singly external CSFs:               836
 Number of doubly external CSFs:            349866
 Total number of CSFs:                      350703

 Length of J-op  integral file:              53.89 MB
 Length of K-op  integral file:              87.81 MB
 Length of 3-ext integral record:             0.00 MB

 Memory could be reduced to 60.96 Mwords without degradation in triples

 Integral transformation finished. Total CPU:   5.63 sec, npass=  1  Memory used:  26.32 MW

 Reference energy:                    -76.06130423

 Adding F12 terms to K(Cij), methodcc=6,  factor= 1.0

 ITER.      SQ.NORM     CORR.ENERGY   TOTAL ENERGY   ENERGY CHANGE        DEN1      VAR(S)    VAR(P)  DIIS     TIME  TIME/IT
   1      1.06340587    -0.27559201   -76.33689624     0.00002012     0.00615707  0.80D-03  0.11D-02  1  1    19.62     3.94
   2      1.06692958    -0.27534812   -76.33665235     0.00024390    -0.00479161  0.15D-04  0.12D-03  2  2    23.51     4.07
   3      1.06821643    -0.27549064   -76.33679487    -0.00014252    -0.00085396  0.97D-05  0.78D-05  3  3    27.39     4.11
   4      1.06881196    -0.27551403   -76.33681826    -0.00002339    -0.00038143  0.47D-06  0.62D-06  4  4    31.28     4.14
   5      1.06891353    -0.27551245   -76.33681668     0.00000158    -0.00002249  0.14D-06  0.40D-07  5  5    35.20     4.15
   6      1.06894116    -0.27551106   -76.33681529     0.00000139    -0.00000464  0.12D-07  0.40D-08  6  6    39.10     4.18
   7      1.06894825    -0.27551066   -76.33681490     0.00000040    -0.00000160  0.11D-08  0.35D-09  6  1    43.02     4.23
   8      1.06894984    -0.27551072   -76.33681495    -0.00000006    -0.00000002  0.11D-09  0.47D-10  6  2    46.94     4.22
   9      1.06895022    -0.27551072   -76.33681495    -0.00000000     0.00000006  0.99D-11  0.86D-11  6  4    50.84     4.22
  10      1.06895035    -0.27551072   -76.33681495     0.00000000    -0.00000000  0.19D-11  0.63D-12  6  3    54.75     4.22

 Norm of t1 vector:      0.03709853      S-energy:     0.00000001      T1 diagnostic:  0.00927463
                                                                       D1 diagnostic:  0.01864558

 Adding energy correction from Wij-K(Fij), methodcc=6  factor= 1.0
 
  CCSD correlation energy              -0.275510719918
  MP2-F12 correction (uncoupled)       -0.024931165806
  C*T doubles correction               -0.000833937678
  f12b correction                       0.004286455254

 Total CPU time for triples:     21.69 sec

  Ecorr(MP2)                           -0.275612130307
  Ecorr(MP2-F12)                       -0.301662638670
  Scale factor for triples energy       1.094518729398


 RESULTS
 =======

  Reference energy                    -76.060352305158
  F12 singles correction               -0.000951925442

 F12 singles corrections added to reference energy

  New reference energy                -76.061304230600

  F12a singlet correction              -0.023068529922
  F12a triplet correction              -0.002696573562
  F12a total correction                -0.025765103483

 F12a corrections for ansatz F12/3C(FIX) added to CCSD energy
 
  CCSD-F12a singlet pair energy        -0.210366212469
  CCSD-F12a triplet pair energy        -0.090909619289
  CCSD-F12a correlation energy         -0.301275823401

  Triples (T) contribution (scaled)    -0.009893978808
  Total correlation energy             -0.311169802209

  CCSD-F12a total energy              -76.362580054002
  CCSD[T]-F12a energy                 -76.372822695445
  CCSD-T-F12a energy                  -76.372320719165
 !CCSD(T)-F12a total energy           -76.372474032810

 F12b corrections for ansatz F12/3C(FIX) added to CCSD(T)-F12a energy

  CCSD-F12b singlet pair energy        -0.206389650182
  CCSD-F12b triplet pair energy        -0.090599726322
  CCSD-F12b correlation energy         -0.296989368147

  Triples (T) contribution (scaled)    -0.009893978808
  Total correlation energy             -0.306883346956

  CCSD-F12b total energy              -76.358293598748
  CCSD[T]-F12b energy                 -76.368536240191
  CCSD-T-F12b energy                  -76.368034263911
 !CCSD(T)-F12b total energy           -76.368187577556

 Timing summary (sec):

 STEP                 CPU(USER)    SYS     CPU(TOT)    WALL
 Transformation          5.67      0.61      6.28      7.08
 CCSD iterations        38.82      3.03     41.85     42.33
 Triples                21.69      0.35     22.04     22.04
 MP2-F12                10.27      0.39     10.66     11.19
 F12b energy             3.38      0.29      3.67      3.68

 Program statistics:

 Available memory in ccsd:              2999999786
 Min. memory needed in ccsd:               1609972
 Max. memory used in ccsd:                 1864434
 Max. memory used in cckext:               1252381 (11 integral passes)



 **********************************************************************************************************************************
 DATASETS  * FILE   NREC   LENGTH (MB)   RECORD NAMES
              1      20     1933.70       500      610      700      900      950      970     1000      129      960     1100   
                                          VAR    BASINP    GEOM    SYMINP    ZMAT    AOBASIS   BASIS     P2S    ABASIS      S 
                                         1400     1410     1200     1210     1080     1600     1650     1300     1700     1380   
                                           T        V       H0       H01     AOSYM     SMH    MOLCAS    ERIS     OPER     JKOP   

              2       8       12.47       700     1000      520     2100     7360     7350     2101     2102   
                                         GEOM     BASIS   MCVARS     RHF    F12ABS    EF12      RHF      RHF  

 PROGRAMS   *        TOTAL   CCSD(T)        HF       INT   CCSD(T)        HF       INT   CCSD(T)        HF       INT
 CPU TIMES  *       541.21     79.86     25.76      0.07     83.62     21.03      0.06    286.85     28.09     15.72
 REAL TIME  *       691.31 SEC
 DISK USED  *         4.99 GB      
 **********************************************************************************************************************************
 SETTING E_F12_B(1)     =       -76.37247403  AU                              
 SETTING E_F12_B(2)     =       -76.36818758  AU                              
 SETTING E_INT_HF       =     5.17015319D-05  AU                              
 SETTING E_INT_F12(1)   =        -0.00050851  AU                              
 SETTING E_INT_F12(2)   =        -0.00050394  AU                              
 E_INT_HF         =         0.00005170 AU
 E_INT_F12(1:2)   = [      -0.00050851    -0.00050394] AU

 CCSD(T)-F12/cc-pVTZ-F12 energy=    -76.368187577556

     CCSD(T)-F12        HF-SCF       CCSD(T)-F12        HF-SCF       CCSD(T)-F12        HF-SCF  
    -76.36818758    -76.06035231    -40.45405926    -40.21549283   -116.82275077   -116.27579343
 **********************************************************************************************************************************
 Molpro calculation terminated
 Variable memory released
