
 Primary working directories    : /net/scratch/people/plgsirous
 Secondary working directories  : /net/scratch/people/plgsirous
 Wavefunction directory         : /net/people/plgsirous/wfu/
 Main file repository           : /net/scratch/people/plgsirous/

 SHA1      : 
 NAME      : 
 ARCHNAME  : linux/x86_64
 FC        : /net/software/local/intel/impi/2018.1.163/bin64/mpiifort
 BLASLIB   : -L/net/software/local/intel/compilers_and_libraries_2018.1.163/linux/mkl/lib/intel64 -lmkl_scalapack_ilp64 -lmkl_intel_ilp64 -lmkl_intel_thread -lmkl_core -lmkl_blacs_intelmpi_ilp64 -liomp5 -lpthread -lm -ldl
 id        : pl

 Nodes     nprocs
 p1429        1

 Using customized tuning parameters: mindgm=7; mindgv=20; mindgc=1; mindgr=1; noblas=0; minvec=7
 default implementation of scratch files=df  

 memory,3000,m
 zsymel=nosym
 angstrom
 geometry={
 C1        -3.2772    1.4825     1.2719
 H1        -2.4640    0.8996     1.6510
 H2        -3.1608    2.5010     1.5785
 H3        -4.2018    1.0992     1.6501
 H4        -3.2685    1.4210     0.2037
 O1        -3.7444    0.3966     -2.4998
 H5        -4.6174    0.4621     -2.0217
 H6        -3.9689    0.1261     -3.3990
 }
 basis=vtz-f12
 gthresh,orbital=1d-8,energy=1d-8,twoint=1.d-19
 
 
 nkerna=1
 nkernb=1
 nkernab=$nkerna+$nkernb
 
                                                                                 ! AB Dimer
 {hf,accu=1.d-8}
 E_HF_AB=energy
 core,$nkernab
 {ccsd(t)-f12,scale_trip=1,THRF12=1.d-12}
 E_F12_AB=energy
 
                                                                                 ! Monomer A Part
 
 dummy,6,7,8;
 {hf,accu=1.d-8}
 E_HF_A=energy
 core,$nkerna
 {ccsd(t)-f12,scale_trip=1,THRF12=1.d-12}
 E_F12_A=energy
 
                                                                                 ! Monomer B Part
 
 dummy,1,2,3,4,5;
 {hf,accu=1.d-8}
 E_HF_B=energy
 core,$nkernb
 {ccsd(t)-f12,scale_trip=1,THRF12=1.d-12}
 E_F12_B=energy
 
 E_int_HF = E_HF_AB-(E_HF_A+E_HF_B)
 E_int_F12 = E_F12_AB-(E_F12_A+E_F12_B)
 
 
 show,E_int_HF,E_int_F12

 Variables initialized (889), CPU time= 0.00 sec
 Commands  initialized (702), CPU time= 0.01 sec, 572 directives.
 Default parameters read. Elapsed time= 0.07 sec

 Checking input...
 Passed
1


                                         ***  PROGRAM SYSTEM MOLPRO  ***
                                       Copyright, TTI GmbH Stuttgart, 2015
                                    Version 2015.1 linked Jul  2 2018 15:03:07


 **********************************************************************************************************************************
 LABEL *                                                                                 
  64 bit serial version                                                                  DATE: 17-Jan-19          TIME: 14:53:02  
 **********************************************************************************************************************************

 SHA1:             
 **********************************************************************************************************************************
 SETTING ZSYMEL         =    NOSYM
 ZSYMEL=NOSYM
 ZUNIT=ANG
 

Geometry recognized as XYZ


 Variable memory set to 3000000000 words,  buffer space   230000 words

 SETTING BASIS          =    VTZ-F12

 THRESHOLDS:

 ZERO    =  1.00D-12  ONEINT  =  1.00D-12  TWOINT  =  1.00D-19  PREFAC  =  1.00D-14  LOCALI  =  1.00D-09  EORDER  =  1.00D-04
 ENERGY  =  1.00D-08  ETEST   =  0.00D+00  EDENS   =  0.00D+00  THRDEDEF=  1.00D-06  GRADIENT=  1.00D-02  STEP    =  1.00D-03
 ORBITAL =  1.00D-08  CIVEC   =  1.00D-05  COEFF   =  1.00D-04  PRINTCI =  5.00D-02  PUNCHCI =  9.90D+01  OPTGRAD =  3.00D-04
 OPTENERG=  1.00D-06  OPTSTEP =  3.00D-04  THRGRAD =  1.00D-10  COMPRESS=  1.00D-11  VARMIN  =  1.00D-07  VARMAX  =  1.00D-03
 THRDOUB =  0.00D+00  THRDIV  =  1.00D-05  THRRED  =  1.00D-07  THRPSP  =  1.00D+00  THRDC   =  1.00D-10  THRCS   =  1.00D-10
 THRNRM  =  1.00D-08  THREQ   =  0.00D+00  THRDE   =  1.00D+00  THRREF  =  1.00D-05  SPARFAC =  1.00D+00  THRDLP  =  1.00D-07
 THRDIA  =  1.00D-10  THRDLS  =  1.00D-07  THRGPS  =  0.00D+00  THRKEX  =  0.00D+00  THRDIS  =  2.00D-01  THRVAR  =  1.00D-10
 THRLOC  =  1.00D-06  THRGAP  =  1.00D-06  THRLOCT = -1.00D+00  THRGAPT = -1.00D+00  THRORB  =  1.00D-06  THRMLTP =  0.00D+00
 THRCPQCI=  1.00D-10  KEXTA   =  0.00D+00  THRCOARS=  0.00D+00  SYMTOL  =  1.00D-06  GRADTOL =  1.00D-06  THROVL  =  1.00D-08
 THRORTH =  1.00D-08  GRID    =  1.00D-06  GRIDMAX =  1.00D-03  DTMAX   =  0.00D+00  THROCCDE=  1.00D-01  THROCCDE=  1.00D-01


 SETTING NKERNA         =         1.00000000                                  
 SETTING NKERNB         =         1.00000000                                  
 SETTING NKERNAB        =         2.00000000                                  


 Recomputing integrals since basis changed


 Using spherical harmonics

 Library entry C      S cc-pVTZ-F12          selected for orbital group  1
 Library entry C      P cc-pVTZ-F12          selected for orbital group  1
 Library entry C      D cc-pVTZ-F12          selected for orbital group  1
 Library entry C      F cc-pVTZ-F12          selected for orbital group  1
 Library entry H      S cc-pVTZ-F12          selected for orbital group  2
 Library entry H      P cc-pVTZ-F12          selected for orbital group  2
 Library entry H      D cc-pVTZ-F12          selected for orbital group  2
 Library entry O      S cc-pVTZ-F12          selected for orbital group  3
 Library entry O      P cc-pVTZ-F12          selected for orbital group  3
 Library entry O      D cc-pVTZ-F12          selected for orbital group  3
 Library entry O      F cc-pVTZ-F12          selected for orbital group  3


 PROGRAM * SEWARD (Integral evaluation for generally contracted gaussian basis sets)     Author: Roland Lindh, 1990

 Geometry written to block  1 of record 700


 Point group  C1  



 ATOMIC COORDINATES

 NR  ATOM    CHARGE       X              Y              Z

   1  C1      6.00   -6.193010455    2.801518980    2.403542658
   2  H1      1.00   -4.656285171    1.699997622    3.119937832
   3  H2      1.00   -5.973046335    4.726205038    2.982932688
   4  H3      1.00   -7.940251230    2.077186956    3.118237078
   5  H4      1.00   -6.176569838    2.685300823    0.384937212
   6  O1      8.00   -7.075890501    0.749465381   -4.723937366
   7  H5      1.00   -8.725621408    0.873242442   -3.820459306
   8  H6      1.00   -7.500134016    0.238294464   -6.423179097

 Bond lengths in Bohr (Angstrom)

 1-2  2.021904040  1-3  2.022002335  1-4  2.021953343  1-5  2.022015060  6-7  1.884994809
     ( 1.069945541)     ( 1.069997556)     ( 1.069971630)     ( 1.070004290)     ( 0.997496296)

 6-8  1.824472726
     ( 0.965469388)

 Bond angles

  2-1-3  109.53398059   2-1-4  109.65604535   2-1-5  108.43490854   3-1-4  109.49436728

  3-1-5  109.86987750   4-1-5  109.83468330   7-6-8  105.14667399

 NUCLEAR CHARGE:                   20
 NUMBER OF PRIMITIVE AOS:         270
 NUMBER OF SYMMETRY AOS:          246
 NUMBER OF CONTRACTIONS:          214   ( 214A   )
 NUMBER OF CORE ORBITALS:           2   (   2A   )
 NUMBER OF VALENCE ORBITALS:       14   (  14A   )


 NUCLEAR REPULSION ENERGY   35.92323390


 Eigenvalues of metric

         1 0.734E-04 0.161E-03 0.289E-03 0.328E-03 0.338E-03 0.403E-03 0.542E-03 0.556E-03


 Contracted 2-electron integrals neglected if value below      1.0D-19
 AO integral compression algorithm  1   Integral accuracy      1.0D-19

     1992.294 MB (compressed) written to integral file ( 81.8%)


 NUMBER OF SORTED TWO-ELECTRON INTEGRALS:  264626515.     BUFFER LENGTH:  32768
 NUMBER OF SEGMENTS:  17  SEGMENT LENGTH:   15999762      RECORD LENGTH: 524288

 Memory used in sort:      16.56 MW

 SORT1 READ   304636334. AND WROTE   242205861. INTEGRALS IN    702 RECORDS. CPU TIME:     3.23 SEC, REAL TIME:    13.83 SEC
 SORT2 READ   242205861. AND WROTE   264626515. INTEGRALS IN   7600 RECORDS. CPU TIME:     3.26 SEC, REAL TIME:     7.33 SEC

 FILE SIZES:   FILE 1:  2014.0 MBYTE,  FILE 4:  2944.4 MBYTE,   TOTAL:   4958.4 MBYTE

 OPERATOR DM      FOR CENTER  0  COORDINATES:    0.000000    0.000000    0.000000


 **********************************************************************************************************************************
 DATASETS  * FILE   NREC   LENGTH (MB)   RECORD NAMES
              1      19     1767.26       500      610      700      900      950      970     1000      129      960     1100   
                                          VAR    BASINP    GEOM    SYMINP    ZMAT    AOBASIS   BASIS     P2S    ABASIS      S 
                                         1400     1410     1200     1210     1080     1600     1650     1300     1700   
                                           T        V       H0       H01     AOSYM     SMH    MOLCAS    ERIS     OPER   

 PROGRAMS   *        TOTAL       INT
 CPU TIMES  *        15.86     15.74
 REAL TIME  *        51.33 SEC
 DISK USED  *         4.96 GB      
 **********************************************************************************************************************************


 PROGRAM * RHF-SCF (CLOSED SHELL)       Authors: W. Meyer, H.-J. Werner


 NUMBER OF ELECTRONS:      10+   10-    SPACE SYMMETRY=1    SPIN SYMMETRY: Singlet 
 CONVERGENCE THRESHOLDS:    1.00E-04 (Density)    1.00E-09 (Energy)
 MAX. NUMBER OF ITERATIONS:       60
 INTERPOLATION TYPE:            DIIS
 INTERPOLATION STEPS:              2 (START)      1 (STEP)
 LEVEL SHIFTS:                  0.00 (CLOSED)  0.00 (OPEN) 



 Orbital guess generated from atomic densities. Full valence occupancy:   16

 Molecular orbital dump at record        2100.2

 Initial occupancy:  10

 ITERATION    DDIFF          GRAD             ENERGY        2-EL.EN.            DIPOLE MOMENTS         DIIS   ORB.
    1      0.000D+00      0.000D+00      -116.21939051    157.526069   -1.06464   -0.20060   -0.40388    0    start
    2      0.000D+00      0.547D-02      -116.26331031    152.529745   -0.58710   -0.12813   -0.28581    1    diag
    3      0.560D-02      0.321D-02      -116.27687299    154.603524   -0.70792   -0.14632   -0.31813    2    diag
    4      0.183D-02      0.478D-03      -116.27753257    154.488919   -0.69720   -0.14439   -0.31555    3    diag
    5      0.421D-03      0.141D-03      -116.27760204    154.484562   -0.69631   -0.14428   -0.31617    4    diag
    6      0.157D-03      0.340D-04      -116.27760595    154.490144   -0.69535   -0.14410   -0.31604    5    diag
    7      0.406D-04      0.691D-05      -116.27760618    154.488520   -0.69530   -0.14409   -0.31607    6    diag
    8      0.107D-04      0.175D-05      -116.27760620    154.488704   -0.69521   -0.14407   -0.31606    7    diag
    9      0.297D-05      0.415D-06      -116.27760620    154.488677   -0.69518   -0.14407   -0.31606    8    diag
   10      0.663D-06      0.487D-07      -116.27760620    154.488678   -0.69518   -0.14407   -0.31606    0    orth

 Final occupancy:  10

 !RHF STATE 1.1 Energy               -116.277606203475
 Nuclear energy                        35.92323390
 One-electron energy                 -229.44517929
 Two-electron energy                   77.24433919
 Virial quotient                       -1.00075845
 !RHF STATE 1.1 Dipole moment          -0.69517827    -0.14406751    -0.31605835
 Dipole moment /Debye                  -1.76685119    -0.36615909    -0.80328757

 Orbital energies:

         1.1          2.1          3.1          4.1          5.1          6.1          7.1          8.1          9.1         10.1
    -20.569745   -11.190545    -1.341782    -0.945356    -0.707505    -0.580820    -0.546129    -0.545175    -0.541632    -0.509560

        11.1         12.1
      0.058453     0.068322

 HOMO     10.1    -0.509560 =     -13.8658eV
 LUMO     11.1     0.058453 =       1.5906eV
 LUMO-HOMO         0.568013 =      15.4564eV


 **********************************************************************************************************************************
 DATASETS  * FILE   NREC   LENGTH (MB)   RECORD NAMES
              1      19     1767.26       500      610      700      900      950      970     1000      129      960     1100   
                                          VAR    BASINP    GEOM    SYMINP    ZMAT    AOBASIS   BASIS     P2S    ABASIS      S 
                                         1400     1410     1200     1210     1080     1600     1650     1300     1700   
                                           T        V       H0       H01     AOSYM     SMH    MOLCAS    ERIS     OPER   

              2       4        3.81       700     1000      520     2100   
                                         GEOM     BASIS   MCVARS     RHF  

 PROGRAMS   *        TOTAL        HF       INT
 CPU TIMES  *        41.31     25.45     15.74
 REAL TIME  *       142.50 SEC
 DISK USED  *         4.96 GB      
 **********************************************************************************************************************************
 SETTING E_HF_AB        =      -116.27760620  AU                              


 PROGRAM * CCSD (Closed-shell coupled cluster)     Authors: C. Hampel, H.-J. Werner, 1991, M. Deegan, P.J. Knowles, 1992

                                  CCSD-F12 implementation by  H.-J. Werner, 2007

                   Density fitting integral evaluation by F.R. Manby, 2003,2007, G. Knizia, 2010

 Basis set CC-PVTZ/JKFIT generated.      Number of basis functions:   338 
 Basis set CC-PVTZ-F12/OPTRI generated.  Number of basis functions:   396 
 Basis set AUG-CC-PVTZ/MP2FIT generated. Number of basis functions:   488 

 Convergence thresholds:  THRVAR = 1.00D-08  THRDEN = 1.00D-08

 CCSD(T)     terms to be evaluated (factor= 1.000)


 Number of core orbitals:           2 (   2 )
 Number of closed-shell orbitals:   8 (   8 )
 Number of external orbitals:     204 ( 204 )

 Molecular orbitals read from record     2100.2  Type=RHF/CANONICAL (state 1.1)

 MP2-F12 correlation treatment (H.-J. Werner, 2006)
 ==================================================

 Using MP2-F12 with ansatz 3C(FIX)

 Using projected zeroth-order Hamiltonian (+Z)

 FOCKRIB=T FOCKRIC=T FOCKRIP=T CABSP=T CABSA=T CABSK=T CABSF=T GBC=F EBC=F DMAT=T NOFIK=T NOPAO=1 SOLVE=-1  USEPAO=0
 EXCH_A= T EXCH_B= F EXCH_C= F EXCH_P= F
 
 Geminal basis:    OPTFULL  GEM_TYPE=SLATER  BETA=1.0  NGEM=6

 Optimizing Gaussian exponents for each gem_beta

 Geminal optimization for beta= 1.0000
 Weight function:   m=0, omega= 1.4646

 Augmented Hessian optimization of geminal fit. Trust ratio= 0.40000
 Convergence reached after   2 iterations. Final gradient= 8.26D-16, Step= 4.26D-06, Delta= 1.28D-09
 
 Alpha:                 0.19532     0.81920     2.85917     9.50073    35.69989   197.79328
 Coeff:                 0.27070     0.30552     0.18297     0.10986     0.06810     0.04224
 

 All pairs explicitly correlated. Number of r12-pairs:           36

 Excluding core orbitals from MO domains
 
 AO(A)-basis ORBITAL           loaded. Number of functions:     214
 RI(R)-basis CC-PVTZ-F12/OPTRI loaded. Number of functions:     396
 DF-basis CC-PVTZ/JKFIT        loaded. Number of functions:     338

 Screening thresholds:   THRAO=  1.00D-10  THRMO=  1.00D-09  THRPROD=  1.00D-09
                         THRSW=  1.00D-05  THROV=  1.00D-12  THRAOF12=   1.00D-08

 CPU time for Fock operators                      2.79 sec
 
 Construction of ABS:
 Smallest eigenvalue of S          3.38E-04  (threshold= 1.00E-08)
 Ratio eigmin/eigmax               4.34E-05  (threshold= 1.00E-09)
 Smallest eigenvalue of S kept     3.38E-04  (threshold= 3.38E-04, 0 functions deleted, 396 kept)
 
 Construction of CABS:
 Smallest eigenvalue of S          8.09E-07  (threshold= 1.00E-08)
 Ratio eigmin/eigmax               8.09E-07  (threshold= 1.00E-09)
 Smallest eigenvalue of S kept     8.09E-07  (threshold= 8.09E-07, 0 functions deleted, 396 kept)
 
 CPU time for CABS singles                        0.11 sec

 CABS-singles contribution of  -0.00160056 patched into reference energy.
 New reference energy        -116.27920676
 
 AO(A)-basis ORBITAL           loaded. Number of functions:     214
 RI(R)-basis CC-PVTZ-F12/OPTRI loaded. Number of functions:     396
 DF-basis AUG-CC-PVTZ/MP2FIT   loaded. Number of functions:     488

 Screening thresholds:   THRAO=  1.00D-10  THRMO=  1.00D-09  THRPROD=  1.00D-09
                         THRSW=  1.00D-05  THROV=  1.00D-12  THRAOF12=   1.00D-08

 CPU time for 3-index integral evaluation         5.72 sec
 CPU time for first  half transformation          0.42 sec (12261.3 MFLOP/sec)
 CPU time for second half transformation          0.02 sec ( 5848.2 MFLOP/sec)
 CPU time for sorting                             0.01 sec
 CPU time for fitting                             0.07 sec (34837.1 MFLOP/sec)
 CPU time for tilde quantities                    0.09 sec (35732.2 MFLOP/sec)
 CPU time for assembly                            0.81 sec (36961.1 MFLOP/sec)
 CPU time for tranop_f12                          1.10 sec (35210.7 MFLOP/sec)
 CPU time for f12 integrals (total)               9.69 sec, Elapsed time:     12.22 sec
 CPU time for f12 matrices (total)                0.33 sec, Elapsed time:      0.53 sec

 Diagonal F12 approximation with fixed coefficients:  TSING= 0.500,  TTRIP= 0.250 (scaled by -1/beta)

 DF-MP2-F12 energy corrections:
 ==============================
 Approx.                                    Singlet             Triplet             Total
 DF-MP2-F12/3*C(DX,FIX)                -0.041417994738     -0.004146665588     -0.045564660327
 DF-MP2-F12/3*C(FIX)                   -0.039289876313     -0.003875405277     -0.043165281590
 DF-MP2-F12/3C(FIX)                    -0.039149605940     -0.003982181148     -0.043131787088

 DF-MP2-F12 correlation energies:
 ================================
 Approx.                                    Singlet             Triplet             Ecorr            Total Energy
 DF-MP2                                -0.320841753914     -0.156142059409     -0.476983813324   -116.756190578209
 DF-MP2-F12/3*C(DX,FIX)                -0.362259748653     -0.160288724998     -0.522548473650   -116.801755238536
 DF-MP2-F12/3*C(FIX)                   -0.360131630228     -0.160017464686     -0.520149094914   -116.799355859799
 DF-MP2-F12/3C(FIX)                    -0.359991359855     -0.160124240557     -0.520115600412   -116.799322365297

 SCS-DF-MP2 energies (F_SING= 1.20000  F_TRIP= 0.62222  F_PARALLEL= 0.33333):
 ============================================================================
 SCS-DF-MP2                            -0.482165163885   -116.761371928771
 SCS-DF-MP2-F12/3*C(DX,FIX)            -0.534446905049   -116.813653669934
 SCS-DF-MP2-F12/3*C(FIX)               -0.531724378745   -116.810931143630
 SCS-DF-MP2-F12/3C(FIX)                -0.531622492617   -116.810829257502
 Symmetry transformation completed.

 Number of N-1 electron functions:               8
 Number of N-2 electron functions:              36
 Number of singly external CSFs:              1632
 Number of doubly external CSFs:           1332528
 Total number of CSFs:                     1334161

 Length of J-op  integral file:             205.73 MB
 Length of K-op  integral file:             258.78 MB
 Length of 3-ext integral record:             0.00 MB

 Memory could be reduced to 93.27 Mwords without degradation in triples

 Integral transformation finished. Total CPU:   9.33 sec, npass=  1  Memory used:  48.07 MW

 Reference energy:                   -116.27920676

 Adding F12 terms to K(Cij), methodcc=6,  factor= 1.0

 ITER.      SQ.NORM     CORR.ENERGY   TOTAL ENERGY   ENERGY CHANGE        DEN1      VAR(S)    VAR(P)  DIIS     TIME  TIME/IT
   1      1.13268726    -0.49212474  -116.77133150    -0.01506421    -0.00351312  0.14D-02  0.20D-02  1  1    31.09     9.50
   2      1.14068559    -0.49268741  -116.77189418    -0.00056267    -0.00961159  0.29D-04  0.23D-03  2  2    39.70     9.31
   3      1.14370105    -0.49294253  -116.77214929    -0.00025511    -0.00214160  0.12D-04  0.13D-04  3  3    48.35     9.23
   4      1.14467517    -0.49297551  -116.77218227    -0.00003298    -0.00060565  0.59D-06  0.11D-05  4  4    57.00     9.20
   5      1.14483192    -0.49297471  -116.77218148     0.00000080    -0.00002968  0.16D-06  0.63D-07  5  5    65.62     9.29
   6      1.14486592    -0.49297254  -116.77217931     0.00000217    -0.00000680  0.14D-07  0.67D-08  6  6    74.26     9.26
   7      1.14487384    -0.49297188  -116.77217865     0.00000066    -0.00000239  0.20D-08  0.58D-09  6  2    82.89     9.23
   8      1.14487666    -0.49297176  -116.77217852     0.00000012    -0.00000058  0.18D-09  0.58D-10  6  1    91.53     9.22
   9      1.14487726    -0.49297176  -116.77217853    -0.00000001    -0.00000001  0.15D-10  0.11D-10  6  3   100.19     9.20
  10      1.14487735    -0.49297177  -116.77217854    -0.00000001     0.00000009  0.20D-11  0.12D-11  6  4   108.84     9.19
  11      1.14487732    -0.49297178  -116.77217854    -0.00000000     0.00000006  0.30D-12  0.15D-12  6  5   117.48     9.18
  12      1.14487729    -0.49297178  -116.77217854    -0.00000000     0.00000002  0.61D-13  0.18D-13  6  6   126.12     9.18

 Norm of t1 vector:      0.04912479      S-energy:     0.00000000      T1 diagnostic:  0.00868412
                                                                       D1 diagnostic:  0.01851323

 Adding energy correction from Wij-K(Fij), methodcc=6  factor= 1.0
 
  CCSD correlation energy              -0.492971779265
  MP2-F12 correction (uncoupled)       -0.041711539110
  C*T doubles correction               -0.001125159662
  f12b correction                       0.007814120487


 Total CPU time for triples:    153.01 sec

  Ecorr(MP2)                           -0.477060530731
  Ecorr(MP2-F12)                       -0.520192317818
  Scale factor for triples energy       1.090411560608


 RESULTS
 =======

  Reference energy                   -116.277606203475
  F12 singles correction               -0.001600561411

 F12 singles corrections added to reference energy

  New reference energy               -116.279206764885

  F12a singlet correction              -0.038975295526
  F12a triplet correction              -0.003861403246
  F12a total correction                -0.042836698772

 F12a corrections for ansatz F12/3C(FIX) added to CCSD energy
 
  CCSD-F12a singlet pair energy        -0.389187430988
  CCSD-F12a triplet pair energy        -0.146621051337
  CCSD-F12a correlation energy         -0.535808478036

  Triples (T) contribution (scaled)    -0.016905258748
  Total correlation energy             -0.552713736785

  CCSD-F12a total energy             -116.815015242922
  CCSD[T]-F12a energy                -116.832503984768
  CCSD-T-F12a energy                 -116.831696888155
 !CCSD(T)-F12a total energy          -116.831920501670

 F12b corrections for ansatz F12/3C(FIX) added to CCSD(T)-F12a energy

  CCSD-F12b singlet pair energy        -0.381839722400
  CCSD-F12b triplet pair energy        -0.146154639437
  CCSD-F12b correlation energy         -0.527994357549

  Triples (T) contribution (scaled)    -0.016905258748
  Total correlation energy             -0.544899616297

  CCSD-F12b total energy             -116.807201122434
  CCSD[T]-F12b energy                -116.824689864280
  CCSD-T-F12b energy                 -116.823882767667
 !CCSD(T)-F12b total energy          -116.824106381183

 Timing summary (sec):

 STEP                 CPU(USER)    SYS     CPU(TOT)    WALL
 Transformation          9.45      1.08     10.53     11.48
 CCSD iterations       103.57      5.97    109.54    110.24
 Triples               153.01      2.47    155.48    155.51
 MP2-F12                13.12      1.52     14.64     16.51
 F12b energy             6.92      0.28      7.20      7.21

 Program statistics:

 Available memory in ccsd:              2999999464
 Min. memory needed in ccsd:               3963025
 Max. memory used in ccsd:                 5096465
 Max. memory used in cckext:               3666031 (13 integral passes)



 **********************************************************************************************************************************
 DATASETS  * FILE   NREC   LENGTH (MB)   RECORD NAMES
              1      20     2060.81       500      610      700      900      950      970     1000      129      960     1100   
                                          VAR    BASINP    GEOM    SYMINP    ZMAT    AOBASIS   BASIS     P2S    ABASIS      S 
                                         1400     1410     1200     1210     1080     1600     1650     1300     1700     1380   
                                           T        V       H0       H01     AOSYM     SMH    MOLCAS    ERIS     OPER     JKOP   

              2       6        4.74       700     1000      520     2100     7360     7350   
                                         GEOM     BASIS   MCVARS     RHF    F12ABS    EF12   

 PROGRAMS   *        TOTAL   CCSD(T)        HF       INT
 CPU TIMES  *       327.42    286.10     25.45     15.74
 REAL TIME  *       454.66 SEC
 DISK USED  *         4.96 GB      
 **********************************************************************************************************************************
 SETTING E_F12_AB(1)    =      -116.83192050  AU                              
 SETTING E_F12_AB(2)    =      -116.82410638  AU                              

 Dummy atoms: O1  H5  H6


 Recomputing one-electron integrals since nuclear charges changed


 PROGRAM * SEWARD (Integral evaluation for generally contracted gaussian basis sets)     Author: Roland Lindh, 1990

 Geometry written to block  1 of record 700


 Point group  C1  



 ATOMIC COORDINATES

 NR  ATOM    CHARGE       X              Y              Z

   1  C1      6.00   -6.193010455    2.801518980    2.403542658
   2  H1      1.00   -4.656285171    1.699997622    3.119937832
   3  H2      1.00   -5.973046335    4.726205038    2.982932688
   4  H3      1.00   -7.940251230    2.077186956    3.118237078
   5  H4      1.00   -6.176569838    2.685300823    0.384937212
   6  O1      0.00   -7.075890501    0.749465381   -4.723937366
   7  H5      0.00   -8.725621408    0.873242442   -3.820459306
   8  H6      0.00   -7.500134016    0.238294464   -6.423179097

 Bond lengths in Bohr (Angstrom)

 1-2  2.021904040  1-3  2.022002335  1-4  2.021953343  1-5  2.022015060  6-7  1.884994809
     ( 1.069945541)     ( 1.069997556)     ( 1.069971630)     ( 1.070004290)     ( 0.997496296)

 6-8  1.824472726
     ( 0.965469388)

 Bond angles

  2-1-3  109.53398059   2-1-4  109.65604535   2-1-5  108.43490854   3-1-4  109.49436728

  3-1-5  109.86987750   4-1-5  109.83468330   7-6-8  105.14667399

 NUCLEAR CHARGE:                   10
 NUMBER OF PRIMITIVE AOS:         270
 NUMBER OF SYMMETRY AOS:          246
 NUMBER OF CONTRACTIONS:          214   ( 214A   )
 NUMBER OF CORE ORBITALS:           1   (   1A   )
 NUMBER OF VALENCE ORBITALS:        8   (   8A   )

 MOLECULE CHANGED: INITIALIZING OCCUPATION AND DUMP RECORDS


 NUCLEAR REPULSION ENERGY   13.68681606


 Eigenvalues of metric

         1 0.734E-04 0.161E-03 0.289E-03 0.328E-03 0.338E-03 0.403E-03 0.542E-03 0.556E-03


 Contracted 2-electron integrals neglected if value below      1.0D-19

 OPERATOR DM      FOR CENTER  0  COORDINATES:    0.000000    0.000000    0.000000


 **********************************************************************************************************************************
 DATASETS  * FILE   NREC   LENGTH (MB)   RECORD NAMES
              1      19     1767.26       500      610      700      900      950      970     1000      129      960     1100   
                                          VAR    BASINP    GEOM    SYMINP    ZMAT    AOBASIS   BASIS     P2S    ABASIS      S 
                                         1400     1410     1200     1210     1080     1600     1650     1300     1700   
                                           T        V       H0       H01     AOSYM     SMH    MOLCAS    ERIS     OPER   

              2       6        4.74       700     1000      520     2100     7360     7350   
                                         GEOM     BASIS   MCVARS     RHF    F12ABS    EF12   

 PROGRAMS   *        TOTAL       INT   CCSD(T)        HF       INT
 CPU TIMES  *       327.49      0.07    286.10     25.45     15.74
 REAL TIME  *       455.04 SEC
 DISK USED  *         4.96 GB      
 **********************************************************************************************************************************


 PROGRAM * RHF-SCF (CLOSED SHELL)       Authors: W. Meyer, H.-J. Werner


 NUMBER OF ELECTRONS:       5+    5-    SPACE SYMMETRY=1    SPIN SYMMETRY: Singlet 
 CONVERGENCE THRESHOLDS:    1.00E-04 (Density)    1.00E-09 (Energy)
 MAX. NUMBER OF ITERATIONS:       60
 INTERPOLATION TYPE:            DIIS
 INTERPOLATION STEPS:              2 (START)      1 (STEP)
 LEVEL SHIFTS:                  0.00 (CLOSED)  0.00 (OPEN) 



 Orbital guess generated from atomic densities. Full valence occupancy:    9

 Molecular orbital dump at record        2101.2

 Initial occupancy:   5

 ITERATION    DDIFF          GRAD             ENERGY        2-EL.EN.            DIPOLE MOMENTS         DIIS   ORB.
    1      0.000D+00      0.000D+00       -40.19565426     53.501365    0.00408   -0.00283   -0.00124    0    start
    2      0.000D+00      0.368D-02       -40.21289915     52.216639    0.00126   -0.00099   -0.00029    1    diag
    3      0.319D-02      0.143D-02       -40.21516801     52.670301    0.00178   -0.00135   -0.00046    2    diag
    4      0.858D-03      0.357D-03       -40.21548623     52.615353    0.00158   -0.00123   -0.00039    3    diag
    5      0.333D-03      0.463D-04       -40.21549170     52.617507    0.00155   -0.00121   -0.00038    4    diag
    6      0.587D-04      0.375D-05       -40.21549174     52.617652    0.00154   -0.00121   -0.00038    5    diag
    7      0.868D-05      0.302D-06       -40.21549174     52.617612    0.00154   -0.00121   -0.00038    6    diag
    8      0.935D-06      0.229D-07       -40.21549174     52.617613    0.00154   -0.00121   -0.00038    0    orth

 Final occupancy:   5

 !RHF STATE 1.1 Energy                -40.215491743179
 Nuclear energy                        13.68681606
 One-electron energy                  -80.21111440
 Two-electron energy                   26.30880660
 Virial quotient                       -0.99832342
 !RHF STATE 1.1 Dipole moment           0.00154279    -0.00120837    -0.00037610
 Dipole moment /Debye                   0.00392112    -0.00307117    -0.00095588

 Orbital energies:

         1.1          2.1          3.1          4.1          5.1          6.1          7.1
    -11.196271    -0.950713    -0.551938    -0.550004    -0.547825     0.052166     0.065987

 HOMO      5.1    -0.547825 =     -14.9071eV
 LUMO      6.1     0.052166 =       1.4195eV
 LUMO-HOMO         0.599991 =      16.3266eV


 **********************************************************************************************************************************
 DATASETS  * FILE   NREC   LENGTH (MB)   RECORD NAMES
              1      19     1767.26       500      610      700      900      950      970     1000      129      960     1100   
                                          VAR    BASINP    GEOM    SYMINP    ZMAT    AOBASIS   BASIS     P2S    ABASIS      S 
                                         1400     1410     1200     1210     1080     1600     1650     1300     1700   
                                           T        V       H0       H01     AOSYM     SMH    MOLCAS    ERIS     OPER   

              2       7        8.14       700     1000      520     2100     7360     7350     2101   
                                         GEOM     BASIS   MCVARS     RHF    F12ABS    EF12      RHF  

 PROGRAMS   *        TOTAL        HF       INT   CCSD(T)        HF       INT
 CPU TIMES  *       348.41     20.92      0.07    286.10     25.45     15.74
 REAL TIME  *       478.83 SEC
 DISK USED  *         4.96 GB      
 **********************************************************************************************************************************
 SETTING E_HF_A         =       -40.21549174  AU                              


 PROGRAM * CCSD (Closed-shell coupled cluster)     Authors: C. Hampel, H.-J. Werner, 1991, M. Deegan, P.J. Knowles, 1992

                                  CCSD-F12 implementation by  H.-J. Werner, 2007

                   Density fitting integral evaluation by F.R. Manby, 2003,2007, G. Knizia, 2010

 Basis set CC-PVTZ/JKFIT generated.      Number of basis functions:   338 
 Basis set CC-PVTZ-F12/OPTRI generated.  Number of basis functions:   396 
 Basis set AUG-CC-PVTZ/MP2FIT generated. Number of basis functions:   488 

 Convergence thresholds:  THRVAR = 1.00D-08  THRDEN = 1.00D-08

 CCSD(T)     terms to be evaluated (factor= 1.000)


 Number of core orbitals:           1 (   1 )
 Number of closed-shell orbitals:   4 (   4 )
 Number of external orbitals:     209 ( 209 )

 Molecular orbitals read from record     2101.2  Type=RHF/CANONICAL (state 1.1)

 MP2-F12 correlation treatment (H.-J. Werner, 2006)
 ==================================================

 Using MP2-F12 with ansatz 3C(FIX)

 Using projected zeroth-order Hamiltonian (+Z)

 FOCKRIB=T FOCKRIC=T FOCKRIP=T CABSP=T CABSA=T CABSK=T CABSF=T GBC=F EBC=F DMAT=T NOFIK=T NOPAO=1 SOLVE=-1  USEPAO=0
 EXCH_A= T EXCH_B= F EXCH_C= F EXCH_P= F
 
 Geminal basis:    OPTFULL  GEM_TYPE=SLATER  BETA=1.0  NGEM=6

 Optimizing Gaussian exponents for each gem_beta

 Geminal optimization for beta= 1.0000
 Weight function:   m=0, omega= 1.4646

 Augmented Hessian optimization of geminal fit. Trust ratio= 0.40000
 Convergence reached after   2 iterations. Final gradient= 8.26D-16, Step= 4.26D-06, Delta= 1.28D-09
 
 Alpha:                 0.19532     0.81920     2.85917     9.50073    35.69989   197.79328
 Coeff:                 0.27070     0.30552     0.18297     0.10986     0.06810     0.04224
 

 All pairs explicitly correlated. Number of r12-pairs:           10

 Excluding core orbitals from MO domains
 
 AO(A)-basis ORBITAL           loaded. Number of functions:     214
 RI(R)-basis CC-PVTZ-F12/OPTRI loaded. Number of functions:     396
 DF-basis CC-PVTZ/JKFIT        loaded. Number of functions:     338

 Screening thresholds:   THRAO=  1.00D-10  THRMO=  1.00D-09  THRPROD=  1.00D-09
                         THRSW=  1.00D-05  THROV=  1.00D-12  THRAOF12=   1.00D-08

 CPU time for Fock operators                      2.68 sec
 
 Construction of ABS:
 Smallest eigenvalue of S          3.38E-04  (threshold= 1.00E-08)
 Ratio eigmin/eigmax               4.34E-05  (threshold= 1.00E-09)
 Smallest eigenvalue of S kept     3.38E-04  (threshold= 3.38E-04, 0 functions deleted, 396 kept)
 
 Construction of CABS:
 Smallest eigenvalue of S          8.09E-07  (threshold= 1.00E-08)
 Ratio eigmin/eigmax               8.09E-07  (threshold= 1.00E-09)
 Smallest eigenvalue of S kept     8.09E-07  (threshold= 8.09E-07, 0 functions deleted, 396 kept)
 
 CPU time for CABS singles                        0.11 sec

 CABS-singles contribution of  -0.00063622 patched into reference energy.
 New reference energy         -40.21612797
 
 AO(A)-basis ORBITAL           loaded. Number of functions:     214
 RI(R)-basis CC-PVTZ-F12/OPTRI loaded. Number of functions:     396
 DF-basis AUG-CC-PVTZ/MP2FIT   loaded. Number of functions:     488

 Screening thresholds:   THRAO=  1.00D-10  THRMO=  1.00D-09  THRPROD=  1.00D-09
                         THRSW=  1.00D-05  THROV=  1.00D-12  THRAOF12=   1.00D-08

 CPU time for 3-index integral evaluation         5.67 sec
 CPU time for first  half transformation          0.47 sec ( 5478.5 MFLOP/sec)
 CPU time for second half transformation          0.01 sec ( 2924.1 MFLOP/sec)
 CPU time for sorting                             0.01 sec
 CPU time for fitting                             0.04 sec (29768.0 MFLOP/sec)
 CPU time for tilde quantities                    0.04 sec (39722.4 MFLOP/sec)
 CPU time for assembly                            0.21 sec (37981.3 MFLOP/sec)
 CPU time for tranop_f12                          0.27 sec (35487.5 MFLOP/sec)
 CPU time for f12 integrals (total)               7.20 sec, Elapsed time:      7.61 sec
 CPU time for f12 matrices (total)                0.08 sec, Elapsed time:      0.12 sec

 Diagonal F12 approximation with fixed coefficients:  TSING= 0.500,  TTRIP= 0.250 (scaled by -1/beta)

 DF-MP2-F12 energy corrections:
 ==============================
 Approx.                                    Singlet             Triplet             Total
 DF-MP2-F12/3*C(DX,FIX)                -0.016287824134     -0.001139877544     -0.017427701677
 DF-MP2-F12/3*C(FIX)                   -0.015926928418     -0.001149743289     -0.017076671707
 DF-MP2-F12/3C(FIX)                    -0.015858423855     -0.001156861526     -0.017015285381

 DF-MP2-F12 correlation energies:
 ================================
 Approx.                                    Singlet             Triplet             Ecorr            Total Energy
 DF-MP2                                -0.145614741359     -0.055805111229     -0.201419852588    -40.417547819723
 DF-MP2-F12/3*C(DX,FIX)                -0.161902565493     -0.056944988773     -0.218847554266    -40.434975521400
 DF-MP2-F12/3*C(FIX)                   -0.161541669777     -0.056954854518     -0.218496524295    -40.434624491429
 DF-MP2-F12/3C(FIX)                    -0.161473165214     -0.056961972756     -0.218435137970    -40.434563105104

 SCS-DF-MP2 energies (F_SING= 1.20000  F_TRIP= 0.62222  F_PARALLEL= 0.33333):
 ============================================================================
 SCS-DF-MP2                            -0.209460869951    -40.425588837086
 SCS-DF-MP2-F12/3*C(DX,FIX)            -0.229715516050    -40.445843483184
 SCS-DF-MP2-F12/3*C(FIX)               -0.229288579877    -40.445416547011
 SCS-DF-MP2-F12/3C(FIX)                -0.229210803527    -40.445338770661
 Symmetry transformation completed.

 Number of N-1 electron functions:               4
 Number of N-2 electron functions:              10
 Number of singly external CSFs:               836
 Number of doubly external CSFs:            349866
 Total number of CSFs:                      350703

 Length of J-op  integral file:              53.89 MB
 Length of K-op  integral file:              87.81 MB
 Length of 3-ext integral record:             0.00 MB

 Memory could be reduced to 60.96 Mwords without degradation in triples

 Integral transformation finished. Total CPU:   5.54 sec, npass=  1  Memory used:  26.32 MW

 Reference energy:                    -40.21612797

 Adding F12 terms to K(Cij), methodcc=6,  factor= 1.0

 ITER.      SQ.NORM     CORR.ENERGY   TOTAL ENERGY   ENERGY CHANGE        DEN1      VAR(S)    VAR(P)  DIIS     TIME  TIME/IT
   1      1.06960510    -0.21652217   -40.43265013    -0.01506761    -0.00954222  0.62D-03  0.94D-03  1  1    19.50     4.27
   2      1.07445983    -0.21733829   -40.43346626    -0.00081613    -0.00516267  0.14D-04  0.90D-04  2  2    23.36     4.23
   3      1.07598140    -0.21744967   -40.43357764    -0.00011137    -0.00108961  0.20D-05  0.57D-05  3  3    27.22     4.21
   4      1.07635072    -0.21746420   -40.43359217    -0.00001453    -0.00020084  0.13D-06  0.31D-06  4  4    31.13     4.20
   5      1.07640260    -0.21746383   -40.43359180     0.00000037    -0.00000933  0.77D-08  0.15D-07  5  5    35.01     4.20
   6      1.07640890    -0.21746258   -40.43359054     0.00000126    -0.00000295  0.32D-09  0.85D-09  6  6    38.88     4.20
   7      1.07640965    -0.21746251   -40.43359047     0.00000007    -0.00000042  0.20D-10  0.65D-10  6  1    42.77     4.19
   8      1.07640972    -0.21746253   -40.43359050    -0.00000003     0.00000002  0.27D-11  0.59D-11  6  2    46.66     4.19
   9      1.07640972    -0.21746254   -40.43359051    -0.00000001     0.00000003  0.21D-12  0.34D-12  6  3    50.54     4.19
  10      1.07640972    -0.21746254   -40.43359051     0.00000000     0.00000001  0.23D-13  0.32D-13  6  4    54.41     4.19

 Norm of t1 vector:      0.03261014      S-energy:    -0.00000000      T1 diagnostic:  0.00815253
                                                                       D1 diagnostic:  0.01307261

 Adding energy correction from Wij-K(Fij), methodcc=6  factor= 1.0
 
  CCSD correlation energy              -0.217462538452
  MP2-F12 correction (uncoupled)       -0.016716831435
  C*T doubles correction               -0.000290365500
  f12b correction                       0.003525549910


 Total CPU time for triples:     21.72 sec

  Ecorr(MP2)                           -0.201454559751
  Ecorr(MP2-F12)                       -0.218469845132
  Scale factor for triples energy       1.084462150682


 RESULTS
 =======

  Reference energy                    -40.215491743179
  F12 singles correction               -0.000636223955

 F12 singles corrections added to reference energy

  New reference energy                -40.216127967134

  F12a singlet correction              -0.015862807682
  F12a triplet correction              -0.001144389254
  F12a total correction                -0.017007196936

 F12a corrections for ansatz F12/3C(FIX) added to CCSD energy
 
  CCSD-F12a singlet pair energy        -0.179253498602
  CCSD-F12a triplet pair energy        -0.055216236411
  CCSD-F12a correlation energy         -0.234469735388

  Triples (T) contribution (scaled)    -0.006988580863
  Total correlation energy             -0.241458316251

  CCSD-F12a total energy              -40.450597702522
  CCSD[T]-F12a energy                 -40.457827739330
  CCSD-T-F12a energy                  -40.457512913503
 !CCSD(T)-F12a total energy           -40.457586283385

 F12b corrections for ansatz F12/3C(FIX) added to CCSD(T)-F12a energy

  CCSD-F12b singlet pair energy        -0.175882762418
  CCSD-F12b triplet pair energy        -0.055061422685
  CCSD-F12b correlation energy         -0.230944185478

  Triples (T) contribution (scaled)    -0.006988580863
  Total correlation energy             -0.237932766340

  CCSD-F12b total energy              -40.447072152612
  CCSD[T]-F12b energy                 -40.454302189420
  CCSD-T-F12b energy                  -40.453987363593
 !CCSD(T)-F12b total energy           -40.454060733475

 Timing summary (sec):

 STEP                 CPU(USER)    SYS     CPU(TOT)    WALL
 Transformation          5.58      0.68      6.26      6.28
 CCSD iterations        38.60      3.01     41.61     42.04
 Triples                21.72      0.35     22.07     22.09
 MP2-F12                10.24      0.42     10.66     11.74
 F12b energy             3.41      0.25      3.66      3.65

 Program statistics:

 Available memory in ccsd:              2999999786
 Min. memory needed in ccsd:               1609972
 Max. memory used in ccsd:                 1864434
 Max. memory used in cckext:               1252381 (11 integral passes)



 **********************************************************************************************************************************
 DATASETS  * FILE   NREC   LENGTH (MB)   RECORD NAMES
              1      20     1920.27       500      610      700      900      950      970     1000      129      960     1100   
                                          VAR    BASINP    GEOM    SYMINP    ZMAT    AOBASIS   BASIS     P2S    ABASIS      S 
                                         1400     1410     1200     1210     1080     1600     1650     1300     1700     1380   
                                           T        V       H0       H01     AOSYM     SMH    MOLCAS    ERIS     OPER     JKOP   

              2       7        8.14       700     1000      520     2100     7360     7350     2101   
                                         GEOM     BASIS   MCVARS     RHF    F12ABS    EF12      RHF  

 PROGRAMS   *        TOTAL   CCSD(T)        HF       INT   CCSD(T)        HF       INT
 CPU TIMES  *       428.01     79.59     20.92      0.07    286.10     25.45     15.74
 REAL TIME  *       564.99 SEC
 DISK USED  *         4.96 GB      
 **********************************************************************************************************************************
 SETTING E_F12_A(1)     =       -40.45758628  AU                              
 SETTING E_F12_A(2)     =       -40.45406073  AU                              

 Dummy atoms: C1  H1  H2  H3  H4


 Recomputing one-electron integrals since nuclear charges changed


 PROGRAM * SEWARD (Integral evaluation for generally contracted gaussian basis sets)     Author: Roland Lindh, 1990

 Geometry written to block  1 of record 700


 Point group  C1  



 ATOMIC COORDINATES

 NR  ATOM    CHARGE       X              Y              Z

   1  C1      0.00   -6.193010455    2.801518980    2.403542658
   2  H1      0.00   -4.656285171    1.699997622    3.119937832
   3  H2      0.00   -5.973046335    4.726205038    2.982932688
   4  H3      0.00   -7.940251230    2.077186956    3.118237078
   5  H4      0.00   -6.176569838    2.685300823    0.384937212
   6  O1      8.00   -7.075890501    0.749465381   -4.723937366
   7  H5      1.00   -8.725621408    0.873242442   -3.820459306
   8  H6      1.00   -7.500134016    0.238294464   -6.423179097

 Bond lengths in Bohr (Angstrom)

 1-2  2.021904040  1-3  2.022002335  1-4  2.021953343  1-5  2.022015060  6-7  1.884994809
     ( 1.069945541)     ( 1.069997556)     ( 1.069971630)     ( 1.070004290)     ( 0.997496296)

 6-8  1.824472726
     ( 0.965469388)

 Bond angles

  2-1-3  109.53398059   2-1-4  109.65604535   2-1-5  108.43490854   3-1-4  109.49436728

  3-1-5  109.86987750   4-1-5  109.83468330   7-6-8  105.14667399

 NUCLEAR CHARGE:                   10
 NUMBER OF PRIMITIVE AOS:         270
 NUMBER OF SYMMETRY AOS:          246
 NUMBER OF CONTRACTIONS:          214   ( 214A   )
 NUMBER OF CORE ORBITALS:           1   (   1A   )
 NUMBER OF VALENCE ORBITALS:        6   (   6A   )

 MOLECULE CHANGED: INITIALIZING OCCUPATION AND DUMP RECORDS


 NUCLEAR REPULSION ENERGY    8.96831117


 Eigenvalues of metric

         1 0.734E-04 0.161E-03 0.289E-03 0.328E-03 0.338E-03 0.403E-03 0.542E-03 0.556E-03


 Contracted 2-electron integrals neglected if value below      1.0D-19

 OPERATOR DM      FOR CENTER  0  COORDINATES:    0.000000    0.000000    0.000000


 **********************************************************************************************************************************
 DATASETS  * FILE   NREC   LENGTH (MB)   RECORD NAMES
              1      19     1767.26       500      610      700      900      950      970     1000      129      960     1100   
                                          VAR    BASINP    GEOM    SYMINP    ZMAT    AOBASIS   BASIS     P2S    ABASIS      S 
                                         1400     1410     1200     1210     1080     1600     1650     1300     1700   
                                           T        V       H0       H01     AOSYM     SMH    MOLCAS    ERIS     OPER   

              2       7        8.14       700     1000      520     2100     7360     7350     2101   
                                         GEOM     BASIS   MCVARS     RHF    F12ABS    EF12      RHF  

 PROGRAMS   *        TOTAL       INT   CCSD(T)        HF       INT   CCSD(T)        HF       INT
 CPU TIMES  *       428.07      0.06     79.59     20.92      0.07    286.10     25.45     15.74
 REAL TIME  *       565.21 SEC
 DISK USED  *         4.96 GB      
 **********************************************************************************************************************************


 PROGRAM * RHF-SCF (CLOSED SHELL)       Authors: W. Meyer, H.-J. Werner


 NUMBER OF ELECTRONS:       5+    5-    SPACE SYMMETRY=1    SPIN SYMMETRY: Singlet 
 CONVERGENCE THRESHOLDS:    1.00E-04 (Density)    1.00E-09 (Energy)
 MAX. NUMBER OF ITERATIONS:       60
 INTERPOLATION TYPE:            DIIS
 INTERPOLATION STEPS:              2 (START)      1 (STEP)
 LEVEL SHIFTS:                  0.00 (CLOSED)  0.00 (OPEN) 



 Orbital guess generated from atomic densities. Full valence occupancy:    7

 Molecular orbital dump at record        2102.2

 Initial occupancy:   5

 ITERATION    DDIFF          GRAD             ENERGY        2-EL.EN.            DIPOLE MOMENTS         DIIS   ORB.
    1      0.000D+00      0.000D+00       -76.02334350     77.363567   -1.06940   -0.19647   -0.39883    0    start
    2      0.000D+00      0.672D-02       -76.05019149     73.698530   -0.61945   -0.11661   -0.24088    1    diag
    3      0.462D-02      0.429D-02       -76.06185768     75.328269   -0.73047   -0.13694   -0.28207    2    diag
    4      0.163D-02      0.403D-03       -76.06205616     75.235636   -0.72502   -0.13650   -0.28207    3    diag
    5      0.230D-03      0.114D-03       -76.06207803     75.250328   -0.72292   -0.13636   -0.28214    4    diag
    6      0.793D-04      0.229D-04       -76.06207948     75.249209   -0.72234   -0.13633   -0.28222    5    diag
    7      0.222D-04      0.467D-05       -76.06207956     75.249363   -0.72216   -0.13632   -0.28223    6    diag
    8      0.508D-05      0.885D-06       -76.06207956     75.249350   -0.72211   -0.13631   -0.28222    7    diag
    9      0.965D-06      0.119D-06       -76.06207956     75.249340   -0.72210   -0.13631   -0.28222    8    diag
   10      0.150D-06      0.275D-07       -76.06207956     75.249345   -0.72210   -0.13631   -0.28222    0    orth

 Final occupancy:   5

 !RHF STATE 1.1 Energy                -76.062079559789
 Nuclear energy                         8.96831117
 One-electron energy                 -122.65506319
 Two-electron energy                   37.62467246
 Virial quotient                       -1.00208503
 !RHF STATE 1.1 Dipole moment          -0.72210400    -0.13631199    -0.28222185
 Dipole moment /Debye                  -1.83528508    -0.34644784    -0.71728940

 Orbital energies:

         1.1          2.1          3.1          4.1          5.1          6.1          7.1
    -20.568735    -1.340587    -0.706075    -0.579049    -0.508413     0.043351     0.061714

 HOMO      5.1    -0.508413 =     -13.8346eV
 LUMO      6.1     0.043351 =       1.1796eV
 LUMO-HOMO         0.551764 =      15.0143eV


 **********************************************************************************************************************************
 DATASETS  * FILE   NREC   LENGTH (MB)   RECORD NAMES
              1      19     1767.26       500      610      700      900      950      970     1000      129      960     1100   
                                          VAR    BASINP    GEOM    SYMINP    ZMAT    AOBASIS   BASIS     P2S    ABASIS      S 
                                         1400     1410     1200     1210     1080     1600     1650     1300     1700   
                                           T        V       H0       H01     AOSYM     SMH    MOLCAS    ERIS     OPER   

              2       8       12.47       700     1000      520     2100     7360     7350     2101     2102   
                                         GEOM     BASIS   MCVARS     RHF    F12ABS    EF12      RHF      RHF  

 PROGRAMS   *        TOTAL        HF       INT   CCSD(T)        HF       INT   CCSD(T)        HF       INT
 CPU TIMES  *       453.49     25.41      0.06     79.59     20.92      0.07    286.10     25.45     15.74
 REAL TIME  *       594.78 SEC
 DISK USED  *         4.96 GB      
 **********************************************************************************************************************************
 SETTING E_HF_B         =       -76.06207956  AU                              


 PROGRAM * CCSD (Closed-shell coupled cluster)     Authors: C. Hampel, H.-J. Werner, 1991, M. Deegan, P.J. Knowles, 1992

                                  CCSD-F12 implementation by  H.-J. Werner, 2007

                   Density fitting integral evaluation by F.R. Manby, 2003,2007, G. Knizia, 2010

 Basis set CC-PVTZ/JKFIT generated.      Number of basis functions:   338 
 Basis set CC-PVTZ-F12/OPTRI generated.  Number of basis functions:   396 
 Basis set AUG-CC-PVTZ/MP2FIT generated. Number of basis functions:   488 

 Convergence thresholds:  THRVAR = 1.00D-08  THRDEN = 1.00D-08

 CCSD(T)     terms to be evaluated (factor= 1.000)


 Number of core orbitals:           1 (   1 )
 Number of closed-shell orbitals:   4 (   4 )
 Number of external orbitals:     209 ( 209 )

 Molecular orbitals read from record     2102.2  Type=RHF/CANONICAL (state 1.1)

 MP2-F12 correlation treatment (H.-J. Werner, 2006)
 ==================================================

 Using MP2-F12 with ansatz 3C(FIX)

 Using projected zeroth-order Hamiltonian (+Z)

 FOCKRIB=T FOCKRIC=T FOCKRIP=T CABSP=T CABSA=T CABSK=T CABSF=T GBC=F EBC=F DMAT=T NOFIK=T NOPAO=1 SOLVE=-1  USEPAO=0
 EXCH_A= T EXCH_B= F EXCH_C= F EXCH_P= F
 
 Geminal basis:    OPTFULL  GEM_TYPE=SLATER  BETA=1.0  NGEM=6

 Optimizing Gaussian exponents for each gem_beta

 Geminal optimization for beta= 1.0000
 Weight function:   m=0, omega= 1.4646

 Augmented Hessian optimization of geminal fit. Trust ratio= 0.40000
 Convergence reached after   2 iterations. Final gradient= 8.26D-16, Step= 4.26D-06, Delta= 1.28D-09
 
 Alpha:                 0.19532     0.81920     2.85917     9.50073    35.69989   197.79328
 Coeff:                 0.27070     0.30552     0.18297     0.10986     0.06810     0.04224
 

 All pairs explicitly correlated. Number of r12-pairs:           10

 Excluding core orbitals from MO domains
 
 AO(A)-basis ORBITAL           loaded. Number of functions:     214
 RI(R)-basis CC-PVTZ-F12/OPTRI loaded. Number of functions:     396
 DF-basis CC-PVTZ/JKFIT        loaded. Number of functions:     338

 Screening thresholds:   THRAO=  1.00D-10  THRMO=  1.00D-09  THRPROD=  1.00D-09
                         THRSW=  1.00D-05  THROV=  1.00D-12  THRAOF12=   1.00D-08

 CPU time for Fock operators                      2.66 sec
 
 Construction of ABS:
 Smallest eigenvalue of S          3.38E-04  (threshold= 1.00E-08)
 Ratio eigmin/eigmax               4.34E-05  (threshold= 1.00E-09)
 Smallest eigenvalue of S kept     3.38E-04  (threshold= 3.38E-04, 0 functions deleted, 396 kept)
 
 Construction of CABS:
 Smallest eigenvalue of S          8.09E-07  (threshold= 1.00E-08)
 Ratio eigmin/eigmax               8.09E-07  (threshold= 1.00E-09)
 Smallest eigenvalue of S kept     8.09E-07  (threshold= 8.09E-07, 0 functions deleted, 396 kept)
 
 CPU time for CABS singles                        0.11 sec

 CABS-singles contribution of  -0.00096197 patched into reference energy.
 New reference energy         -76.06304153
 
 AO(A)-basis ORBITAL           loaded. Number of functions:     214
 RI(R)-basis CC-PVTZ-F12/OPTRI loaded. Number of functions:     396
 DF-basis AUG-CC-PVTZ/MP2FIT   loaded. Number of functions:     488

 Screening thresholds:   THRAO=  1.00D-10  THRMO=  1.00D-09  THRPROD=  1.00D-09
                         THRSW=  1.00D-05  THROV=  1.00D-12  THRAOF12=   1.00D-08

 CPU time for 3-index integral evaluation         5.77 sec
 CPU time for first  half transformation          0.40 sec ( 6437.2 MFLOP/sec)
 CPU time for second half transformation          0.01 sec ( 2924.1 MFLOP/sec)
 CPU time for fitting                             0.03 sec (39690.7 MFLOP/sec)
 CPU time for tilde quantities                    0.04 sec (39722.4 MFLOP/sec)
 CPU time for assembly                            0.25 sec (31904.3 MFLOP/sec)
 CPU time for tranop_f12                          0.27 sec (35487.5 MFLOP/sec)
 CPU time for f12 integrals (total)               7.20 sec, Elapsed time:      7.71 sec
 CPU time for f12 matrices (total)                0.07 sec, Elapsed time:      0.12 sec

 Diagonal F12 approximation with fixed coefficients:  TSING= 0.500,  TTRIP= 0.250 (scaled by -1/beta)

 DF-MP2-F12 energy corrections:
 ==============================
 Approx.                                    Singlet             Triplet             Total
 DF-MP2-F12/3*C(DX,FIX)                -0.025107182978     -0.002995102565     -0.028102285542
 DF-MP2-F12/3*C(FIX)                   -0.023339536529     -0.002709878492     -0.026049415021
 DF-MP2-F12/3C(FIX)                    -0.023265983870     -0.002806637587     -0.026072621457

 DF-MP2-F12 correlation energies:
 ================================
 Approx.                                    Singlet             Triplet             Ecorr            Total Energy
 DF-MP2                                -0.175091594111     -0.099829463005     -0.274921057116    -76.337962588296
 DF-MP2-F12/3*C(DX,FIX)                -0.200198777089     -0.102824565569     -0.303023342658    -76.366064873838
 DF-MP2-F12/3*C(FIX)                   -0.198431130640     -0.102539341497     -0.300970472137    -76.364012003317
 DF-MP2-F12/3C(FIX)                    -0.198357577982     -0.102636100592     -0.300993678573    -76.364035209753

 SCS-DF-MP2 energies (F_SING= 1.20000  F_TRIP= 0.62222  F_PARALLEL= 0.33333):
 ============================================================================
 SCS-DF-MP2                            -0.272226023247    -76.335267554427
 SCS-DF-MP2-F12/3*C(DX,FIX)            -0.304218262194    -76.367259793374
 SCS-DF-MP2-F12/3*C(FIX)               -0.301919613699    -76.364961144879
 SCS-DF-MP2-F12/3C(FIX)                -0.301891556168    -76.364933087348
 Symmetry transformation completed.

 Number of N-1 electron functions:               4
 Number of N-2 electron functions:              10
 Number of singly external CSFs:               836
 Number of doubly external CSFs:            349866
 Total number of CSFs:                      350703

 Length of J-op  integral file:              53.89 MB
 Length of K-op  integral file:              87.81 MB
 Length of 3-ext integral record:             0.00 MB

 Memory could be reduced to 60.96 Mwords without degradation in triples

 Integral transformation finished. Total CPU:   5.58 sec, npass=  1  Memory used:  26.32 MW

 Reference energy:                    -76.06304153

 Adding F12 terms to K(Cij), methodcc=6,  factor= 1.0

 ITER.      SQ.NORM     CORR.ENERGY   TOTAL ENERGY   ENERGY CHANGE        DEN1      VAR(S)    VAR(P)  DIIS     TIME  TIME/IT
   1      1.06288427    -0.27501893   -76.33806046    -0.00005574     0.00597625  0.77D-03  0.10D-02  1  1    19.48     3.89
   2      1.06631894    -0.27477372   -76.33781525     0.00024521    -0.00471460  0.14D-04  0.11D-03  2  2    23.37     4.04
   3      1.06755789    -0.27491118   -76.33795271    -0.00013746    -0.00083318  0.94D-05  0.74D-05  3  3    27.24     4.09
   4      1.06812700    -0.27493388   -76.33797541    -0.00002270    -0.00036846  0.46D-06  0.59D-06  4  4    31.09     4.11
   5      1.06822416    -0.27493229   -76.33797382     0.00000158    -0.00002150  0.14D-06  0.37D-07  5  5    34.98     4.13
   6      1.06825070    -0.27493094   -76.33797247     0.00000135    -0.00000443  0.12D-07  0.38D-08  6  6    38.82     4.14
   7      1.06825754    -0.27493055   -76.33797208     0.00000039    -0.00000155  0.11D-08  0.32D-09  6  1    42.70     4.15
   8      1.06825907    -0.27493060   -76.33797213    -0.00000006    -0.00000002  0.10D-09  0.41D-10  6  2    46.55     4.15
   9      1.06825944    -0.27493060   -76.33797213    -0.00000000     0.00000006  0.80D-11  0.71D-11  6  4    50.42     4.15
  10      1.06825955    -0.27493060   -76.33797213     0.00000000    -0.00000000  0.16D-11  0.55D-12  6  3    54.28     4.16

 Norm of t1 vector:      0.03651918      S-energy:     0.00000001      T1 diagnostic:  0.00912979
                                                                       D1 diagnostic:  0.01833134

 Adding energy correction from Wij-K(Fij), methodcc=6  factor= 1.0
 
  CCSD correlation energy              -0.274930600543
  MP2-F12 correction (uncoupled)       -0.024959026827
  C*T doubles correction               -0.000830002918
  f12b correction                       0.004281121570

 Total CPU time for triples:     21.72 sec

  Ecorr(MP2)                           -0.274963192113
  Ecorr(MP2-F12)                       -0.301035813571
  Scale factor for triples energy       1.094822224229


 RESULTS
 =======

  Reference energy                    -76.062079559789
  F12 singles correction               -0.000961971391

 F12 singles corrections added to reference energy

  New reference energy                -76.063041531180

  F12a singlet correction              -0.023088897022
  F12a triplet correction              -0.002700132723
  F12a total correction                -0.025789029745

 F12a corrections for ansatz F12/3C(FIX) added to CCSD energy
 
  CCSD-F12a singlet pair energy        -0.209856374517
  CCSD-F12a triplet pair energy        -0.090863262949
  CCSD-F12a correlation energy         -0.300719630288

  Triples (T) contribution (scaled)    -0.009806288914
  Total correlation energy             -0.310525919202

  CCSD-F12a total energy              -76.363761161469
  CCSD[T]-F12a energy                 -76.373908087665
  CCSD-T-F12a energy                  -76.373418198159
 !CCSD(T)-F12a total energy           -76.373567450382

 F12b corrections for ansatz F12/3C(FIX) added to CCSD(T)-F12a energy

  CCSD-F12b singlet pair energy        -0.205885362575
  CCSD-F12b triplet pair energy        -0.090553153320
  CCSD-F12b correlation energy         -0.296438508718

  Triples (T) contribution (scaled)    -0.009806288914
  Total correlation energy             -0.306244797632

  CCSD-F12b total energy              -76.359480039898
  CCSD[T]-F12b energy                 -76.369626966095
  CCSD-T-F12b energy                  -76.369137076589
 !CCSD(T)-F12b total energy           -76.369286328812

 Timing summary (sec):

 STEP                 CPU(USER)    SYS     CPU(TOT)    WALL
 Transformation          5.61      0.65      6.26      6.29
 CCSD iterations        38.50      3.14     41.64     41.69
 Triples                21.72      0.35     22.07     22.07
 MP2-F12                10.19      0.43     10.62     10.92
 F12b energy             3.38      0.25      3.63      3.65

 Program statistics:

 Available memory in ccsd:              2999999786
 Min. memory needed in ccsd:               1609972
 Max. memory used in ccsd:                 1864434
 Max. memory used in cckext:               1252381 (11 integral passes)



 **********************************************************************************************************************************
 DATASETS  * FILE   NREC   LENGTH (MB)   RECORD NAMES
              1      20     1920.27       500      610      700      900      950      970     1000      129      960     1100   
                                          VAR    BASINP    GEOM    SYMINP    ZMAT    AOBASIS   BASIS     P2S    ABASIS      S 
                                         1400     1410     1200     1210     1080     1600     1650     1300     1700     1380   
                                           T        V       H0       H01     AOSYM     SMH    MOLCAS    ERIS     OPER     JKOP   

              2       8       12.47       700     1000      520     2100     7360     7350     2101     2102   
                                         GEOM     BASIS   MCVARS     RHF    F12ABS    EF12      RHF      RHF  

 PROGRAMS   *        TOTAL   CCSD(T)        HF       INT   CCSD(T)        HF       INT   CCSD(T)        HF       INT
 CPU TIMES  *       532.92     79.43     25.41      0.06     79.59     20.92      0.07    286.10     25.45     15.74
 REAL TIME  *       681.34 SEC
 DISK USED  *         4.96 GB      
 **********************************************************************************************************************************
 SETTING E_F12_B(1)     =       -76.37356745  AU                              
 SETTING E_F12_B(2)     =       -76.36928633  AU                              
 SETTING E_INT_HF       =    -3.49005064D-05  AU                              
 SETTING E_INT_F12(1)   =        -0.00076677  AU                              
 SETTING E_INT_F12(2)   =        -0.00075932  AU                              
 E_INT_HF         =        -0.00003490 AU
 E_INT_F12(1:2)   = [      -0.00076677    -0.00075932] AU

 CCSD(T)-F12/cc-pVTZ-F12 energy=    -76.369286328812

     CCSD(T)-F12        HF-SCF       CCSD(T)-F12        HF-SCF       CCSD(T)-F12        HF-SCF  
    -76.36928633    -76.06207956    -40.45406073    -40.21549174   -116.82410638   -116.27760620
 **********************************************************************************************************************************
 Molpro calculation terminated
 Variable memory released
