
 Primary working directories    : /net/scratch/people/plgsirous
 Secondary working directories  : /net/scratch/people/plgsirous
 Wavefunction directory         : /net/people/plgsirous/wfu/
 Main file repository           : /net/scratch/people/plgsirous/

 SHA1      : 
 NAME      : 
 ARCHNAME  : linux/x86_64
 FC        : /net/software/local/intel/impi/2018.1.163/bin64/mpiifort
 BLASLIB   : -L/net/software/local/intel/compilers_and_libraries_2018.1.163/linux/mkl/lib/intel64 -lmkl_scalapack_ilp64 -lmkl_intel_ilp64 -lmkl_intel_thread -lmkl_core -lmkl_blacs_intelmpi_ilp64 -liomp5 -lpthread -lm -ldl
 id        : pl

 Nodes     nprocs
 p1417        1

 Using customized tuning parameters: mindgm=7; mindgv=20; mindgc=1; mindgr=1; noblas=0; minvec=7
 default implementation of scratch files=df  

 memory,3000,m
 zsymel=nosym
 angstrom
 geometry={
 C1        -3.2772    1.4825     1.2719
 H1        -2.4640    0.8996     1.6510
 H2        -3.1608    2.5010     1.5785
 H3        -4.2018    1.0992     1.6501
 H4        -3.2685    1.4210     0.2037
 O1        -2.9219    2.4814     4.9062
 H5        -2.0274    2.4920     4.5145
 H6        -3.4188    3.1905     4.4460
 }
 basis=vtz-f12
 gthresh,orbital=1d-8,energy=1d-8,twoint=1.d-19
 
 
 nkerna=1
 nkernb=1
 nkernab=$nkerna+$nkernb
 
                                                                                 ! AB Dimer
 {hf,accu=1.d-8}
 E_HF_AB=energy
 core,$nkernab
 {ccsd(t)-f12,scale_trip=1,THRF12=1.d-12}
 E_F12_AB=energy
 
                                                                                 ! Monomer A Part
 
 dummy,6,7,8;
 {hf,accu=1.d-8}
 E_HF_A=energy
 core,$nkerna
 {ccsd(t)-f12,scale_trip=1,THRF12=1.d-12}
 E_F12_A=energy
 
                                                                                 ! Monomer B Part
 
 dummy,1,2,3,4,5;
 {hf,accu=1.d-8}
 E_HF_B=energy
 core,$nkernb
 {ccsd(t)-f12,scale_trip=1,THRF12=1.d-12}
 E_F12_B=energy
 
 E_int_HF = E_HF_AB-(E_HF_A+E_HF_B)
 E_int_F12 = E_F12_AB-(E_F12_A+E_F12_B)
 
 
 show,E_int_HF,E_int_F12

 Variables initialized (889), CPU time= 0.00 sec
 Commands  initialized (702), CPU time= 0.01 sec, 572 directives.
 Default parameters read. Elapsed time= 0.09 sec

 Checking input...
 Passed
1


                                         ***  PROGRAM SYSTEM MOLPRO  ***
                                       Copyright, TTI GmbH Stuttgart, 2015
                                    Version 2015.1 linked Jul  2 2018 15:03:07


 **********************************************************************************************************************************
 LABEL *                                                                                 
  64 bit serial version                                                                  DATE: 17-Jan-19          TIME: 14:52:55  
 **********************************************************************************************************************************

 SHA1:             
 **********************************************************************************************************************************
 SETTING ZSYMEL         =    NOSYM
 ZSYMEL=NOSYM
 ZUNIT=ANG
 

Geometry recognized as XYZ


 Variable memory set to 3000000000 words,  buffer space   230000 words

 SETTING BASIS          =    VTZ-F12

 THRESHOLDS:

 ZERO    =  1.00D-12  ONEINT  =  1.00D-12  TWOINT  =  1.00D-19  PREFAC  =  1.00D-14  LOCALI  =  1.00D-09  EORDER  =  1.00D-04
 ENERGY  =  1.00D-08  ETEST   =  0.00D+00  EDENS   =  0.00D+00  THRDEDEF=  1.00D-06  GRADIENT=  1.00D-02  STEP    =  1.00D-03
 ORBITAL =  1.00D-08  CIVEC   =  1.00D-05  COEFF   =  1.00D-04  PRINTCI =  5.00D-02  PUNCHCI =  9.90D+01  OPTGRAD =  3.00D-04
 OPTENERG=  1.00D-06  OPTSTEP =  3.00D-04  THRGRAD =  1.00D-10  COMPRESS=  1.00D-11  VARMIN  =  1.00D-07  VARMAX  =  1.00D-03
 THRDOUB =  0.00D+00  THRDIV  =  1.00D-05  THRRED  =  1.00D-07  THRPSP  =  1.00D+00  THRDC   =  1.00D-10  THRCS   =  1.00D-10
 THRNRM  =  1.00D-08  THREQ   =  0.00D+00  THRDE   =  1.00D+00  THRREF  =  1.00D-05  SPARFAC =  1.00D+00  THRDLP  =  1.00D-07
 THRDIA  =  1.00D-10  THRDLS  =  1.00D-07  THRGPS  =  0.00D+00  THRKEX  =  0.00D+00  THRDIS  =  2.00D-01  THRVAR  =  1.00D-10
 THRLOC  =  1.00D-06  THRGAP  =  1.00D-06  THRLOCT = -1.00D+00  THRGAPT = -1.00D+00  THRORB  =  1.00D-06  THRMLTP =  0.00D+00
 THRCPQCI=  1.00D-10  KEXTA   =  0.00D+00  THRCOARS=  0.00D+00  SYMTOL  =  1.00D-06  GRADTOL =  1.00D-06  THROVL  =  1.00D-08
 THRORTH =  1.00D-08  GRID    =  1.00D-06  GRIDMAX =  1.00D-03  DTMAX   =  0.00D+00  THROCCDE=  1.00D-01  THROCCDE=  1.00D-01


 SETTING NKERNA         =         1.00000000                                  
 SETTING NKERNB         =         1.00000000                                  
 SETTING NKERNAB        =         2.00000000                                  


 Recomputing integrals since basis changed


 Using spherical harmonics

 Library entry C      S cc-pVTZ-F12          selected for orbital group  1
 Library entry C      P cc-pVTZ-F12          selected for orbital group  1
 Library entry C      D cc-pVTZ-F12          selected for orbital group  1
 Library entry C      F cc-pVTZ-F12          selected for orbital group  1
 Library entry H      S cc-pVTZ-F12          selected for orbital group  2
 Library entry H      P cc-pVTZ-F12          selected for orbital group  2
 Library entry H      D cc-pVTZ-F12          selected for orbital group  2
 Library entry O      S cc-pVTZ-F12          selected for orbital group  3
 Library entry O      P cc-pVTZ-F12          selected for orbital group  3
 Library entry O      D cc-pVTZ-F12          selected for orbital group  3
 Library entry O      F cc-pVTZ-F12          selected for orbital group  3


 PROGRAM * SEWARD (Integral evaluation for generally contracted gaussian basis sets)     Author: Roland Lindh, 1990

 Geometry written to block  1 of record 700


 Point group  C1  



 ATOMIC COORDINATES

 NR  ATOM    CHARGE       X              Y              Z

   1  C1      6.00   -6.193010455    2.801518980    2.403542658
   2  H1      1.00   -4.656285171    1.699997622    3.119937832
   3  H2      1.00   -5.973046335    4.726205038    2.982932688
   4  H3      1.00   -7.940251230    2.077186956    3.118237078
   5  H4      1.00   -6.176569838    2.685300823    0.384937212
   6  O1      8.00   -5.521590763    4.689166405    9.271374312
   7  H5      1.00   -3.831230745    4.709197502    8.531168589
   8  H6      1.00   -6.460595675    6.029171200    8.401722350

 Bond lengths in Bohr (Angstrom)

 1-2  2.021904040  1-3  2.022002335  1-4  2.021953343  1-5  2.022015060  6-7  1.845432944
     ( 1.069945541)     ( 1.069997556)     ( 1.069971630)     ( 1.070004290)     ( 0.976561058)

 6-8  1.853007720
     ( 0.980569457)

 Bond angles

  2-1-3  109.53398059   2-1-4  109.65604535   2-1-5  108.43490854   3-1-4  109.49436728

  3-1-5  109.86987750   4-1-5  109.83468330   7-6-8  105.54946434

 NUCLEAR CHARGE:                   20
 NUMBER OF PRIMITIVE AOS:         270
 NUMBER OF SYMMETRY AOS:          246
 NUMBER OF CONTRACTIONS:          214   ( 214A   )
 NUMBER OF CORE ORBITALS:           2   (   2A   )
 NUMBER OF VALENCE ORBITALS:       14   (  14A   )


 NUCLEAR REPULSION ENERGY   36.73986578


 Eigenvalues of metric

         1 0.716E-04 0.201E-03 0.278E-03 0.331E-03 0.334E-03 0.455E-03 0.552E-03 0.559E-03


 Contracted 2-electron integrals neglected if value below      1.0D-19
 AO integral compression algorithm  1   Integral accuracy      1.0D-19

     2121.269 MB (compressed) written to integral file ( 87.0%)


 NUMBER OF SORTED TWO-ELECTRON INTEGRALS:  264626515.     BUFFER LENGTH:  32768
 NUMBER OF SEGMENTS:  17  SEGMENT LENGTH:   15999762      RECORD LENGTH: 524288

 Memory used in sort:      16.56 MW

 SORT1 READ   304636334. AND WROTE   250062278. INTEGRALS IN    723 RECORDS. CPU TIME:     3.28 SEC, REAL TIME:    14.56 SEC
 SORT2 READ   250062278. AND WROTE   264626515. INTEGRALS IN   8092 RECORDS. CPU TIME:     3.10 SEC, REAL TIME:     7.30 SEC

 FILE SIZES:   FILE 1:  2143.0 MBYTE,  FILE 4:  3032.5 MBYTE,   TOTAL:   5175.5 MBYTE

 OPERATOR DM      FOR CENTER  0  COORDINATES:    0.000000    0.000000    0.000000


 **********************************************************************************************************************************
 DATASETS  * FILE   NREC   LENGTH (MB)   RECORD NAMES
              1      19     1886.07       500      610      700      900      950      970     1000      129      960     1100   
                                          VAR    BASINP    GEOM    SYMINP    ZMAT    AOBASIS   BASIS     P2S    ABASIS      S 
                                         1400     1410     1200     1210     1080     1600     1650     1300     1700   
                                           T        V       H0       H01     AOSYM     SMH    MOLCAS    ERIS     OPER   

 PROGRAMS   *        TOTAL       INT
 CPU TIMES  *        16.07     15.94
 REAL TIME  *        37.29 SEC
 DISK USED  *         5.18 GB      
 **********************************************************************************************************************************


 PROGRAM * RHF-SCF (CLOSED SHELL)       Authors: W. Meyer, H.-J. Werner


 NUMBER OF ELECTRONS:      10+   10-    SPACE SYMMETRY=1    SPIN SYMMETRY: Singlet 
 CONVERGENCE THRESHOLDS:    1.00E-04 (Density)    1.00E-09 (Energy)
 MAX. NUMBER OF ITERATIONS:       60
 INTERPOLATION TYPE:            DIIS
 INTERPOLATION STEPS:              2 (START)      1 (STEP)
 LEVEL SHIFTS:                  0.00 (CLOSED)  0.00 (OPEN) 



 Orbital guess generated from atomic densities. Full valence occupancy:   16

 Molecular orbital dump at record        2100.2

 Initial occupancy:  10

 ITERATION    DDIFF          GRAD             ENERGY        2-EL.EN.            DIPOLE MOMENTS         DIIS   ORB.
    1      0.000D+00      0.000D+00      -116.21954023    158.915018    0.38833    0.69482   -0.82801    0    start
    2      0.000D+00      0.548D-02      -116.26374876    154.067520    0.20672    0.36178   -0.48818    1    diag
    3      0.563D-02      0.321D-02      -116.27729765    156.094430    0.25310    0.44720   -0.57341    2    diag
    4      0.183D-02      0.478D-03      -116.27796042    155.981009    0.25002    0.44147   -0.56497    3    diag
    5      0.419D-03      0.140D-03      -116.27802932    155.975441    0.24967    0.44099   -0.56486    4    diag
    6      0.154D-03      0.338D-04      -116.27803310    155.981123    0.24939    0.44048   -0.56430    5    diag
    7      0.400D-04      0.669D-05      -116.27803332    155.979398    0.24940    0.44050   -0.56429    6    diag
    8      0.106D-04      0.167D-05      -116.27803334    155.979577    0.24937    0.44045   -0.56424    7    diag
    9      0.296D-05      0.399D-06      -116.27803334    155.979551    0.24936    0.44044   -0.56423    8    diag
   10      0.601D-06      0.473D-07      -116.27803334    155.979553    0.24936    0.44044   -0.56423    0    orth

 Final occupancy:  10

 !RHF STATE 1.1 Energy               -116.278033336887
 Nuclear energy                        36.73986578
 One-electron energy                 -231.00767575
 Two-electron energy                   77.98977663
 Virial quotient                       -1.00069142
 !RHF STATE 1.1 Dipole moment           0.24936287     0.44043848    -0.56422502
 Dipole moment /Debye                   0.63377568     1.11940964    -1.43402302

 Orbital energies:

         1.1          2.1          3.1          4.1          5.1          6.1          7.1          8.1          9.1         10.1
    -20.566909   -11.199738    -1.340508    -0.954048    -0.707311    -0.578524    -0.555668    -0.553248    -0.551064    -0.507043

        11.1         12.1
      0.054981     0.069672

 HOMO     10.1    -0.507043 =     -13.7973eV
 LUMO     11.1     0.054981 =       1.4961eV
 LUMO-HOMO         0.562023 =      15.2934eV


 **********************************************************************************************************************************
 DATASETS  * FILE   NREC   LENGTH (MB)   RECORD NAMES
              1      19     1886.07       500      610      700      900      950      970     1000      129      960     1100   
                                          VAR    BASINP    GEOM    SYMINP    ZMAT    AOBASIS   BASIS     P2S    ABASIS      S 
                                         1400     1410     1200     1210     1080     1600     1650     1300     1700   
                                           T        V       H0       H01     AOSYM     SMH    MOLCAS    ERIS     OPER   

              2       4        3.81       700     1000      520     2100   
                                         GEOM     BASIS   MCVARS     RHF  

 PROGRAMS   *        TOTAL        HF       INT
 CPU TIMES  *        41.00     24.93     15.94
 REAL TIME  *        66.85 SEC
 DISK USED  *         5.18 GB      
 **********************************************************************************************************************************
 SETTING E_HF_AB        =      -116.27803334  AU                              


 PROGRAM * CCSD (Closed-shell coupled cluster)     Authors: C. Hampel, H.-J. Werner, 1991, M. Deegan, P.J. Knowles, 1992

                                  CCSD-F12 implementation by  H.-J. Werner, 2007

                   Density fitting integral evaluation by F.R. Manby, 2003,2007, G. Knizia, 2010

 Basis set CC-PVTZ/JKFIT generated.      Number of basis functions:   338 
 Basis set CC-PVTZ-F12/OPTRI generated.  Number of basis functions:   396 
 Basis set AUG-CC-PVTZ/MP2FIT generated. Number of basis functions:   488 

 Convergence thresholds:  THRVAR = 1.00D-08  THRDEN = 1.00D-08

 CCSD(T)     terms to be evaluated (factor= 1.000)


 Number of core orbitals:           2 (   2 )
 Number of closed-shell orbitals:   8 (   8 )
 Number of external orbitals:     204 ( 204 )

 Molecular orbitals read from record     2100.2  Type=RHF/CANONICAL (state 1.1)

 MP2-F12 correlation treatment (H.-J. Werner, 2006)
 ==================================================

 Using MP2-F12 with ansatz 3C(FIX)

 Using projected zeroth-order Hamiltonian (+Z)

 FOCKRIB=T FOCKRIC=T FOCKRIP=T CABSP=T CABSA=T CABSK=T CABSF=T GBC=F EBC=F DMAT=T NOFIK=T NOPAO=1 SOLVE=-1  USEPAO=0
 EXCH_A= T EXCH_B= F EXCH_C= F EXCH_P= F
 
 Geminal basis:    OPTFULL  GEM_TYPE=SLATER  BETA=1.0  NGEM=6

 Optimizing Gaussian exponents for each gem_beta

 Geminal optimization for beta= 1.0000
 Weight function:   m=0, omega= 1.4646

 Augmented Hessian optimization of geminal fit. Trust ratio= 0.40000
 Convergence reached after   2 iterations. Final gradient= 8.26D-16, Step= 4.26D-06, Delta= 1.28D-09
 
 Alpha:                 0.19532     0.81920     2.85917     9.50073    35.69989   197.79328
 Coeff:                 0.27070     0.30552     0.18297     0.10986     0.06810     0.04224
 

 All pairs explicitly correlated. Number of r12-pairs:           36

 Excluding core orbitals from MO domains
 
 AO(A)-basis ORBITAL           loaded. Number of functions:     214
 RI(R)-basis CC-PVTZ-F12/OPTRI loaded. Number of functions:     396
 DF-basis CC-PVTZ/JKFIT        loaded. Number of functions:     338

 Screening thresholds:   THRAO=  1.00D-10  THRMO=  1.00D-09  THRPROD=  1.00D-09
                         THRSW=  1.00D-05  THROV=  1.00D-12  THRAOF12=   1.00D-08

 CPU time for Fock operators                      2.98 sec
 
 Construction of ABS:
 Smallest eigenvalue of S          4.15E-04  (threshold= 1.00E-08)
 Ratio eigmin/eigmax               5.33E-05  (threshold= 1.00E-09)
 Smallest eigenvalue of S kept     4.15E-04  (threshold= 4.15E-04, 0 functions deleted, 396 kept)
 
 Construction of CABS:
 Smallest eigenvalue of S          8.20E-07  (threshold= 1.00E-08)
 Ratio eigmin/eigmax               8.20E-07  (threshold= 1.00E-09)
 Smallest eigenvalue of S kept     8.20E-07  (threshold= 8.20E-07, 0 functions deleted, 396 kept)
 
 CPU time for CABS singles                        0.11 sec

 CABS-singles contribution of  -0.00160812 patched into reference energy.
 New reference energy        -116.27964146
 
 AO(A)-basis ORBITAL           loaded. Number of functions:     214
 RI(R)-basis CC-PVTZ-F12/OPTRI loaded. Number of functions:     396
 DF-basis AUG-CC-PVTZ/MP2FIT   loaded. Number of functions:     488

 Screening thresholds:   THRAO=  1.00D-10  THRMO=  1.00D-09  THRPROD=  1.00D-09
                         THRSW=  1.00D-05  THROV=  1.00D-12  THRAOF12=   1.00D-08

 CPU time for 3-index integral evaluation         6.29 sec
 CPU time for first  half transformation          0.36 sec (14304.9 MFLOP/sec)
 CPU time for sorting                             0.02 sec
 CPU time for fitting                             0.09 sec (27095.5 MFLOP/sec)
 CPU time for tilde quantities                    0.08 sec (40198.7 MFLOP/sec)
 CPU time for assembly                            0.80 sec (37423.1 MFLOP/sec)
 CPU time for tranop_f12                          1.06 sec (36539.4 MFLOP/sec)
 CPU time for f12 integrals (total)              10.15 sec, Elapsed time:     11.64 sec
 CPU time for f12 matrices (total)                0.33 sec, Elapsed time:      0.41 sec

 Diagonal F12 approximation with fixed coefficients:  TSING= 0.500,  TTRIP= 0.250 (scaled by -1/beta)

 DF-MP2-F12 energy corrections:
 ==============================
 Approx.                                    Singlet             Triplet             Total
 DF-MP2-F12/3*C(DX,FIX)                -0.041429595628     -0.004153074204     -0.045582669832
 DF-MP2-F12/3*C(FIX)                   -0.039298032777     -0.003883822094     -0.043181854870
 DF-MP2-F12/3C(FIX)                    -0.039160480433     -0.003992230925     -0.043152711358

 DF-MP2-F12 correlation energies:
 ================================
 Approx.                                    Singlet             Triplet             Ecorr            Total Energy
 DF-MP2                                -0.320703753248     -0.156030854040     -0.476734607287   -116.756376067645
 DF-MP2-F12/3*C(DX,FIX)                -0.362133348876     -0.160183928244     -0.522317277119   -116.801958737477
 DF-MP2-F12/3*C(FIX)                   -0.360001786024     -0.159914676133     -0.519916462157   -116.799557922515
 DF-MP2-F12/3C(FIX)                    -0.359864233681     -0.160023084965     -0.519887318645   -116.799528779003

 SCS-DF-MP2 energies (F_SING= 1.20000  F_TRIP= 0.62222  F_PARALLEL= 0.33333):
 ============================================================================
 SCS-DF-MP2                            -0.481930368633   -116.761571828990
 SCS-DF-MP2-F12/3*C(DX,FIX)            -0.534230018447   -116.813871478804
 SCS-DF-MP2-F12/3*C(FIX)               -0.531504608379   -116.811146068736
 SCS-DF-MP2-F12/3C(FIX)                -0.531406999950   -116.811048460308
 Symmetry transformation completed.

 Number of N-1 electron functions:               8
 Number of N-2 electron functions:              36
 Number of singly external CSFs:              1632
 Number of doubly external CSFs:           1332528
 Total number of CSFs:                     1334161

 Length of J-op  integral file:             205.73 MB
 Length of K-op  integral file:             258.78 MB
 Length of 3-ext integral record:             0.00 MB

 Memory could be reduced to 93.27 Mwords without degradation in triples

 Integral transformation finished. Total CPU:   9.75 sec, npass=  1  Memory used:  48.07 MW

 Reference energy:                   -116.27964146

 Adding F12 terms to K(Cij), methodcc=6,  factor= 1.0

 ITER.      SQ.NORM     CORR.ENERGY   TOTAL ENERGY   ENERGY CHANGE        DEN1      VAR(S)    VAR(P)  DIIS     TIME  TIME/IT
   1      1.13254054    -0.49195546  -116.77159692    -0.01514571    -0.00361148  0.14D-02  0.20D-02  1  1    32.57     9.27
   2      1.14053244    -0.49252200  -116.77216346    -0.00056654    -0.00959586  0.30D-04  0.23D-03  2  2    41.67    16.17
   3      1.14355235    -0.49277674  -116.77241820    -0.00025473    -0.00214113  0.12D-04  0.13D-04  3  3    50.79    14.00
   4      1.14452923    -0.49280879  -116.77245025    -0.00003206    -0.00060646  0.60D-06  0.11D-05  4  4    59.91    12.93
   5      1.14468792    -0.49280792  -116.77244938     0.00000087    -0.00003038  0.18D-06  0.67D-07  5  5    69.03    12.34
   6      1.14472306    -0.49280566  -116.77244712     0.00000226    -0.00000677  0.15D-07  0.74D-08  6  6    78.16    16.25
   7      1.14473227    -0.49280473  -116.77244619     0.00000093    -0.00000299  0.18D-08  0.61D-09  6  1    87.27    15.39
   8      1.14473396    -0.49280485  -116.77244631    -0.00000012     0.00000021  0.27D-09  0.83D-10  6  3    96.44    14.68
   9      1.14473495    -0.49280481  -116.77244627     0.00000004    -0.00000033  0.23D-10  0.15D-10  6  2   105.58    23.58
  10      1.14473511    -0.49280482  -116.77244628    -0.00000000     0.00000005  0.28D-11  0.15D-11  6  4   114.70    22.19
  11      1.14473511    -0.49280482  -116.77244628     0.00000000     0.00000004  0.43D-12  0.20D-12  6  5   123.89    21.99

 Norm of t1 vector:      0.04944980      S-energy:     0.00000000      T1 diagnostic:  0.00874157
                                                                       D1 diagnostic:  0.01896342

 Adding energy correction from Wij-K(Fij), methodcc=6  factor= 1.0
 
  CCSD correlation energy              -0.492804815927
  MP2-F12 correction (uncoupled)       -0.041721897573
  C*T doubles correction               -0.001132035266
  f12b correction                       0.007812537540


 Total CPU time for triples:    157.51 sec

  Ecorr(MP2)                           -0.476809749714
  Ecorr(MP2-F12)                       -0.519962461072
  Scale factor for triples energy       1.090502997021


 RESULTS
 =======

  Reference energy                   -116.278033336886
  F12 singles correction               -0.001608123471

 F12 singles corrections added to reference energy

  New reference energy               -116.279641460357

  F12a singlet correction              -0.038983411147
  F12a triplet correction              -0.003870521692
  F12a total correction                -0.042853932839

 F12a corrections for ansatz F12/3C(FIX) added to CCSD energy
 
  CCSD-F12a singlet pair energy        -0.389052604341
  CCSD-F12a triplet pair energy        -0.146606148230
  CCSD-F12a correlation energy         -0.535658748765

  Triples (T) contribution (scaled)    -0.016892680299
  Total correlation energy             -0.552551429065

  CCSD-F12a total energy             -116.815300209123
  CCSD[T]-F12a energy                -116.832777904930
  CCSD-T-F12a energy                 -116.831968958024
 !CCSD(T)-F12a total energy          -116.832192889422

 F12b corrections for ansatz F12/3C(FIX) added to CCSD(T)-F12a energy

  CCSD-F12b singlet pair energy        -0.381706221886
  CCSD-F12b triplet pair energy        -0.146139993144
  CCSD-F12b correlation energy         -0.527846211225

  Triples (T) contribution (scaled)    -0.016892680299
  Total correlation energy             -0.544738891525

  CCSD-F12b total energy             -116.807487671582
  CCSD[T]-F12b energy                -116.824965367390
  CCSD-T-F12b energy                 -116.824156420484
 !CCSD(T)-F12b total energy          -116.824380351882

 Timing summary (sec):

 STEP                 CPU(USER)    SYS     CPU(TOT)    WALL
 Transformation          9.86      1.19     11.05     18.85
 CCSD iterations       100.23      6.08    106.31    241.99
 Triples               157.51      2.56    160.07    160.09
 MP2-F12                13.81      1.37     15.18     45.11
 F12b energy             7.26      0.35      7.61      7.62

 Program statistics:

 Available memory in ccsd:              2999999464
 Min. memory needed in ccsd:               3963025
 Max. memory used in ccsd:                 5096465
 Max. memory used in cckext:               3666031 (12 integral passes)



 **********************************************************************************************************************************
 DATASETS  * FILE   NREC   LENGTH (MB)   RECORD NAMES
              1      20     2179.62       500      610      700      900      950      970     1000      129      960     1100   
                                          VAR    BASINP    GEOM    SYMINP    ZMAT    AOBASIS   BASIS     P2S    ABASIS      S 
                                         1400     1410     1200     1210     1080     1600     1650     1300     1700     1380   
                                           T        V       H0       H01     AOSYM     SMH    MOLCAS    ERIS     OPER     JKOP   

              2       6        4.74       700     1000      520     2100     7360     7350   
                                         GEOM     BASIS   MCVARS     RHF    F12ABS    EF12   

 PROGRAMS   *        TOTAL   CCSD(T)        HF       INT
 CPU TIMES  *       329.72    288.71     24.93     15.94
 REAL TIME  *       540.72 SEC
 DISK USED  *         5.18 GB      
 **********************************************************************************************************************************
 SETTING E_F12_AB(1)    =      -116.83219289  AU                              
 SETTING E_F12_AB(2)    =      -116.82438035  AU                              

 Dummy atoms: O1  H5  H6


 Recomputing one-electron integrals since nuclear charges changed


 PROGRAM * SEWARD (Integral evaluation for generally contracted gaussian basis sets)     Author: Roland Lindh, 1990

 Geometry written to block  1 of record 700


 Point group  C1  



 ATOMIC COORDINATES

 NR  ATOM    CHARGE       X              Y              Z

   1  C1      6.00   -6.193010455    2.801518980    2.403542658
   2  H1      1.00   -4.656285171    1.699997622    3.119937832
   3  H2      1.00   -5.973046335    4.726205038    2.982932688
   4  H3      1.00   -7.940251230    2.077186956    3.118237078
   5  H4      1.00   -6.176569838    2.685300823    0.384937212
   6  O1      0.00   -5.521590763    4.689166405    9.271374312
   7  H5      0.00   -3.831230745    4.709197502    8.531168589
   8  H6      0.00   -6.460595675    6.029171200    8.401722350

 Bond lengths in Bohr (Angstrom)

 1-2  2.021904040  1-3  2.022002335  1-4  2.021953343  1-5  2.022015060  6-7  1.845432944
     ( 1.069945541)     ( 1.069997556)     ( 1.069971630)     ( 1.070004290)     ( 0.976561058)

 6-8  1.853007720
     ( 0.980569457)

 Bond angles

  2-1-3  109.53398059   2-1-4  109.65604535   2-1-5  108.43490854   3-1-4  109.49436728

  3-1-5  109.86987750   4-1-5  109.83468330   7-6-8  105.54946434

 NUCLEAR CHARGE:                   10
 NUMBER OF PRIMITIVE AOS:         270
 NUMBER OF SYMMETRY AOS:          246
 NUMBER OF CONTRACTIONS:          214   ( 214A   )
 NUMBER OF CORE ORBITALS:           1   (   1A   )
 NUMBER OF VALENCE ORBITALS:        8   (   8A   )

 MOLECULE CHANGED: INITIALIZING OCCUPATION AND DUMP RECORDS


 NUCLEAR REPULSION ENERGY   13.68681606


 Eigenvalues of metric

         1 0.716E-04 0.201E-03 0.278E-03 0.331E-03 0.334E-03 0.455E-03 0.552E-03 0.559E-03


 Contracted 2-electron integrals neglected if value below      1.0D-19

 OPERATOR DM      FOR CENTER  0  COORDINATES:    0.000000    0.000000    0.000000


 **********************************************************************************************************************************
 DATASETS  * FILE   NREC   LENGTH (MB)   RECORD NAMES
              1      19     1886.07       500      610      700      900      950      970     1000      129      960     1100   
                                          VAR    BASINP    GEOM    SYMINP    ZMAT    AOBASIS   BASIS     P2S    ABASIS      S 
                                         1400     1410     1200     1210     1080     1600     1650     1300     1700   
                                           T        V       H0       H01     AOSYM     SMH    MOLCAS    ERIS     OPER   

              2       6        4.74       700     1000      520     2100     7360     7350   
                                         GEOM     BASIS   MCVARS     RHF    F12ABS    EF12   

 PROGRAMS   *        TOTAL       INT   CCSD(T)        HF       INT
 CPU TIMES  *       329.79      0.07    288.71     24.93     15.94
 REAL TIME  *       541.10 SEC
 DISK USED  *         5.18 GB      
 **********************************************************************************************************************************


 PROGRAM * RHF-SCF (CLOSED SHELL)       Authors: W. Meyer, H.-J. Werner


 NUMBER OF ELECTRONS:       5+    5-    SPACE SYMMETRY=1    SPIN SYMMETRY: Singlet 
 CONVERGENCE THRESHOLDS:    1.00E-04 (Density)    1.00E-09 (Energy)
 MAX. NUMBER OF ITERATIONS:       60
 INTERPOLATION TYPE:            DIIS
 INTERPOLATION STEPS:              2 (START)      1 (STEP)
 LEVEL SHIFTS:                  0.00 (CLOSED)  0.00 (OPEN) 



 Orbital guess generated from atomic densities. Full valence occupancy:    9

 Molecular orbital dump at record        2101.2

 Initial occupancy:   5

 ITERATION    DDIFF          GRAD             ENERGY        2-EL.EN.            DIPOLE MOMENTS         DIIS   ORB.
    1      0.000D+00      0.000D+00       -40.19565543     53.501365    0.00415   -0.00272   -0.00132    0    start
    2      0.000D+00      0.368D-02       -40.21290059     52.216649    0.00133   -0.00085   -0.00044    1    diag
    3      0.318D-02      0.143D-02       -40.21516947     52.670306    0.00185   -0.00121   -0.00062    2    diag
    4      0.855D-03      0.357D-03       -40.21548772     52.615359    0.00165   -0.00108   -0.00056    3    diag
    5      0.324D-03      0.463D-04       -40.21549319     52.617513    0.00162   -0.00106   -0.00056    4    diag
    6      0.556D-04      0.375D-05       -40.21549323     52.617658    0.00162   -0.00106   -0.00056    5    diag
    7      0.864D-05      0.302D-06       -40.21549323     52.617618    0.00161   -0.00106   -0.00056    6    diag
    8      0.992D-06      0.227D-07       -40.21549323     52.617619    0.00161   -0.00106   -0.00056    0    orth

 Final occupancy:   5

 !RHF STATE 1.1 Energy                -40.215493229913
 Nuclear energy                        13.68681606
 One-electron energy                  -80.21111903
 Two-electron energy                   26.30880975
 Virial quotient                       -0.99832368
 !RHF STATE 1.1 Dipole moment           0.00161488    -0.00105540    -0.00055676
 Dipole moment /Debye                   0.00410433    -0.00268239    -0.00141505

 Orbital energies:

         1.1          2.1          3.1          4.1          5.1          6.1          7.1
    -11.196271    -0.950712    -0.551938    -0.550002    -0.547826     0.054210     0.067299

 HOMO      5.1    -0.547826 =     -14.9071eV
 LUMO      6.1     0.054210 =       1.4751eV
 LUMO-HOMO         0.602036 =      16.3822eV


 **********************************************************************************************************************************
 DATASETS  * FILE   NREC   LENGTH (MB)   RECORD NAMES
              1      19     1886.07       500      610      700      900      950      970     1000      129      960     1100   
                                          VAR    BASINP    GEOM    SYMINP    ZMAT    AOBASIS   BASIS     P2S    ABASIS      S 
                                         1400     1410     1200     1210     1080     1600     1650     1300     1700   
                                           T        V       H0       H01     AOSYM     SMH    MOLCAS    ERIS     OPER   

              2       7        8.14       700     1000      520     2100     7360     7350     2101   
                                         GEOM     BASIS   MCVARS     RHF    F12ABS    EF12      RHF  

 PROGRAMS   *        TOTAL        HF       INT   CCSD(T)        HF       INT
 CPU TIMES  *       350.07     20.28      0.07    288.71     24.93     15.94
 REAL TIME  *       590.98 SEC
 DISK USED  *         5.18 GB      
 **********************************************************************************************************************************
 SETTING E_HF_A         =       -40.21549323  AU                              


 PROGRAM * CCSD (Closed-shell coupled cluster)     Authors: C. Hampel, H.-J. Werner, 1991, M. Deegan, P.J. Knowles, 1992

                                  CCSD-F12 implementation by  H.-J. Werner, 2007

                   Density fitting integral evaluation by F.R. Manby, 2003,2007, G. Knizia, 2010

 Basis set CC-PVTZ/JKFIT generated.      Number of basis functions:   338 
 Basis set CC-PVTZ-F12/OPTRI generated.  Number of basis functions:   396 
 Basis set AUG-CC-PVTZ/MP2FIT generated. Number of basis functions:   488 

 Convergence thresholds:  THRVAR = 1.00D-08  THRDEN = 1.00D-08

 CCSD(T)     terms to be evaluated (factor= 1.000)


 Number of core orbitals:           1 (   1 )
 Number of closed-shell orbitals:   4 (   4 )
 Number of external orbitals:     209 ( 209 )

 Molecular orbitals read from record     2101.2  Type=RHF/CANONICAL (state 1.1)

 MP2-F12 correlation treatment (H.-J. Werner, 2006)
 ==================================================

 Using MP2-F12 with ansatz 3C(FIX)

 Using projected zeroth-order Hamiltonian (+Z)

 FOCKRIB=T FOCKRIC=T FOCKRIP=T CABSP=T CABSA=T CABSK=T CABSF=T GBC=F EBC=F DMAT=T NOFIK=T NOPAO=1 SOLVE=-1  USEPAO=0
 EXCH_A= T EXCH_B= F EXCH_C= F EXCH_P= F
 
 Geminal basis:    OPTFULL  GEM_TYPE=SLATER  BETA=1.0  NGEM=6

 Optimizing Gaussian exponents for each gem_beta

 Geminal optimization for beta= 1.0000
 Weight function:   m=0, omega= 1.4646

 Augmented Hessian optimization of geminal fit. Trust ratio= 0.40000
 Convergence reached after   2 iterations. Final gradient= 8.26D-16, Step= 4.26D-06, Delta= 1.28D-09
 
 Alpha:                 0.19532     0.81920     2.85917     9.50073    35.69989   197.79328
 Coeff:                 0.27070     0.30552     0.18297     0.10986     0.06810     0.04224
 

 All pairs explicitly correlated. Number of r12-pairs:           10

 Excluding core orbitals from MO domains
 
 AO(A)-basis ORBITAL           loaded. Number of functions:     214
 RI(R)-basis CC-PVTZ-F12/OPTRI loaded. Number of functions:     396
 DF-basis CC-PVTZ/JKFIT        loaded. Number of functions:     338

 Screening thresholds:   THRAO=  1.00D-10  THRMO=  1.00D-09  THRPROD=  1.00D-09
                         THRSW=  1.00D-05  THROV=  1.00D-12  THRAOF12=   1.00D-08

 CPU time for Fock operators                      2.82 sec
 
 Construction of ABS:
 Smallest eigenvalue of S          4.15E-04  (threshold= 1.00E-08)
 Ratio eigmin/eigmax               5.33E-05  (threshold= 1.00E-09)
 Smallest eigenvalue of S kept     4.15E-04  (threshold= 4.15E-04, 0 functions deleted, 396 kept)
 
 Construction of CABS:
 Smallest eigenvalue of S          8.20E-07  (threshold= 1.00E-08)
 Ratio eigmin/eigmax               8.20E-07  (threshold= 1.00E-09)
 Smallest eigenvalue of S kept     8.20E-07  (threshold= 8.20E-07, 0 functions deleted, 396 kept)
 
 CPU time for CABS singles                        0.12 sec

 CABS-singles contribution of  -0.00063515 patched into reference energy.
 New reference energy         -40.21612838
 
 AO(A)-basis ORBITAL           loaded. Number of functions:     214
 RI(R)-basis CC-PVTZ-F12/OPTRI loaded. Number of functions:     396
 DF-basis AUG-CC-PVTZ/MP2FIT   loaded. Number of functions:     488

 Screening thresholds:   THRAO=  1.00D-10  THRMO=  1.00D-09  THRPROD=  1.00D-09
                         THRSW=  1.00D-05  THROV=  1.00D-12  THRAOF12=   1.00D-08

 CPU time for 3-index integral evaluation         6.53 sec
 CPU time for first  half transformation          0.68 sec ( 3786.6 MFLOP/sec)
 CPU time for second half transformation          0.01 sec ( 2924.1 MFLOP/sec)
 CPU time for sorting                             0.01 sec
 CPU time for fitting                             0.03 sec (39690.7 MFLOP/sec)
 CPU time for tilde quantities                    0.05 sec (31777.9 MFLOP/sec)
 CPU time for assembly                            0.22 sec (36254.9 MFLOP/sec)
 CPU time for tranop_f12                          0.27 sec (35487.5 MFLOP/sec)
 CPU time for f12 integrals (total)               8.35 sec, Elapsed time:     22.54 sec
 CPU time for f12 matrices (total)                0.08 sec, Elapsed time:      0.13 sec

 Diagonal F12 approximation with fixed coefficients:  TSING= 0.500,  TTRIP= 0.250 (scaled by -1/beta)

 DF-MP2-F12 energy corrections:
 ==============================
 Approx.                                    Singlet             Triplet             Total
 DF-MP2-F12/3*C(DX,FIX)                -0.016286368943     -0.001139950284     -0.017426319227
 DF-MP2-F12/3*C(FIX)                   -0.015925669652     -0.001149774401     -0.017075444053
 DF-MP2-F12/3C(FIX)                    -0.015857540679     -0.001156914779     -0.017014455458

 DF-MP2-F12 correlation energies:
 ================================
 Approx.                                    Singlet             Triplet             Ecorr            Total Energy
 DF-MP2                                -0.145615487175     -0.055804841084     -0.201420328259    -40.417548707241
 DF-MP2-F12/3*C(DX,FIX)                -0.161901856118     -0.056944791368     -0.218846647486    -40.434975026468
 DF-MP2-F12/3*C(FIX)                   -0.161541156827     -0.056954615485     -0.218495772312    -40.434624151294
 DF-MP2-F12/3C(FIX)                    -0.161473027854     -0.056961755864     -0.218434783718    -40.434563162700

 SCS-DF-MP2 energies (F_SING= 1.20000  F_TRIP= 0.62222  F_PARALLEL= 0.33333):
 ============================================================================
 SCS-DF-MP2                            -0.209461596840    -40.425589975822
 SCS-DF-MP2-F12/3*C(DX,FIX)            -0.229714541970    -40.445842920953
 SCS-DF-MP2-F12/3*C(FIX)               -0.229287815606    -40.445416194588
 SCS-DF-MP2-F12/3C(FIX)                -0.229210503740    -40.445338882722
 Symmetry transformation completed.

 Number of N-1 electron functions:               4
 Number of N-2 electron functions:              10
 Number of singly external CSFs:               836
 Number of doubly external CSFs:            349866
 Total number of CSFs:                      350703

 Length of J-op  integral file:              53.89 MB
 Length of K-op  integral file:              87.81 MB
 Length of 3-ext integral record:             0.00 MB

 Memory could be reduced to 60.96 Mwords without degradation in triples

 Integral transformation finished. Total CPU:   5.70 sec, npass=  1  Memory used:  26.32 MW

 Reference energy:                    -40.21612838

 Adding F12 terms to K(Cij), methodcc=6,  factor= 1.0

 ITER.      SQ.NORM     CORR.ENERGY   TOTAL ENERGY   ENERGY CHANGE        DEN1      VAR(S)    VAR(P)  DIIS     TIME  TIME/IT
   1      1.06960569    -0.21652316   -40.43265154    -0.01506811    -0.00954327  0.62D-03  0.94D-03  1  1    21.04     4.03
   2      1.07446086    -0.21733986   -40.43346824    -0.00081670    -0.00516311  0.14D-04  0.90D-04  2  2    25.02     4.20
   3      1.07598219    -0.21745126   -40.43357964    -0.00011139    -0.00108932  0.20D-05  0.57D-05  3  3    28.99     4.27
   4      1.07635146    -0.21746579   -40.43359417    -0.00001453    -0.00020073  0.13D-06  0.31D-06  4  4    32.91     4.29
   5      1.07640332    -0.21746542   -40.43359380     0.00000037    -0.00000934  0.78D-08  0.15D-07  5  5    36.87     4.34
   6      1.07640963    -0.21746417   -40.43359255     0.00000125    -0.00000294  0.32D-09  0.88D-09  6  6    40.85     4.39
   7      1.07641038    -0.21746409   -40.43359247     0.00000007    -0.00000042  0.22D-10  0.73D-10  6  1    44.79     4.38
   8      1.07641047    -0.21746412   -40.43359250    -0.00000003     0.00000001  0.29D-11  0.64D-11  6  2    48.75     4.38
   9      1.07641047    -0.21746413   -40.43359250    -0.00000001     0.00000003  0.21D-12  0.36D-12  6  3    52.71     4.38
  10      1.07641046    -0.21746413   -40.43359250    -0.00000000     0.00000001  0.24D-13  0.35D-13  6  4    56.68     4.40

 Norm of t1 vector:      0.03261188      S-energy:    -0.00000000      T1 diagnostic:  0.00815297
                                                                       D1 diagnostic:  0.01307520

 Adding energy correction from Wij-K(Fij), methodcc=6  factor= 1.0
 
  CCSD correlation energy              -0.217464125227
  MP2-F12 correction (uncoupled)       -0.016715122259
  C*T doubles correction               -0.000290351139
  f12b correction                       0.003525471694


 Total CPU time for triples:     23.12 sec

  Ecorr(MP2)                           -0.201455049715
  Ecorr(MP2-F12)                       -0.218469505174
  Scale factor for triples energy       1.084457825616


 RESULTS
 =======

  Reference energy                    -40.215493229913
  F12 singles correction               -0.000635149069

 F12 singles corrections added to reference energy

  New reference energy                -40.216128378982

  F12a singlet correction              -0.015861066146
  F12a triplet correction              -0.001144407252
  F12a total correction                -0.017005473398

 F12a corrections for ansatz F12/3C(FIX) added to CCSD energy
 
  CCSD-F12a singlet pair energy        -0.179253437566
  CCSD-F12a triplet pair energy        -0.055216160607
  CCSD-F12a correlation energy         -0.234469598626

  Triples (T) contribution (scaled)    -0.006988544316
  Total correlation energy             -0.241458142942

  CCSD-F12a total energy              -40.450597977608
  CCSD[T]-F12a energy                 -40.457827980352
  CCSD-T-F12a energy                  -40.457513150896
 !CCSD(T)-F12a total energy           -40.457586521924

 F12b corrections for ansatz F12/3C(FIX) added to CCSD(T)-F12a energy

  CCSD-F12b singlet pair energy        -0.175882789004
  CCSD-F12b triplet pair energy        -0.055061337475
  CCSD-F12b correlation energy         -0.230944126932

  Triples (T) contribution (scaled)    -0.006988544316
  Total correlation energy             -0.237932671248

  CCSD-F12b total energy              -40.447072505913
  CCSD[T]-F12b energy                 -40.454302508658
  CCSD-T-F12b energy                  -40.453987679201
 !CCSD(T)-F12b total energy           -40.454061050230

 Timing summary (sec):

 STEP                 CPU(USER)    SYS     CPU(TOT)    WALL
 Transformation          5.73      0.81      6.54      8.90
 CCSD iterations        39.42      4.05     43.47     44.06
 Triples                23.12      0.38     23.50     23.51
 MP2-F12                11.54      0.48     12.02     56.29
 F12b energy             3.44      0.29      3.73      3.75

 Program statistics:

 Available memory in ccsd:              2999999786
 Min. memory needed in ccsd:               1609972
 Max. memory used in ccsd:                 1864434
 Max. memory used in cckext:               1252381 (11 integral passes)



 **********************************************************************************************************************************
 DATASETS  * FILE   NREC   LENGTH (MB)   RECORD NAMES
              1      20     2039.08       500      610      700      900      950      970     1000      129      960     1100   
                                          VAR    BASINP    GEOM    SYMINP    ZMAT    AOBASIS   BASIS     P2S    ABASIS      S 
                                         1400     1410     1200     1210     1080     1600     1650     1300     1700     1380   
                                           T        V       H0       H01     AOSYM     SMH    MOLCAS    ERIS     OPER     JKOP   

              2       7        8.14       700     1000      520     2100     7360     7350     2101   
                                         GEOM     BASIS   MCVARS     RHF    F12ABS    EF12      RHF  

 PROGRAMS   *        TOTAL   CCSD(T)        HF       INT   CCSD(T)        HF       INT
 CPU TIMES  *       433.37     83.29     20.28      0.07    288.71     24.93     15.94
 REAL TIME  *       728.11 SEC
 DISK USED  *         5.18 GB      
 **********************************************************************************************************************************
 SETTING E_F12_A(1)     =       -40.45758652  AU                              
 SETTING E_F12_A(2)     =       -40.45406105  AU                              

 Dummy atoms: C1  H1  H2  H3  H4


 Recomputing one-electron integrals since nuclear charges changed


 PROGRAM * SEWARD (Integral evaluation for generally contracted gaussian basis sets)     Author: Roland Lindh, 1990

 Geometry written to block  1 of record 700


 Point group  C1  



 ATOMIC COORDINATES

 NR  ATOM    CHARGE       X              Y              Z

   1  C1      0.00   -6.193010455    2.801518980    2.403542658
   2  H1      0.00   -4.656285171    1.699997622    3.119937832
   3  H2      0.00   -5.973046335    4.726205038    2.982932688
   4  H3      0.00   -7.940251230    2.077186956    3.118237078
   5  H4      0.00   -6.176569838    2.685300823    0.384937212
   6  O1      8.00   -5.521590763    4.689166405    9.271374312
   7  H5      1.00   -3.831230745    4.709197502    8.531168589
   8  H6      1.00   -6.460595675    6.029171200    8.401722350

 Bond lengths in Bohr (Angstrom)

 1-2  2.021904040  1-3  2.022002335  1-4  2.021953343  1-5  2.022015060  6-7  1.845432944
     ( 1.069945541)     ( 1.069997556)     ( 1.069971630)     ( 1.070004290)     ( 0.976561058)

 6-8  1.853007720
     ( 0.980569457)

 Bond angles

  2-1-3  109.53398059   2-1-4  109.65604535   2-1-5  108.43490854   3-1-4  109.49436728

  3-1-5  109.86987750   4-1-5  109.83468330   7-6-8  105.54946434

 NUCLEAR CHARGE:                   10
 NUMBER OF PRIMITIVE AOS:         270
 NUMBER OF SYMMETRY AOS:          246
 NUMBER OF CONTRACTIONS:          214   ( 214A   )
 NUMBER OF CORE ORBITALS:           1   (   1A   )
 NUMBER OF VALENCE ORBITALS:        6   (   6A   )

 MOLECULE CHANGED: INITIALIZING OCCUPATION AND DUMP RECORDS


 NUCLEAR REPULSION ENERGY    8.99189736


 Eigenvalues of metric

         1 0.716E-04 0.201E-03 0.278E-03 0.331E-03 0.334E-03 0.455E-03 0.552E-03 0.559E-03


 Contracted 2-electron integrals neglected if value below      1.0D-19

 OPERATOR DM      FOR CENTER  0  COORDINATES:    0.000000    0.000000    0.000000


 **********************************************************************************************************************************
 DATASETS  * FILE   NREC   LENGTH (MB)   RECORD NAMES
              1      19     1886.07       500      610      700      900      950      970     1000      129      960     1100   
                                          VAR    BASINP    GEOM    SYMINP    ZMAT    AOBASIS   BASIS     P2S    ABASIS      S 
                                         1400     1410     1200     1210     1080     1600     1650     1300     1700   
                                           T        V       H0       H01     AOSYM     SMH    MOLCAS    ERIS     OPER   

              2       7        8.14       700     1000      520     2100     7360     7350     2101   
                                         GEOM     BASIS   MCVARS     RHF    F12ABS    EF12      RHF  

 PROGRAMS   *        TOTAL       INT   CCSD(T)        HF       INT   CCSD(T)        HF       INT
 CPU TIMES  *       433.43      0.06     83.29     20.28      0.07    288.71     24.93     15.94
 REAL TIME  *       728.36 SEC
 DISK USED  *         5.18 GB      
 **********************************************************************************************************************************


 PROGRAM * RHF-SCF (CLOSED SHELL)       Authors: W. Meyer, H.-J. Werner


 NUMBER OF ELECTRONS:       5+    5-    SPACE SYMMETRY=1    SPIN SYMMETRY: Singlet 
 CONVERGENCE THRESHOLDS:    1.00E-04 (Density)    1.00E-09 (Energy)
 MAX. NUMBER OF ITERATIONS:       60
 INTERPOLATION TYPE:            DIIS
 INTERPOLATION STEPS:              2 (START)      1 (STEP)
 LEVEL SHIFTS:                  0.00 (CLOSED)  0.00 (OPEN) 



 Orbital guess generated from atomic densities. Full valence occupancy:    7

 Molecular orbital dump at record        2102.2

 Initial occupancy:   5

 ITERATION    DDIFF          GRAD             ENERGY        2-EL.EN.            DIPOLE MOMENTS         DIIS   ORB.
    1      0.000D+00      0.000D+00       -76.02443517     77.396610    0.38455    0.69880   -0.82690    0    start
    2      0.000D+00      0.671D-02       -76.05120206     73.746098    0.22577    0.40770   -0.48238    1    diag
    3      0.464D-02      0.427D-02       -76.06273426     75.367088    0.26543    0.47986   -0.56806    2    diag
    4      0.163D-02      0.401D-03       -76.06292926     75.274637    0.26404    0.47682   -0.56457    3    diag
    5      0.230D-03      0.112D-03       -76.06295021     75.289134    0.26353    0.47569   -0.56328    4    diag
    6      0.805D-04      0.223D-04       -76.06295158     75.288066    0.26341    0.47540   -0.56297    5    diag
    7      0.238D-04      0.452D-05       -76.06295164     75.288219    0.26337    0.47531   -0.56286    6    diag
    8      0.541D-05      0.872D-06       -76.06295165     75.288207    0.26336    0.47528   -0.56283    7    diag
    9      0.901D-06      0.116D-06       -76.06295165     75.288198    0.26335    0.47528   -0.56282    8    diag
   10      0.185D-06      0.258D-07       -76.06295165     75.288202    0.26335    0.47528   -0.56282    0    orth

 Final occupancy:   5

 !RHF STATE 1.1 Energy                -76.062951646962
 Nuclear energy                         8.99189736
 One-electron energy                 -122.69895011
 Two-electron energy                   37.64410110
 Virial quotient                       -1.00198872
 !RHF STATE 1.1 Dipole moment           0.26335452     0.47527787    -0.56282429
 Dipole moment /Debye                   0.66933658     1.20795674    -1.43046295

 Orbital energies:

         1.1          2.1          3.1          4.1          5.1          6.1          7.1
    -20.568131    -1.341514    -0.708288    -0.578940    -0.508502     0.037416     0.062136

 HOMO      5.1    -0.508502 =     -13.8370eV
 LUMO      6.1     0.037416 =       1.0181eV
 LUMO-HOMO         0.545918 =      14.8552eV


 **********************************************************************************************************************************
 DATASETS  * FILE   NREC   LENGTH (MB)   RECORD NAMES
              1      19     1886.07       500      610      700      900      950      970     1000      129      960     1100   
                                          VAR    BASINP    GEOM    SYMINP    ZMAT    AOBASIS   BASIS     P2S    ABASIS      S 
                                         1400     1410     1200     1210     1080     1600     1650     1300     1700   
                                           T        V       H0       H01     AOSYM     SMH    MOLCAS    ERIS     OPER   

              2       8       12.47       700     1000      520     2100     7360     7350     2101     2102   
                                         GEOM     BASIS   MCVARS     RHF    F12ABS    EF12      RHF      RHF  

 PROGRAMS   *        TOTAL        HF       INT   CCSD(T)        HF       INT   CCSD(T)        HF       INT
 CPU TIMES  *       458.22     24.79      0.06     83.29     20.28      0.07    288.71     24.93     15.94
 REAL TIME  *       757.45 SEC
 DISK USED  *         5.18 GB      
 **********************************************************************************************************************************
 SETTING E_HF_B         =       -76.06295165  AU                              


 PROGRAM * CCSD (Closed-shell coupled cluster)     Authors: C. Hampel, H.-J. Werner, 1991, M. Deegan, P.J. Knowles, 1992

                                  CCSD-F12 implementation by  H.-J. Werner, 2007

                   Density fitting integral evaluation by F.R. Manby, 2003,2007, G. Knizia, 2010

 Basis set CC-PVTZ/JKFIT generated.      Number of basis functions:   338 
 Basis set CC-PVTZ-F12/OPTRI generated.  Number of basis functions:   396 
 Basis set AUG-CC-PVTZ/MP2FIT generated. Number of basis functions:   488 

 Convergence thresholds:  THRVAR = 1.00D-08  THRDEN = 1.00D-08

 CCSD(T)     terms to be evaluated (factor= 1.000)


 Number of core orbitals:           1 (   1 )
 Number of closed-shell orbitals:   4 (   4 )
 Number of external orbitals:     209 ( 209 )

 Molecular orbitals read from record     2102.2  Type=RHF/CANONICAL (state 1.1)

 MP2-F12 correlation treatment (H.-J. Werner, 2006)
 ==================================================

 Using MP2-F12 with ansatz 3C(FIX)

 Using projected zeroth-order Hamiltonian (+Z)

 FOCKRIB=T FOCKRIC=T FOCKRIP=T CABSP=T CABSA=T CABSK=T CABSF=T GBC=F EBC=F DMAT=T NOFIK=T NOPAO=1 SOLVE=-1  USEPAO=0
 EXCH_A= T EXCH_B= F EXCH_C= F EXCH_P= F
 
 Geminal basis:    OPTFULL  GEM_TYPE=SLATER  BETA=1.0  NGEM=6

 Optimizing Gaussian exponents for each gem_beta

 Geminal optimization for beta= 1.0000
 Weight function:   m=0, omega= 1.4646

 Augmented Hessian optimization of geminal fit. Trust ratio= 0.40000
 Convergence reached after   2 iterations. Final gradient= 8.26D-16, Step= 4.26D-06, Delta= 1.28D-09
 
 Alpha:                 0.19532     0.81920     2.85917     9.50073    35.69989   197.79328
 Coeff:                 0.27070     0.30552     0.18297     0.10986     0.06810     0.04224
 

 All pairs explicitly correlated. Number of r12-pairs:           10

 Excluding core orbitals from MO domains
 
 AO(A)-basis ORBITAL           loaded. Number of functions:     214
 RI(R)-basis CC-PVTZ-F12/OPTRI loaded. Number of functions:     396
 DF-basis CC-PVTZ/JKFIT        loaded. Number of functions:     338

 Screening thresholds:   THRAO=  1.00D-10  THRMO=  1.00D-09  THRPROD=  1.00D-09
                         THRSW=  1.00D-05  THROV=  1.00D-12  THRAOF12=   1.00D-08

 CPU time for Fock operators                      2.80 sec
 
 Construction of ABS:
 Smallest eigenvalue of S          4.15E-04  (threshold= 1.00E-08)
 Ratio eigmin/eigmax               5.33E-05  (threshold= 1.00E-09)
 Smallest eigenvalue of S kept     4.15E-04  (threshold= 4.15E-04, 0 functions deleted, 396 kept)
 
 Construction of CABS:
 Smallest eigenvalue of S          8.20E-07  (threshold= 1.00E-08)
 Ratio eigmin/eigmax               8.20E-07  (threshold= 1.00E-09)
 Smallest eigenvalue of S kept     8.20E-07  (threshold= 8.20E-07, 0 functions deleted, 396 kept)
 
 CPU time for CABS singles                        0.12 sec

 CABS-singles contribution of  -0.00097207 patched into reference energy.
 New reference energy         -76.06392372
 
 AO(A)-basis ORBITAL           loaded. Number of functions:     214
 RI(R)-basis CC-PVTZ-F12/OPTRI loaded. Number of functions:     396
 DF-basis AUG-CC-PVTZ/MP2FIT   loaded. Number of functions:     488

 Screening thresholds:   THRAO=  1.00D-10  THRMO=  1.00D-09  THRPROD=  1.00D-09
                         THRSW=  1.00D-05  THROV=  1.00D-12  THRAOF12=   1.00D-08

 CPU time for 3-index integral evaluation         6.58 sec
 CPU time for first  half transformation          0.70 sec ( 3678.4 MFLOP/sec)
 CPU time for second half transformation          0.01 sec ( 2924.1 MFLOP/sec)
 CPU time for fitting                             0.03 sec (39690.7 MFLOP/sec)
 CPU time for tilde quantities                    0.04 sec (39722.4 MFLOP/sec)
 CPU time for assembly                            0.23 sec (34678.6 MFLOP/sec)
 CPU time for tranop_f12                          0.29 sec (33040.1 MFLOP/sec)
 CPU time for f12 integrals (total)               8.35 sec, Elapsed time:      8.92 sec
 CPU time for f12 matrices (total)                0.10 sec, Elapsed time:      0.16 sec

 Diagonal F12 approximation with fixed coefficients:  TSING= 0.500,  TTRIP= 0.250 (scaled by -1/beta)

 DF-MP2-F12 energy corrections:
 ==============================
 Approx.                                    Singlet             Triplet             Total
 DF-MP2-F12/3*C(DX,FIX)                -0.025122139593     -0.002997308811     -0.028119448404
 DF-MP2-F12/3*C(FIX)                   -0.023350923618     -0.002711344277     -0.026062267894
 DF-MP2-F12/3C(FIX)                    -0.023278823358     -0.002808340756     -0.026087164114

 DF-MP2-F12 correlation energies:
 ================================
 Approx.                                    Singlet             Triplet             Ecorr            Total Energy
 DF-MP2                                -0.174919672124     -0.099752411987     -0.274672084111    -76.338595805749
 DF-MP2-F12/3*C(DX,FIX)                -0.200041811718     -0.102749720797     -0.302791532515    -76.366715254153
 DF-MP2-F12/3*C(FIX)                   -0.198270595742     -0.102463756263     -0.300734352005    -76.364658073643
 DF-MP2-F12/3C(FIX)                    -0.198198495483     -0.102560752743     -0.300759248225    -76.364682969863

 SCS-DF-MP2 energies (F_SING= 1.20000  F_TRIP= 0.62222  F_PARALLEL= 0.33333):
 ============================================================================
 SCS-DF-MP2                            -0.271971774008    -76.335895495645
 SCS-DF-MP2-F12/3*C(DX,FIX)            -0.303983333669    -76.367907055306
 SCS-DF-MP2-F12/3*C(FIX)               -0.301679941010    -76.365603662647
 SCS-DF-MP2-F12/3C(FIX)                -0.301653774064    -76.365577495701
 Symmetry transformation completed.

 Number of N-1 electron functions:               4
 Number of N-2 electron functions:              10
 Number of singly external CSFs:               836
 Number of doubly external CSFs:            349866
 Total number of CSFs:                      350703

 Length of J-op  integral file:              53.89 MB
 Length of K-op  integral file:              87.81 MB
 Length of 3-ext integral record:             0.00 MB

 Memory could be reduced to 60.96 Mwords without degradation in triples

 Integral transformation finished. Total CPU:   5.78 sec, npass=  1  Memory used:  26.32 MW

 Reference energy:                    -76.06392372

 Adding F12 terms to K(Cij), methodcc=6,  factor= 1.0

 ITER.      SQ.NORM     CORR.ENERGY   TOTAL ENERGY   ENERGY CHANGE        DEN1      VAR(S)    VAR(P)  DIIS     TIME  TIME/IT
   1      1.06268571    -0.27479939   -76.33872311    -0.00008671     0.00591002  0.77D-03  0.10D-02  1  1    21.11     4.03
   2      1.06608885    -0.27454949   -76.33847321     0.00024990    -0.00468610  0.14D-04  0.11D-03  2  2    25.06     4.20
   3      1.06730986    -0.27468499   -76.33860871    -0.00013550    -0.00082327  0.95D-05  0.73D-05  3  3    29.03     4.26
   4      1.06787109    -0.27470741   -76.33863113    -0.00002242    -0.00036416  0.47D-06  0.61D-06  4  4    33.02     5.40
   5      1.06796785    -0.27470590   -76.33862962     0.00000151    -0.00002193  0.15D-06  0.43D-07  5  5    36.92     5.19
   6      1.06799506    -0.27470451   -76.33862823     0.00000139    -0.00000423  0.15D-07  0.45D-08  6  6    40.90     5.06
   7      1.06800275    -0.27470410   -76.33862782     0.00000041    -0.00000168  0.13D-08  0.62D-09  6  1    44.85     4.96
   8      1.06800443    -0.27470410   -76.33862782     0.00000000    -0.00000014  0.21D-09  0.75D-10  6  2    48.78     4.88
   9      1.06800501    -0.27470411   -76.33862783    -0.00000001     0.00000005  0.18D-10  0.96D-11  6  3    52.75     4.83

 Norm of t1 vector:      0.03644326      S-energy:    -0.00000005      T1 diagnostic:  0.00911081
                                                                       D1 diagnostic:  0.01836327

 Adding energy correction from Wij-K(Fij), methodcc=6  factor= 1.0
 
  CCSD correlation energy              -0.274704106062
  MP2-F12 correction (uncoupled)       -0.024967352401
  C*T doubles correction               -0.000834549167
  f12b correction                       0.004280292640

 Total CPU time for triples:     23.12 sec

  Ecorr(MP2)                           -0.274712679946
  Ecorr(MP2-F12)                       -0.300799844060
  Scale factor for triples energy       1.094961630892


 RESULTS
 =======

  Reference energy                    -76.062951646962
  F12 singles correction               -0.000972074676

 F12 singles corrections added to reference energy

  New reference energy                -76.063923721637

  F12a singlet correction              -0.023100220625
  F12a triplet correction              -0.002701680944
  F12a total correction                -0.025801901568

 F12a corrections for ansatz F12/3C(FIX) added to CCSD energy
 
  CCSD-F12a singlet pair energy        -0.209654541387
  CCSD-F12a triplet pair energy        -0.090851413794
  CCSD-F12a correlation energy         -0.300506007631

  Triples (T) contribution (scaled)    -0.009775611395
  Total correlation energy             -0.310281619025

  CCSD-F12a total energy              -76.364429729268
  CCSD[T]-F12a energy                 -76.374544133213
  CCSD-T-F12a energy                  -76.374057494334
 !CCSD(T)-F12a total energy           -76.374205340663

 F12b corrections for ansatz F12/3C(FIX) added to CCSD(T)-F12a energy

  CCSD-F12b singlet pair energy        -0.205684525445
  CCSD-F12b triplet pair energy        -0.090541137096
  CCSD-F12b correlation energy         -0.296225714990

  Triples (T) contribution (scaled)    -0.009775611395
  Total correlation energy             -0.306001326385

  CCSD-F12b total energy              -76.360149436628
  CCSD[T]-F12b energy                 -76.370263840573
  CCSD-T-F12b energy                  -76.369777201693
 !CCSD(T)-F12b total energy           -76.369925048023

 Timing summary (sec):

 STEP                 CPU(USER)    SYS     CPU(TOT)    WALL
 Transformation          5.81      0.70      6.51      6.82
 CCSD iterations        35.42      3.68     39.10     43.59
 Triples                23.12      0.39     23.51     23.52
 MP2-F12                11.53      0.52     12.05     16.55
 F12b energy             3.43      0.34      3.77      3.81

 Program statistics:

 Available memory in ccsd:              2999999786
 Min. memory needed in ccsd:               1609972
 Max. memory used in ccsd:                 1864434
 Max. memory used in cckext:               1252381 (10 integral passes)



 **********************************************************************************************************************************
 DATASETS  * FILE   NREC   LENGTH (MB)   RECORD NAMES
              1      20     2039.08       500      610      700      900      950      970     1000      129      960     1100   
                                          VAR    BASINP    GEOM    SYMINP    ZMAT    AOBASIS   BASIS     P2S    ABASIS      S 
                                         1400     1410     1200     1210     1080     1600     1650     1300     1700     1380   
                                           T        V       H0       H01     AOSYM     SMH    MOLCAS    ERIS     OPER     JKOP   

              2       8       12.47       700     1000      520     2100     7360     7350     2101     2102   
                                         GEOM     BASIS   MCVARS     RHF    F12ABS    EF12      RHF      RHF  

 PROGRAMS   *        TOTAL   CCSD(T)        HF       INT   CCSD(T)        HF       INT   CCSD(T)        HF       INT
 CPU TIMES  *       537.56     79.34     24.79      0.06     83.29     20.28      0.07    288.71     24.93     15.94
 REAL TIME  *       851.95 SEC
 DISK USED  *         5.18 GB      
 **********************************************************************************************************************************
 SETTING E_F12_B(1)     =       -76.37420534  AU                              
 SETTING E_F12_B(2)     =       -76.36992505  AU                              
 SETTING E_INT_HF       =         0.00041154  AU                              
 SETTING E_INT_F12(1)   =        -0.00040103  AU                              
 SETTING E_INT_F12(2)   =        -0.00039425  AU                              
 E_INT_HF         =         0.00041154 AU
 E_INT_F12(1:2)   = [      -0.00040103    -0.00039425] AU

 CCSD(T)-F12/cc-pVTZ-F12 energy=    -76.369925048023

     CCSD(T)-F12        HF-SCF       CCSD(T)-F12        HF-SCF       CCSD(T)-F12        HF-SCF  
    -76.36992505    -76.06295165    -40.45406105    -40.21549323   -116.82438035   -116.27803334
 **********************************************************************************************************************************
 Molpro calculation terminated
 Variable memory released
