
 Primary working directories    : /net/scratch/people/plgsirous
 Secondary working directories  : /net/scratch/people/plgsirous
 Wavefunction directory         : /net/people/plgsirous/wfu/
 Main file repository           : /net/scratch/people/plgsirous/

 SHA1      : 
 NAME      : 
 ARCHNAME  : linux/x86_64
 FC        : /net/software/local/intel/impi/2018.1.163/bin64/mpiifort
 BLASLIB   : -L/net/software/local/intel/compilers_and_libraries_2018.1.163/linux/mkl/lib/intel64 -lmkl_scalapack_ilp64 -lmkl_intel_ilp64 -lmkl_intel_thread -lmkl_core -lmkl_blacs_intelmpi_ilp64 -liomp5 -lpthread -lm -ldl
 id        : pl

 Nodes     nprocs
 p1416        1

 Using customized tuning parameters: mindgm=7; mindgv=20; mindgc=1; mindgr=1; noblas=0; minvec=7
 default implementation of scratch files=df  

 memory,3000,m
 zsymel=nosym
 angstrom
 geometry={
 C1        -3.2772    1.4825     1.2719
 H1        -2.4640    0.8996     1.6510
 H2        -3.1608    2.5010     1.5785
 H3        -4.2018    1.0992     1.6501
 H4        -3.2685    1.4210     0.2037
 O1        -3.0333    5.2800     1.5066
 H5        -3.4382    5.0309     0.6555
 H6        -2.1241    4.8956     1.4894
 }
 basis=vtz-f12
 gthresh,orbital=1d-8,energy=1d-8,twoint=1.d-19
 
 
 nkerna=1
 nkernb=1
 nkernab=$nkerna+$nkernb
 
                                                                                 ! AB Dimer
 {hf,accu=1.d-8}
 E_HF_AB=energy
 core,$nkernab
 {ccsd(t)-f12,scale_trip=1,THRF12=1.d-12}
 E_F12_AB=energy
 
                                                                                 ! Monomer A Part
 
 dummy,6,7,8;
 {hf,accu=1.d-8}
 E_HF_A=energy
 core,$nkerna
 {ccsd(t)-f12,scale_trip=1,THRF12=1.d-12}
 E_F12_A=energy
 
                                                                                 ! Monomer B Part
 
 dummy,1,2,3,4,5;
 {hf,accu=1.d-8}
 E_HF_B=energy
 core,$nkernb
 {ccsd(t)-f12,scale_trip=1,THRF12=1.d-12}
 E_F12_B=energy
 
 E_int_HF = E_HF_AB-(E_HF_A+E_HF_B)
 E_int_F12 = E_F12_AB-(E_F12_A+E_F12_B)
 
 
 show,E_int_HF,E_int_F12

 Variables initialized (889), CPU time= 0.01 sec
 Commands  initialized (702), CPU time= 0.00 sec, 572 directives.
 Default parameters read. Elapsed time= 0.08 sec

 Checking input...
 Passed
1


                                         ***  PROGRAM SYSTEM MOLPRO  ***
                                       Copyright, TTI GmbH Stuttgart, 2015
                                    Version 2015.1 linked Jul  2 2018 15:03:07


 **********************************************************************************************************************************
 LABEL *                                                                                 
  64 bit serial version                                                                  DATE: 17-Jan-19          TIME: 14:52:52  
 **********************************************************************************************************************************

 SHA1:             
 **********************************************************************************************************************************
 SETTING ZSYMEL         =    NOSYM
 ZSYMEL=NOSYM
 ZUNIT=ANG
 

Geometry recognized as XYZ


 Variable memory set to 3000000000 words,  buffer space   230000 words

 SETTING BASIS          =    VTZ-F12

 THRESHOLDS:

 ZERO    =  1.00D-12  ONEINT  =  1.00D-12  TWOINT  =  1.00D-19  PREFAC  =  1.00D-14  LOCALI  =  1.00D-09  EORDER  =  1.00D-04
 ENERGY  =  1.00D-08  ETEST   =  0.00D+00  EDENS   =  0.00D+00  THRDEDEF=  1.00D-06  GRADIENT=  1.00D-02  STEP    =  1.00D-03
 ORBITAL =  1.00D-08  CIVEC   =  1.00D-05  COEFF   =  1.00D-04  PRINTCI =  5.00D-02  PUNCHCI =  9.90D+01  OPTGRAD =  3.00D-04
 OPTENERG=  1.00D-06  OPTSTEP =  3.00D-04  THRGRAD =  1.00D-10  COMPRESS=  1.00D-11  VARMIN  =  1.00D-07  VARMAX  =  1.00D-03
 THRDOUB =  0.00D+00  THRDIV  =  1.00D-05  THRRED  =  1.00D-07  THRPSP  =  1.00D+00  THRDC   =  1.00D-10  THRCS   =  1.00D-10
 THRNRM  =  1.00D-08  THREQ   =  0.00D+00  THRDE   =  1.00D+00  THRREF  =  1.00D-05  SPARFAC =  1.00D+00  THRDLP  =  1.00D-07
 THRDIA  =  1.00D-10  THRDLS  =  1.00D-07  THRGPS  =  0.00D+00  THRKEX  =  0.00D+00  THRDIS  =  2.00D-01  THRVAR  =  1.00D-10
 THRLOC  =  1.00D-06  THRGAP  =  1.00D-06  THRLOCT = -1.00D+00  THRGAPT = -1.00D+00  THRORB  =  1.00D-06  THRMLTP =  0.00D+00
 THRCPQCI=  1.00D-10  KEXTA   =  0.00D+00  THRCOARS=  0.00D+00  SYMTOL  =  1.00D-06  GRADTOL =  1.00D-06  THROVL  =  1.00D-08
 THRORTH =  1.00D-08  GRID    =  1.00D-06  GRIDMAX =  1.00D-03  DTMAX   =  0.00D+00  THROCCDE=  1.00D-01  THROCCDE=  1.00D-01


 SETTING NKERNA         =         1.00000000                                  
 SETTING NKERNB         =         1.00000000                                  
 SETTING NKERNAB        =         2.00000000                                  


 Recomputing integrals since basis changed


 Using spherical harmonics

 Library entry C      S cc-pVTZ-F12          selected for orbital group  1
 Library entry C      P cc-pVTZ-F12          selected for orbital group  1
 Library entry C      D cc-pVTZ-F12          selected for orbital group  1
 Library entry C      F cc-pVTZ-F12          selected for orbital group  1
 Library entry H      S cc-pVTZ-F12          selected for orbital group  2
 Library entry H      P cc-pVTZ-F12          selected for orbital group  2
 Library entry H      D cc-pVTZ-F12          selected for orbital group  2
 Library entry O      S cc-pVTZ-F12          selected for orbital group  3
 Library entry O      P cc-pVTZ-F12          selected for orbital group  3
 Library entry O      D cc-pVTZ-F12          selected for orbital group  3
 Library entry O      F cc-pVTZ-F12          selected for orbital group  3


 PROGRAM * SEWARD (Integral evaluation for generally contracted gaussian basis sets)     Author: Roland Lindh, 1990

 Geometry written to block  1 of record 700


 Point group  C1  



 ATOMIC COORDINATES

 NR  ATOM    CHARGE       X              Y              Z

   1  C1      6.00   -6.193010455    2.801518980    2.403542658
   2  H1      1.00   -4.656285171    1.699997622    3.119937832
   3  H2      1.00   -5.973046335    4.726205038    2.982932688
   4  H3      1.00   -7.940251230    2.077186956    3.118237078
   5  H4      1.00   -6.176569838    2.685300823    0.384937212
   6  O1      8.00   -5.732106254    9.977753938    2.847061379
   7  H5      1.00   -6.497256361    9.507023160    1.238715475
   8  H6      1.00   -4.013967261    9.251343215    2.814558090

 Bond lengths in Bohr (Angstrom)

 1-2  2.021904040  1-3  2.022002335  1-4  2.021953343  1-5  2.022015060  6-7  1.842231989
     ( 1.069945541)     ( 1.069997556)     ( 1.069971630)     ( 1.070004290)     ( 0.974867186)

 6-8  1.865671621
     ( 0.987270905)

 Bond angles

  2-1-3  109.53398059   2-1-4  109.65604535   2-1-5  108.43490854   3-1-4  109.49436728

  3-1-5  109.86987750   4-1-5  109.83468330   7-6-8  105.53314040

 NUCLEAR CHARGE:                   20
 NUMBER OF PRIMITIVE AOS:         270
 NUMBER OF SYMMETRY AOS:          246
 NUMBER OF CONTRACTIONS:          214   ( 214A   )
 NUMBER OF CORE ORBITALS:           2   (   2A   )
 NUMBER OF VALENCE ORBITALS:       14   (  14A   )


 NUCLEAR REPULSION ENERGY   36.75387538


 Eigenvalues of metric

         1 0.729E-04 0.201E-03 0.282E-03 0.320E-03 0.331E-03 0.454E-03 0.530E-03 0.556E-03


 Contracted 2-electron integrals neglected if value below      1.0D-19
 AO integral compression algorithm  1   Integral accuracy      1.0D-19

     2109.997 MB (compressed) written to integral file ( 86.6%)


 NUMBER OF SORTED TWO-ELECTRON INTEGRALS:  264626515.     BUFFER LENGTH:  32768
 NUMBER OF SEGMENTS:  17  SEGMENT LENGTH:   15999762      RECORD LENGTH: 524288

 Memory used in sort:      16.56 MW

 SORT1 READ   304636334. AND WROTE   248998658. INTEGRALS IN    721 RECORDS. CPU TIME:     3.33 SEC, REAL TIME:     7.32 SEC
 SORT2 READ   248998658. AND WROTE   264626515. INTEGRALS IN   8049 RECORDS. CPU TIME:     3.44 SEC, REAL TIME:     8.28 SEC

 FILE SIZES:   FILE 1:  2131.7 MBYTE,  FILE 4:  3024.1 MBYTE,   TOTAL:   5155.8 MBYTE

 OPERATOR DM      FOR CENTER  0  COORDINATES:    0.000000    0.000000    0.000000


 **********************************************************************************************************************************
 DATASETS  * FILE   NREC   LENGTH (MB)   RECORD NAMES
              1      19     1876.35       500      610      700      900      950      970     1000      129      960     1100   
                                          VAR    BASINP    GEOM    SYMINP    ZMAT    AOBASIS   BASIS     P2S    ABASIS      S 
                                         1400     1410     1200     1210     1080     1600     1650     1300     1700   
                                           T        V       H0       H01     AOSYM     SMH    MOLCAS    ERIS     OPER   

 PROGRAMS   *        TOTAL       INT
 CPU TIMES  *        16.47     16.35
 REAL TIME  *        30.80 SEC
 DISK USED  *         5.16 GB      
 **********************************************************************************************************************************


 PROGRAM * RHF-SCF (CLOSED SHELL)       Authors: W. Meyer, H.-J. Werner


 NUMBER OF ELECTRONS:      10+   10-    SPACE SYMMETRY=1    SPIN SYMMETRY: Singlet 
 CONVERGENCE THRESHOLDS:    1.00E-04 (Density)    1.00E-09 (Energy)
 MAX. NUMBER OF ITERATIONS:       60
 INTERPOLATION TYPE:            DIIS
 INTERPOLATION STEPS:              2 (START)      1 (STEP)
 LEVEL SHIFTS:                  0.00 (CLOSED)  0.00 (OPEN) 



 Orbital guess generated from atomic densities. Full valence occupancy:   16

 Molecular orbital dump at record        2100.2

 Initial occupancy:  10

 ITERATION    DDIFF          GRAD             ENERGY        2-EL.EN.            DIPOLE MOMENTS         DIIS   ORB.
    1      0.000D+00      0.000D+00      -116.21953924    158.867122    0.49637   -0.60816   -0.84077    0    start
    2      0.000D+00      0.546D-02      -116.26339020    154.100006    0.26224   -0.35726   -0.46219    1    diag
    3      0.562D-02      0.318D-02      -116.27673514    156.105254    0.32157   -0.41863   -0.55800    2    diag
    4      0.182D-02      0.481D-03      -116.27739577    155.990005    0.31674   -0.41114   -0.55011    3    diag
    5      0.422D-03      0.141D-03      -116.27746590    155.985405    0.31605   -0.41108   -0.54935    4    diag
    6      0.159D-03      0.345D-04      -116.27746998    155.990997    0.31559   -0.41080   -0.54860    5    diag
    7      0.422D-04      0.723D-05      -116.27747023    155.989275    0.31555   -0.41085   -0.54857    6    diag
    8      0.115D-04      0.188D-05      -116.27747026    155.989470    0.31550   -0.41085   -0.54851    7    diag
    9      0.336D-05      0.431D-06      -116.27747026    155.989440    0.31548   -0.41085   -0.54849    8    diag
   10      0.732D-06      0.542D-07      -116.27747026    155.989441    0.31548   -0.41085   -0.54849    9    orth
   11      0.129D-06      0.144D-07      -116.27747026    155.989443    0.31548   -0.41085   -0.54849    0    orth

 Final occupancy:  10

 !RHF STATE 1.1 Energy               -116.277470257671
 Nuclear energy                        36.75387538
 One-electron energy                 -231.02606733
 Two-electron energy                   77.99472170
 Virial quotient                       -1.00072352
 !RHF STATE 1.1 Dipole moment           0.31547911    -0.41084964    -0.54848905
 Dipole moment /Debye                   0.80181540    -1.04420723    -1.39402881

 Orbital energies:

         1.1          2.1          3.1          4.1          5.1          6.1          7.1          8.1          9.1         10.1
    -20.568942   -11.198707    -1.341266    -0.953885    -0.707696    -0.580260    -0.555423    -0.553606    -0.551298    -0.507229

        11.1         12.1
      0.055025     0.070176

 HOMO     10.1    -0.507229 =     -13.8024eV
 LUMO     11.1     0.055025 =       1.4973eV
 LUMO-HOMO         0.562253 =      15.2997eV


 **********************************************************************************************************************************
 DATASETS  * FILE   NREC   LENGTH (MB)   RECORD NAMES
              1      19     1876.35       500      610      700      900      950      970     1000      129      960     1100   
                                          VAR    BASINP    GEOM    SYMINP    ZMAT    AOBASIS   BASIS     P2S    ABASIS      S 
                                         1400     1410     1200     1210     1080     1600     1650     1300     1700   
                                           T        V       H0       H01     AOSYM     SMH    MOLCAS    ERIS     OPER   

              2       4        3.81       700     1000      520     2100   
                                         GEOM     BASIS   MCVARS     RHF  

 PROGRAMS   *        TOTAL        HF       INT
 CPU TIMES  *        43.69     27.22     16.35
 REAL TIME  *        62.82 SEC
 DISK USED  *         5.16 GB      
 **********************************************************************************************************************************
 SETTING E_HF_AB        =      -116.27747026  AU                              


 PROGRAM * CCSD (Closed-shell coupled cluster)     Authors: C. Hampel, H.-J. Werner, 1991, M. Deegan, P.J. Knowles, 1992

                                  CCSD-F12 implementation by  H.-J. Werner, 2007

                   Density fitting integral evaluation by F.R. Manby, 2003,2007, G. Knizia, 2010

 Basis set CC-PVTZ/JKFIT generated.      Number of basis functions:   338 
 Basis set CC-PVTZ-F12/OPTRI generated.  Number of basis functions:   396 
 Basis set AUG-CC-PVTZ/MP2FIT generated. Number of basis functions:   488 

 Convergence thresholds:  THRVAR = 1.00D-08  THRDEN = 1.00D-08

 CCSD(T)     terms to be evaluated (factor= 1.000)


 Number of core orbitals:           2 (   2 )
 Number of closed-shell orbitals:   8 (   8 )
 Number of external orbitals:     204 ( 204 )

 Molecular orbitals read from record     2100.2  Type=RHF/CANONICAL (state 1.1)

 MP2-F12 correlation treatment (H.-J. Werner, 2006)
 ==================================================

 Using MP2-F12 with ansatz 3C(FIX)

 Using projected zeroth-order Hamiltonian (+Z)

 FOCKRIB=T FOCKRIC=T FOCKRIP=T CABSP=T CABSA=T CABSK=T CABSF=T GBC=F EBC=F DMAT=T NOFIK=T NOPAO=1 SOLVE=-1  USEPAO=0
 EXCH_A= T EXCH_B= F EXCH_C= F EXCH_P= F
 
 Geminal basis:    OPTFULL  GEM_TYPE=SLATER  BETA=1.0  NGEM=6

 Optimizing Gaussian exponents for each gem_beta

 Geminal optimization for beta= 1.0000
 Weight function:   m=0, omega= 1.4646

 Augmented Hessian optimization of geminal fit. Trust ratio= 0.40000
 Convergence reached after   2 iterations. Final gradient= 8.26D-16, Step= 4.26D-06, Delta= 1.28D-09
 
 Alpha:                 0.19532     0.81920     2.85917     9.50073    35.69989   197.79328
 Coeff:                 0.27070     0.30552     0.18297     0.10986     0.06810     0.04224
 

 All pairs explicitly correlated. Number of r12-pairs:           36

 Excluding core orbitals from MO domains
 
 AO(A)-basis ORBITAL           loaded. Number of functions:     214
 RI(R)-basis CC-PVTZ-F12/OPTRI loaded. Number of functions:     396
 DF-basis CC-PVTZ/JKFIT        loaded. Number of functions:     338

 Screening thresholds:   THRAO=  1.00D-10  THRMO=  1.00D-09  THRPROD=  1.00D-09
                         THRSW=  1.00D-05  THROV=  1.00D-12  THRAOF12=   1.00D-08

 CPU time for Fock operators                      3.11 sec
 
 Construction of ABS:
 Smallest eigenvalue of S          3.46E-04  (threshold= 1.00E-08)
 Ratio eigmin/eigmax               4.43E-05  (threshold= 1.00E-09)
 Smallest eigenvalue of S kept     3.46E-04  (threshold= 3.46E-04, 0 functions deleted, 396 kept)
 
 Construction of CABS:
 Smallest eigenvalue of S          7.90E-07  (threshold= 1.00E-08)
 Ratio eigmin/eigmax               7.90E-07  (threshold= 1.00E-09)
 Smallest eigenvalue of S kept     7.90E-07  (threshold= 7.90E-07, 0 functions deleted, 396 kept)
 
 CPU time for CABS singles                        0.12 sec

 CABS-singles contribution of  -0.00160686 patched into reference energy.
 New reference energy        -116.27907712
 
 AO(A)-basis ORBITAL           loaded. Number of functions:     214
 RI(R)-basis CC-PVTZ-F12/OPTRI loaded. Number of functions:     396
 DF-basis AUG-CC-PVTZ/MP2FIT   loaded. Number of functions:     488

 Screening thresholds:   THRAO=  1.00D-10  THRMO=  1.00D-09  THRPROD=  1.00D-09
                         THRSW=  1.00D-05  THROV=  1.00D-12  THRAOF12=   1.00D-08

 CPU time for 3-index integral evaluation         6.34 sec
 CPU time for first  half transformation          0.70 sec ( 7356.8 MFLOP/sec)
 CPU time for second half transformation          0.01 sec (11696.4 MFLOP/sec)
 CPU time for sorting                             0.02 sec
 CPU time for fitting                             0.08 sec (30482.4 MFLOP/sec)
 CPU time for tilde quantities                    0.08 sec (40198.7 MFLOP/sec)
 CPU time for assembly                            0.87 sec (34412.1 MFLOP/sec)
 CPU time for tranop_f12                          1.17 sec (33104.1 MFLOP/sec)
 CPU time for f12 integrals (total)              10.87 sec, Elapsed time:     12.57 sec
 CPU time for f12 matrices (total)                0.34 sec, Elapsed time:      0.42 sec

 Diagonal F12 approximation with fixed coefficients:  TSING= 0.500,  TTRIP= 0.250 (scaled by -1/beta)

 DF-MP2-F12 energy corrections:
 ==============================
 Approx.                                    Singlet             Triplet             Total
 DF-MP2-F12/3*C(DX,FIX)                -0.041415643981     -0.004150966708     -0.045566610689
 DF-MP2-F12/3*C(FIX)                   -0.039284649392     -0.003880698566     -0.043165347958
 DF-MP2-F12/3C(FIX)                    -0.039149445352     -0.003989975534     -0.043139420887

 DF-MP2-F12 correlation energies:
 ================================
 Approx.                                    Singlet             Triplet             Ecorr            Total Energy
 DF-MP2                                -0.320894584226     -0.156373878009     -0.477268462235   -116.756345582820
 DF-MP2-F12/3*C(DX,FIX)                -0.362310228207     -0.160524844717     -0.522835072924   -116.801912193509
 DF-MP2-F12/3*C(FIX)                   -0.360179233618     -0.160254576575     -0.520433810193   -116.799510930777
 DF-MP2-F12/3C(FIX)                    -0.360044029578     -0.160363853544     -0.520407883122   -116.799485003706

 SCS-DF-MP2 energies (F_SING= 1.20000  F_TRIP= 0.62222  F_PARALLEL= 0.33333):
 ============================================================================
 SCS-DF-MP2                            -0.482372802944   -116.761449923528
 SCS-DF-MP2-F12/3*C(DX,FIX)            -0.534654399451   -116.813731520035
 SCS-DF-MP2-F12/3*C(FIX)               -0.531929039099   -116.811006159684
 SCS-DF-MP2-F12/3C(FIX)                -0.531834788810   -116.810911909394
 Symmetry transformation completed.

 Number of N-1 electron functions:               8
 Number of N-2 electron functions:              36
 Number of singly external CSFs:              1632
 Number of doubly external CSFs:           1332528
 Total number of CSFs:                     1334161

 Length of J-op  integral file:             205.73 MB
 Length of K-op  integral file:             258.78 MB
 Length of 3-ext integral record:             0.00 MB

 Memory could be reduced to 93.27 Mwords without degradation in triples

 Integral transformation finished. Total CPU:   9.12 sec, npass=  1  Memory used:  48.07 MW

 Reference energy:                   -116.27907712

 Adding F12 terms to K(Cij), methodcc=6,  factor= 1.0

 ITER.      SQ.NORM     CORR.ENERGY   TOTAL ENERGY   ENERGY CHANGE        DEN1      VAR(S)    VAR(P)  DIIS     TIME  TIME/IT
   1      1.13275222    -0.49243503  -116.77151215    -0.01509263    -0.00353438  0.14D-02  0.20D-02  1  1    32.28     8.66
   2      1.14077078    -0.49300412  -116.77208124    -0.00056909    -0.00962043  0.30D-04  0.23D-03  2  2    40.83     8.83
   3      1.14379977    -0.49325832  -116.77233544    -0.00025420    -0.00213810  0.13D-04  0.13D-04  3  3    49.71    13.09
   4      1.14478361    -0.49329012  -116.77236724    -0.00003180    -0.00060894  0.62D-06  0.11D-05  4  4    58.83    12.27
   5      1.14494506    -0.49328930  -116.77236642     0.00000082    -0.00003158  0.20D-06  0.72D-07  5  5    67.93    11.74
   6      1.14498272    -0.49328693  -116.77236405     0.00000237    -0.00000688  0.18D-07  0.77D-08  6  6    77.11    11.44
   7      1.14499292    -0.49328593  -116.77236305     0.00000100    -0.00000322  0.19D-08  0.70D-09  6  1    86.26    11.19
   8      1.14499468    -0.49328602  -116.77236314    -0.00000009     0.00000018  0.33D-09  0.90D-10  6  3    95.37    11.00
   9      1.14499584    -0.49328598  -116.77236310     0.00000004    -0.00000037  0.25D-10  0.16D-10  6  2   104.53    10.86
  10      1.14499601    -0.49328598  -116.77236310    -0.00000000     0.00000005  0.28D-11  0.16D-11  6  4   113.63    10.74
  11      1.14499600    -0.49328598  -116.77236310    -0.00000000     0.00000005  0.48D-12  0.23D-12  6  5   122.76    10.64

 Norm of t1 vector:      0.04979613      S-energy:     0.00000000      T1 diagnostic:  0.00880279
                                                                       D1 diagnostic:  0.01950806

 Adding energy correction from Wij-K(Fij), methodcc=6  factor= 1.0
 
  CCSD correlation energy              -0.493285981468
  MP2-F12 correction (uncoupled)       -0.041711849863
  C*T doubles correction               -0.001127568193
  f12b correction                       0.007815117890


 Total CPU time for triples:    162.97 sec

  Ecorr(MP2)                           -0.477342401877
  Ecorr(MP2-F12)                       -0.520481822764
  Scale factor for triples energy       1.090374164786


 RESULTS
 =======

  Reference energy                   -116.277470257672
  F12 singles correction               -0.001606862913

 F12 singles corrections added to reference energy

  New reference energy               -116.279077120585

  F12a singlet correction              -0.038971778376
  F12a triplet correction              -0.003867639679
  F12a total correction                -0.042839418056

 F12a corrections for ansatz F12/3C(FIX) added to CCSD energy
 
  CCSD-F12a singlet pair energy        -0.389193502929
  CCSD-F12a triplet pair energy        -0.146931900814
  CCSD-F12a correlation energy         -0.536125399524

  Triples (T) contribution (scaled)    -0.016986721784
  Total correlation energy             -0.553112121309

  CCSD-F12a total energy             -116.815202520109
  CCSD[T]-F12a energy                -116.832777758255
  CCSD-T-F12a energy                 -116.831963622588
 !CCSD(T)-F12a total energy          -116.832189241893

 F12b corrections for ansatz F12/3C(FIX) added to CCSD(T)-F12a energy

  CCSD-F12b singlet pair energy        -0.381845451452
  CCSD-F12b triplet pair energy        -0.146464834401
  CCSD-F12b correlation energy         -0.528310281634

  Triples (T) contribution (scaled)    -0.016986721784
  Total correlation energy             -0.545297003419

  CCSD-F12b total energy             -116.807387402219
  CCSD[T]-F12b energy                -116.824962640365
  CCSD-T-F12b energy                 -116.824148504698
 !CCSD(T)-F12b total energy          -116.824374124003

 Timing summary (sec):

 STEP                 CPU(USER)    SYS     CPU(TOT)    WALL
 Transformation          9.24      1.01     10.25     10.45
 CCSD iterations        98.88      5.60    104.48    117.31
 Triples               162.97      2.72    165.69    165.72
 MP2-F12                14.65      1.45     16.10     16.75
 F12b energy             7.23      0.36      7.59      7.60

 Program statistics:

 Available memory in ccsd:              2999999464
 Min. memory needed in ccsd:               3963025
 Max. memory used in ccsd:                 5096465
 Max. memory used in cckext:               3666031 (12 integral passes)



 **********************************************************************************************************************************
 DATASETS  * FILE   NREC   LENGTH (MB)   RECORD NAMES
              1      20     2169.90       500      610      700      900      950      970     1000      129      960     1100   
                                          VAR    BASINP    GEOM    SYMINP    ZMAT    AOBASIS   BASIS     P2S    ABASIS      S 
                                         1400     1410     1200     1210     1080     1600     1650     1300     1700     1380   
                                           T        V       H0       H01     AOSYM     SMH    MOLCAS    ERIS     OPER     JKOP   

              2       6        4.74       700     1000      520     2100     7360     7350   
                                         GEOM     BASIS   MCVARS     RHF    F12ABS    EF12   

 PROGRAMS   *        TOTAL   CCSD(T)        HF       INT
 CPU TIMES  *       336.70    293.01     27.22     16.35
 REAL TIME  *       381.33 SEC
 DISK USED  *         5.16 GB      
 **********************************************************************************************************************************
 SETTING E_F12_AB(1)    =      -116.83218924  AU                              
 SETTING E_F12_AB(2)    =      -116.82437412  AU                              

 Dummy atoms: O1  H5  H6


 Recomputing one-electron integrals since nuclear charges changed


 PROGRAM * SEWARD (Integral evaluation for generally contracted gaussian basis sets)     Author: Roland Lindh, 1990

 Geometry written to block  1 of record 700


 Point group  C1  



 ATOMIC COORDINATES

 NR  ATOM    CHARGE       X              Y              Z

   1  C1      6.00   -6.193010455    2.801518980    2.403542658
   2  H1      1.00   -4.656285171    1.699997622    3.119937832
   3  H2      1.00   -5.973046335    4.726205038    2.982932688
   4  H3      1.00   -7.940251230    2.077186956    3.118237078
   5  H4      1.00   -6.176569838    2.685300823    0.384937212
   6  O1      0.00   -5.732106254    9.977753938    2.847061379
   7  H5      0.00   -6.497256361    9.507023160    1.238715475
   8  H6      0.00   -4.013967261    9.251343215    2.814558090

 Bond lengths in Bohr (Angstrom)

 1-2  2.021904040  1-3  2.022002335  1-4  2.021953343  1-5  2.022015060  6-7  1.842231989
     ( 1.069945541)     ( 1.069997556)     ( 1.069971630)     ( 1.070004290)     ( 0.974867186)

 6-8  1.865671621
     ( 0.987270905)

 Bond angles

  2-1-3  109.53398059   2-1-4  109.65604535   2-1-5  108.43490854   3-1-4  109.49436728

  3-1-5  109.86987750   4-1-5  109.83468330   7-6-8  105.53314040

 NUCLEAR CHARGE:                   10
 NUMBER OF PRIMITIVE AOS:         270
 NUMBER OF SYMMETRY AOS:          246
 NUMBER OF CONTRACTIONS:          214   ( 214A   )
 NUMBER OF CORE ORBITALS:           1   (   1A   )
 NUMBER OF VALENCE ORBITALS:        8   (   8A   )

 MOLECULE CHANGED: INITIALIZING OCCUPATION AND DUMP RECORDS


 NUCLEAR REPULSION ENERGY   13.68681606


 Eigenvalues of metric

         1 0.729E-04 0.201E-03 0.282E-03 0.320E-03 0.331E-03 0.454E-03 0.530E-03 0.556E-03


 Contracted 2-electron integrals neglected if value below      1.0D-19

 OPERATOR DM      FOR CENTER  0  COORDINATES:    0.000000    0.000000    0.000000


 **********************************************************************************************************************************
 DATASETS  * FILE   NREC   LENGTH (MB)   RECORD NAMES
              1      19     1876.35       500      610      700      900      950      970     1000      129      960     1100   
                                          VAR    BASINP    GEOM    SYMINP    ZMAT    AOBASIS   BASIS     P2S    ABASIS      S 
                                         1400     1410     1200     1210     1080     1600     1650     1300     1700   
                                           T        V       H0       H01     AOSYM     SMH    MOLCAS    ERIS     OPER   

              2       6        4.74       700     1000      520     2100     7360     7350   
                                         GEOM     BASIS   MCVARS     RHF    F12ABS    EF12   

 PROGRAMS   *        TOTAL       INT   CCSD(T)        HF       INT
 CPU TIMES  *       336.77      0.07    293.01     27.22     16.35
 REAL TIME  *       381.68 SEC
 DISK USED  *         5.16 GB      
 **********************************************************************************************************************************


 PROGRAM * RHF-SCF (CLOSED SHELL)       Authors: W. Meyer, H.-J. Werner


 NUMBER OF ELECTRONS:       5+    5-    SPACE SYMMETRY=1    SPIN SYMMETRY: Singlet 
 CONVERGENCE THRESHOLDS:    1.00E-04 (Density)    1.00E-09 (Energy)
 MAX. NUMBER OF ITERATIONS:       60
 INTERPOLATION TYPE:            DIIS
 INTERPOLATION STEPS:              2 (START)      1 (STEP)
 LEVEL SHIFTS:                  0.00 (CLOSED)  0.00 (OPEN) 



 Orbital guess generated from atomic densities. Full valence occupancy:    9

 Molecular orbital dump at record        2101.2

 Initial occupancy:   5

 ITERATION    DDIFF          GRAD             ENERGY        2-EL.EN.            DIPOLE MOMENTS         DIIS   ORB.
    1      0.000D+00      0.000D+00       -40.19565503     53.501369    0.00411   -0.00279   -0.00138    0    start
    2      0.000D+00      0.368D-02       -40.21290000     52.216643    0.00129   -0.00092   -0.00050    1    diag
    3      0.319D-02      0.143D-02       -40.21516887     52.670305    0.00182   -0.00128   -0.00067    2    diag
    4      0.858D-03      0.357D-03       -40.21548710     52.615358    0.00162   -0.00114   -0.00061    3    diag
    5      0.333D-03      0.463D-04       -40.21549257     52.617512    0.00159   -0.00112   -0.00060    4    diag
    6      0.586D-04      0.375D-05       -40.21549261     52.617657    0.00159   -0.00112   -0.00060    5    diag
    7      0.861D-05      0.303D-06       -40.21549261     52.617617    0.00158   -0.00112   -0.00060    6    diag
    8      0.931D-06      0.229D-07       -40.21549261     52.617619    0.00158   -0.00112   -0.00060    0    orth

 Final occupancy:   5

 !RHF STATE 1.1 Energy                -40.215492607342
 Nuclear energy                        13.68681606
 One-electron energy                  -80.21111795
 Two-electron energy                   26.30880928
 Virial quotient                       -0.99832351
 !RHF STATE 1.1 Dipole moment           0.00158359    -0.00112060    -0.00060020
 Dipole moment /Debye                   0.00402483    -0.00284809    -0.00152546

 Orbital energies:

         1.1          2.1          3.1          4.1          5.1          6.1          7.1
    -11.196271    -0.950712    -0.551938    -0.550004    -0.547825     0.055604     0.068775

 HOMO      5.1    -0.547825 =     -14.9071eV
 LUMO      6.1     0.055604 =       1.5131eV
 LUMO-HOMO         0.603429 =      16.4201eV


 **********************************************************************************************************************************
 DATASETS  * FILE   NREC   LENGTH (MB)   RECORD NAMES
              1      19     1876.35       500      610      700      900      950      970     1000      129      960     1100   
                                          VAR    BASINP    GEOM    SYMINP    ZMAT    AOBASIS   BASIS     P2S    ABASIS      S 
                                         1400     1410     1200     1210     1080     1600     1650     1300     1700   
                                           T        V       H0       H01     AOSYM     SMH    MOLCAS    ERIS     OPER   

              2       7        8.14       700     1000      520     2100     7360     7350     2101   
                                         GEOM     BASIS   MCVARS     RHF    F12ABS    EF12      RHF  

 PROGRAMS   *        TOTAL        HF       INT   CCSD(T)        HF       INT
 CPU TIMES  *       357.25     20.48      0.07    293.01     27.22     16.35
 REAL TIME  *       406.86 SEC
 DISK USED  *         5.16 GB      
 **********************************************************************************************************************************
 SETTING E_HF_A         =       -40.21549261  AU                              


 PROGRAM * CCSD (Closed-shell coupled cluster)     Authors: C. Hampel, H.-J. Werner, 1991, M. Deegan, P.J. Knowles, 1992

                                  CCSD-F12 implementation by  H.-J. Werner, 2007

                   Density fitting integral evaluation by F.R. Manby, 2003,2007, G. Knizia, 2010

 Basis set CC-PVTZ/JKFIT generated.      Number of basis functions:   338 
 Basis set CC-PVTZ-F12/OPTRI generated.  Number of basis functions:   396 
 Basis set AUG-CC-PVTZ/MP2FIT generated. Number of basis functions:   488 

 Convergence thresholds:  THRVAR = 1.00D-08  THRDEN = 1.00D-08

 CCSD(T)     terms to be evaluated (factor= 1.000)


 Number of core orbitals:           1 (   1 )
 Number of closed-shell orbitals:   4 (   4 )
 Number of external orbitals:     209 ( 209 )

 Molecular orbitals read from record     2101.2  Type=RHF/CANONICAL (state 1.1)

 MP2-F12 correlation treatment (H.-J. Werner, 2006)
 ==================================================

 Using MP2-F12 with ansatz 3C(FIX)

 Using projected zeroth-order Hamiltonian (+Z)

 FOCKRIB=T FOCKRIC=T FOCKRIP=T CABSP=T CABSA=T CABSK=T CABSF=T GBC=F EBC=F DMAT=T NOFIK=T NOPAO=1 SOLVE=-1  USEPAO=0
 EXCH_A= T EXCH_B= F EXCH_C= F EXCH_P= F
 
 Geminal basis:    OPTFULL  GEM_TYPE=SLATER  BETA=1.0  NGEM=6

 Optimizing Gaussian exponents for each gem_beta

 Geminal optimization for beta= 1.0000
 Weight function:   m=0, omega= 1.4646

 Augmented Hessian optimization of geminal fit. Trust ratio= 0.40000
 Convergence reached after   2 iterations. Final gradient= 8.26D-16, Step= 4.26D-06, Delta= 1.28D-09
 
 Alpha:                 0.19532     0.81920     2.85917     9.50073    35.69989   197.79328
 Coeff:                 0.27070     0.30552     0.18297     0.10986     0.06810     0.04224
 

 All pairs explicitly correlated. Number of r12-pairs:           10

 Excluding core orbitals from MO domains
 
 AO(A)-basis ORBITAL           loaded. Number of functions:     214
 RI(R)-basis CC-PVTZ-F12/OPTRI loaded. Number of functions:     396
 DF-basis CC-PVTZ/JKFIT        loaded. Number of functions:     338

 Screening thresholds:   THRAO=  1.00D-10  THRMO=  1.00D-09  THRPROD=  1.00D-09
                         THRSW=  1.00D-05  THROV=  1.00D-12  THRAOF12=   1.00D-08

 CPU time for Fock operators                      2.88 sec
 
 Construction of ABS:
 Smallest eigenvalue of S          3.46E-04  (threshold= 1.00E-08)
 Ratio eigmin/eigmax               4.43E-05  (threshold= 1.00E-09)
 Smallest eigenvalue of S kept     3.46E-04  (threshold= 3.46E-04, 0 functions deleted, 396 kept)
 
 Construction of CABS:
 Smallest eigenvalue of S          7.90E-07  (threshold= 1.00E-08)
 Ratio eigmin/eigmax               7.90E-07  (threshold= 1.00E-09)
 Smallest eigenvalue of S kept     7.90E-07  (threshold= 7.90E-07, 0 functions deleted, 396 kept)
 
 CPU time for CABS singles                        0.12 sec

 CABS-singles contribution of  -0.00063561 patched into reference energy.
 New reference energy         -40.21612822
 
 AO(A)-basis ORBITAL           loaded. Number of functions:     214
 RI(R)-basis CC-PVTZ-F12/OPTRI loaded. Number of functions:     396
 DF-basis AUG-CC-PVTZ/MP2FIT   loaded. Number of functions:     488

 Screening thresholds:   THRAO=  1.00D-10  THRMO=  1.00D-09  THRPROD=  1.00D-09
                         THRSW=  1.00D-05  THROV=  1.00D-12  THRAOF12=   1.00D-08

 CPU time for 3-index integral evaluation         6.51 sec
 CPU time for first  half transformation          0.55 sec ( 4681.6 MFLOP/sec)
 CPU time for second half transformation          0.03 sec (  974.7 MFLOP/sec)
 CPU time for fitting                             0.04 sec (29768.0 MFLOP/sec)
 CPU time for tilde quantities                    0.05 sec (31777.9 MFLOP/sec)
 CPU time for assembly                            0.23 sec (34678.6 MFLOP/sec)
 CPU time for tranop_f12                          0.26 sec (36852.4 MFLOP/sec)
 CPU time for f12 integrals (total)               8.17 sec, Elapsed time:      8.64 sec
 CPU time for f12 matrices (total)                0.08 sec, Elapsed time:      0.12 sec

 Diagonal F12 approximation with fixed coefficients:  TSING= 0.500,  TTRIP= 0.250 (scaled by -1/beta)

 DF-MP2-F12 energy corrections:
 ==============================
 Approx.                                    Singlet             Triplet             Total
 DF-MP2-F12/3*C(DX,FIX)                -0.016279610272     -0.001138974651     -0.017418584922
 DF-MP2-F12/3*C(FIX)                   -0.015917981364     -0.001148599063     -0.017066580427
 DF-MP2-F12/3C(FIX)                    -0.015850526911     -0.001155818930     -0.017006345841

 DF-MP2-F12 correlation energies:
 ================================
 Approx.                                    Singlet             Triplet             Ecorr            Total Energy
 DF-MP2                                -0.145623102780     -0.055806372647     -0.201429475427    -40.417557692512
 DF-MP2-F12/3*C(DX,FIX)                -0.161902713052     -0.056945347297     -0.218848060349    -40.434976277434
 DF-MP2-F12/3*C(FIX)                   -0.161541084145     -0.056954971709     -0.218496055854    -40.434624272939
 DF-MP2-F12/3C(FIX)                    -0.161473629691     -0.056962191577     -0.218435821268    -40.434564038353

 SCS-DF-MP2 energies (F_SING= 1.20000  F_TRIP= 0.62222  F_PARALLEL= 0.33333):
 ============================================================================
 SCS-DF-MP2                            -0.209471688539    -40.425599905624
 SCS-DF-MP2-F12/3*C(DX,FIX)            -0.229715916203    -40.445844133288
 SCS-DF-MP2-F12/3*C(FIX)               -0.229287950037    -40.445416167122
 SCS-DF-MP2-F12/3C(FIX)                -0.229211497055    -40.445339714140
 Symmetry transformation completed.

 Number of N-1 electron functions:               4
 Number of N-2 electron functions:              10
 Number of singly external CSFs:               836
 Number of doubly external CSFs:            349866
 Total number of CSFs:                      350703

 Length of J-op  integral file:              53.89 MB
 Length of K-op  integral file:              87.81 MB
 Length of 3-ext integral record:             0.00 MB

 Memory could be reduced to 60.96 Mwords without degradation in triples

 Integral transformation finished. Total CPU:   5.49 sec, npass=  1  Memory used:  26.32 MW

 Reference energy:                    -40.21612822

 Adding F12 terms to K(Cij), methodcc=6,  factor= 1.0

 ITER.      SQ.NORM     CORR.ENERGY   TOTAL ENERGY   ENERGY CHANGE        DEN1      VAR(S)    VAR(P)  DIIS     TIME  TIME/IT
   1      1.06960674    -0.21653148   -40.43265969    -0.01506740    -0.00954202  0.62D-03  0.94D-03  1  1    20.58     3.81
   2      1.07446106    -0.21734802   -40.43347624    -0.00081654    -0.00516234  0.14D-04  0.90D-04  2  2    24.36     3.96
   3      1.07598330    -0.21745942   -40.43358763    -0.00011140    -0.00109028  0.20D-05  0.57D-05  3  3    28.19     4.01
   4      1.07635266    -0.21747391   -40.43360213    -0.00001449    -0.00020089  0.13D-06  0.31D-06  4  4    32.02     4.04
   5      1.07640457    -0.21747355   -40.43360177     0.00000036    -0.00000934  0.77D-08  0.15D-07  5  5    36.04     4.12
   6      1.07641087    -0.21747230   -40.43360052     0.00000125    -0.00000292  0.34D-09  0.91D-09  6  6    40.17     4.22
   7      1.07641164    -0.21747222   -40.43360043     0.00000009    -0.00000044  0.24D-10  0.79D-10  6  1    44.14     4.25
   8      1.07641174    -0.21747224   -40.43360046    -0.00000003     0.00000001  0.31D-11  0.67D-11  6  2    48.11     4.27
   9      1.07641174    -0.21747225   -40.43360047    -0.00000001     0.00000003  0.22D-12  0.38D-12  6  3    51.98     4.26
  10      1.07641173    -0.21747225   -40.43360047    -0.00000000     0.00000001  0.25D-13  0.36D-13  6  4    55.79     4.25

 Norm of t1 vector:      0.03261111      S-energy:    -0.00000000      T1 diagnostic:  0.00815278
                                                                       D1 diagnostic:  0.01307082

 Adding energy correction from Wij-K(Fij), methodcc=6  factor= 1.0
 
  CCSD correlation energy              -0.217472253630
  MP2-F12 correction (uncoupled)       -0.016706989668
  C*T doubles correction               -0.000290425610
  f12b correction                       0.003524198329


 Total CPU time for triples:     21.23 sec

  Ecorr(MP2)                           -0.201464080220
  Ecorr(MP2-F12)                       -0.218470426061
  Scale factor for triples energy       1.084413786429


 RESULTS
 =======

  Reference energy                    -40.215492607342
  F12 singles correction               -0.000635609743

 F12 singles corrections added to reference energy

  New reference energy                -40.216128217085

  F12a singlet correction              -0.015854117970
  F12a triplet correction              -0.001143297308
  F12a total correction                -0.016997415278

 F12a corrections for ansatz F12/3C(FIX) added to CCSD energy
 
  CCSD-F12a singlet pair energy        -0.179253250125
  CCSD-F12a triplet pair energy        -0.055216418325
  CCSD-F12a correlation energy         -0.234469668908

  Triples (T) contribution (scaled)    -0.006989046787
  Total correlation energy             -0.241458715695

  CCSD-F12a total energy              -40.450597885993
  CCSD[T]-F12a energy                 -40.457828372115
  CCSD-T-F12a energy                  -40.457513573544
 !CCSD(T)-F12a total energy           -40.457586932780

 F12b corrections for ansatz F12/3C(FIX) added to CCSD(T)-F12a energy

  CCSD-F12b singlet pair energy        -0.175883729753
  CCSD-F12b triplet pair energy        -0.055061740368
  CCSD-F12b correlation energy         -0.230945470579

  Triples (T) contribution (scaled)    -0.006989046787
  Total correlation energy             -0.237934517366

  CCSD-F12b total energy              -40.447073687665
  CCSD[T]-F12b energy                 -40.454304173786
  CCSD-T-F12b energy                  -40.453989375215
 !CCSD(T)-F12b total energy           -40.454062734451

 Timing summary (sec):

 STEP                 CPU(USER)    SYS     CPU(TOT)    WALL
 Transformation          5.52      0.63      6.15      6.52
 CCSD iterations        38.86      3.65     42.51     42.58
 Triples                21.23      0.33     21.56     21.57
 MP2-F12                11.43      0.51     11.94     12.08
 F12b energy             3.32      0.26      3.58      3.60

 Program statistics:

 Available memory in ccsd:              2999999786
 Min. memory needed in ccsd:               1609972
 Max. memory used in ccsd:                 1864434
 Max. memory used in cckext:               1252381 (11 integral passes)



 **********************************************************************************************************************************
 DATASETS  * FILE   NREC   LENGTH (MB)   RECORD NAMES
              1      20     2029.35       500      610      700      900      950      970     1000      129      960     1100   
                                          VAR    BASINP    GEOM    SYMINP    ZMAT    AOBASIS   BASIS     P2S    ABASIS      S 
                                         1400     1410     1200     1210     1080     1600     1650     1300     1700     1380   
                                           T        V       H0       H01     AOSYM     SMH    MOLCAS    ERIS     OPER     JKOP   

              2       7        8.14       700     1000      520     2100     7360     7350     2101   
                                         GEOM     BASIS   MCVARS     RHF    F12ABS    EF12      RHF  

 PROGRAMS   *        TOTAL   CCSD(T)        HF       INT   CCSD(T)        HF       INT
 CPU TIMES  *       437.64     80.39     20.48      0.07    293.01     27.22     16.35
 REAL TIME  *       493.44 SEC
 DISK USED  *         5.16 GB      
 **********************************************************************************************************************************
 SETTING E_F12_A(1)     =       -40.45758693  AU                              
 SETTING E_F12_A(2)     =       -40.45406273  AU                              

 Dummy atoms: C1  H1  H2  H3  H4


 Recomputing one-electron integrals since nuclear charges changed


 PROGRAM * SEWARD (Integral evaluation for generally contracted gaussian basis sets)     Author: Roland Lindh, 1990

 Geometry written to block  1 of record 700


 Point group  C1  



 ATOMIC COORDINATES

 NR  ATOM    CHARGE       X              Y              Z

   1  C1      0.00   -6.193010455    2.801518980    2.403542658
   2  H1      0.00   -4.656285171    1.699997622    3.119937832
   3  H2      0.00   -5.973046335    4.726205038    2.982932688
   4  H3      0.00   -7.940251230    2.077186956    3.118237078
   5  H4      0.00   -6.176569838    2.685300823    0.384937212
   6  O1      8.00   -5.732106254    9.977753938    2.847061379
   7  H5      1.00   -6.497256361    9.507023160    1.238715475
   8  H6      1.00   -4.013967261    9.251343215    2.814558090

 Bond lengths in Bohr (Angstrom)

 1-2  2.021904040  1-3  2.022002335  1-4  2.021953343  1-5  2.022015060  6-7  1.842231989
     ( 1.069945541)     ( 1.069997556)     ( 1.069971630)     ( 1.070004290)     ( 0.974867186)

 6-8  1.865671621
     ( 0.987270905)

 Bond angles

  2-1-3  109.53398059   2-1-4  109.65604535   2-1-5  108.43490854   3-1-4  109.49436728

  3-1-5  109.86987750   4-1-5  109.83468330   7-6-8  105.53314040

 NUCLEAR CHARGE:                   10
 NUMBER OF PRIMITIVE AOS:         270
 NUMBER OF SYMMETRY AOS:          246
 NUMBER OF CONTRACTIONS:          214   ( 214A   )
 NUMBER OF CORE ORBITALS:           1   (   1A   )
 NUMBER OF VALENCE ORBITALS:        6   (   6A   )

 MOLECULE CHANGED: INITIALIZING OCCUPATION AND DUMP RECORDS


 NUCLEAR REPULSION ENERGY    8.96929098


 Eigenvalues of metric

         1 0.729E-04 0.201E-03 0.282E-03 0.320E-03 0.331E-03 0.454E-03 0.530E-03 0.556E-03


 Contracted 2-electron integrals neglected if value below      1.0D-19

 OPERATOR DM      FOR CENTER  0  COORDINATES:    0.000000    0.000000    0.000000


 **********************************************************************************************************************************
 DATASETS  * FILE   NREC   LENGTH (MB)   RECORD NAMES
              1      19     1876.35       500      610      700      900      950      970     1000      129      960     1100   
                                          VAR    BASINP    GEOM    SYMINP    ZMAT    AOBASIS   BASIS     P2S    ABASIS      S 
                                         1400     1410     1200     1210     1080     1600     1650     1300     1700   
                                           T        V       H0       H01     AOSYM     SMH    MOLCAS    ERIS     OPER   

              2       7        8.14       700     1000      520     2100     7360     7350     2101   
                                         GEOM     BASIS   MCVARS     RHF    F12ABS    EF12      RHF  

 PROGRAMS   *        TOTAL       INT   CCSD(T)        HF       INT   CCSD(T)        HF       INT
 CPU TIMES  *       437.71      0.07     80.39     20.48      0.07    293.01     27.22     16.35
 REAL TIME  *       493.65 SEC
 DISK USED  *         5.16 GB      
 **********************************************************************************************************************************


 PROGRAM * RHF-SCF (CLOSED SHELL)       Authors: W. Meyer, H.-J. Werner


 NUMBER OF ELECTRONS:       5+    5-    SPACE SYMMETRY=1    SPIN SYMMETRY: Singlet 
 CONVERGENCE THRESHOLDS:    1.00E-04 (Density)    1.00E-09 (Energy)
 MAX. NUMBER OF ITERATIONS:       60
 INTERPOLATION TYPE:            DIIS
 INTERPOLATION STEPS:              2 (START)      1 (STEP)
 LEVEL SHIFTS:                  0.00 (CLOSED)  0.00 (OPEN) 



 Orbital guess generated from atomic densities. Full valence occupancy:    7

 Molecular orbital dump at record        2102.2

 Initial occupancy:   5

 ITERATION    DDIFF          GRAD             ENERGY        2-EL.EN.            DIPOLE MOMENTS         DIIS   ORB.
    1      0.000D+00      0.000D+00       -76.02390949     77.365036    0.49289   -0.61563   -0.84047    0    start
    2      0.000D+00      0.671D-02       -76.05067887     73.704854    0.28367   -0.35757   -0.49147    1    diag
    3      0.464D-02      0.428D-02       -76.06229538     75.332085    0.33502   -0.42182   -0.57868    2    diag
    4      0.163D-02      0.402D-03       -76.06249204     75.239455    0.33225   -0.41908   -0.57545    3    diag
    5      0.229D-03      0.113D-03       -76.06251343     75.254058    0.33119   -0.41808   -0.57427    4    diag
    6      0.807D-04      0.226D-04       -76.06251484     75.252966    0.33090   -0.41783   -0.57399    5    diag
    7      0.241D-04      0.460D-05       -76.06251491     75.253120    0.33081   -0.41775   -0.57389    6    diag
    8      0.579D-05      0.882D-06       -76.06251491     75.253107    0.33079   -0.41773   -0.57386    7    diag
    9      0.100D-05      0.119D-06       -76.06251491     75.253098    0.33079   -0.41772   -0.57386    8    diag
   10      0.179D-06      0.267D-07       -76.06251491     75.253102    0.33079   -0.41772   -0.57386    0    orth

 Final occupancy:   5

 !RHF STATE 1.1 Energy                -76.062514909616
 Nuclear energy                         8.96929098
 One-electron energy                 -122.65835713
 Two-electron energy                   37.62655124
 Virial quotient                       -1.00209960
 !RHF STATE 1.1 Dipole moment           0.33078621    -0.41772484    -0.57385911
 Dipole moment /Debye                   0.84071963    -1.06168110    -1.45850883

 Orbital energies:

         1.1          2.1          3.1          4.1          5.1          6.1          7.1
    -20.568558    -1.340339    -0.706930    -0.578485    -0.508316     0.036679     0.062704

 HOMO      5.1    -0.508316 =     -13.8320eV
 LUMO      6.1     0.036679 =       0.9981eV
 LUMO-HOMO         0.544995 =      14.8301eV


 **********************************************************************************************************************************
 DATASETS  * FILE   NREC   LENGTH (MB)   RECORD NAMES
              1      19     1876.35       500      610      700      900      950      970     1000      129      960     1100   
                                          VAR    BASINP    GEOM    SYMINP    ZMAT    AOBASIS   BASIS     P2S    ABASIS      S 
                                         1400     1410     1200     1210     1080     1600     1650     1300     1700   
                                           T        V       H0       H01     AOSYM     SMH    MOLCAS    ERIS     OPER   

              2       8       12.47       700     1000      520     2100     7360     7350     2101     2102   
                                         GEOM     BASIS   MCVARS     RHF    F12ABS    EF12      RHF      RHF  

 PROGRAMS   *        TOTAL        HF       INT   CCSD(T)        HF       INT   CCSD(T)        HF       INT
 CPU TIMES  *       462.52     24.81      0.07     80.39     20.48      0.07    293.01     27.22     16.35
 REAL TIME  *       521.54 SEC
 DISK USED  *         5.16 GB      
 **********************************************************************************************************************************
 SETTING E_HF_B         =       -76.06251491  AU                              


 PROGRAM * CCSD (Closed-shell coupled cluster)     Authors: C. Hampel, H.-J. Werner, 1991, M. Deegan, P.J. Knowles, 1992

                                  CCSD-F12 implementation by  H.-J. Werner, 2007

                   Density fitting integral evaluation by F.R. Manby, 2003,2007, G. Knizia, 2010

 Basis set CC-PVTZ/JKFIT generated.      Number of basis functions:   338 
 Basis set CC-PVTZ-F12/OPTRI generated.  Number of basis functions:   396 
 Basis set AUG-CC-PVTZ/MP2FIT generated. Number of basis functions:   488 

 Convergence thresholds:  THRVAR = 1.00D-08  THRDEN = 1.00D-08

 CCSD(T)     terms to be evaluated (factor= 1.000)


 Number of core orbitals:           1 (   1 )
 Number of closed-shell orbitals:   4 (   4 )
 Number of external orbitals:     209 ( 209 )

 Molecular orbitals read from record     2102.2  Type=RHF/CANONICAL (state 1.1)

 MP2-F12 correlation treatment (H.-J. Werner, 2006)
 ==================================================

 Using MP2-F12 with ansatz 3C(FIX)

 Using projected zeroth-order Hamiltonian (+Z)

 FOCKRIB=T FOCKRIC=T FOCKRIP=T CABSP=T CABSA=T CABSK=T CABSF=T GBC=F EBC=F DMAT=T NOFIK=T NOPAO=1 SOLVE=-1  USEPAO=0
 EXCH_A= T EXCH_B= F EXCH_C= F EXCH_P= F
 
 Geminal basis:    OPTFULL  GEM_TYPE=SLATER  BETA=1.0  NGEM=6

 Optimizing Gaussian exponents for each gem_beta

 Geminal optimization for beta= 1.0000
 Weight function:   m=0, omega= 1.4646

 Augmented Hessian optimization of geminal fit. Trust ratio= 0.40000
 Convergence reached after   2 iterations. Final gradient= 8.26D-16, Step= 4.26D-06, Delta= 1.28D-09
 
 Alpha:                 0.19532     0.81920     2.85917     9.50073    35.69989   197.79328
 Coeff:                 0.27070     0.30552     0.18297     0.10986     0.06810     0.04224
 

 All pairs explicitly correlated. Number of r12-pairs:           10

 Excluding core orbitals from MO domains
 
 AO(A)-basis ORBITAL           loaded. Number of functions:     214
 RI(R)-basis CC-PVTZ-F12/OPTRI loaded. Number of functions:     396
 DF-basis CC-PVTZ/JKFIT        loaded. Number of functions:     338

 Screening thresholds:   THRAO=  1.00D-10  THRMO=  1.00D-09  THRPROD=  1.00D-09
                         THRSW=  1.00D-05  THROV=  1.00D-12  THRAOF12=   1.00D-08

 CPU time for Fock operators                      2.79 sec
 
 Construction of ABS:
 Smallest eigenvalue of S          3.46E-04  (threshold= 1.00E-08)
 Ratio eigmin/eigmax               4.43E-05  (threshold= 1.00E-09)
 Smallest eigenvalue of S kept     3.46E-04  (threshold= 3.46E-04, 0 functions deleted, 396 kept)
 
 Construction of CABS:
 Smallest eigenvalue of S          7.90E-07  (threshold= 1.00E-08)
 Ratio eigmin/eigmax               7.90E-07  (threshold= 1.00E-09)
 Smallest eigenvalue of S kept     7.90E-07  (threshold= 7.90E-07, 0 functions deleted, 396 kept)
 
 CPU time for CABS singles                        0.12 sec

 CABS-singles contribution of  -0.00096474 patched into reference energy.
 New reference energy         -76.06347965
 
 AO(A)-basis ORBITAL           loaded. Number of functions:     214
 RI(R)-basis CC-PVTZ-F12/OPTRI loaded. Number of functions:     396
 DF-basis AUG-CC-PVTZ/MP2FIT   loaded. Number of functions:     488

 Screening thresholds:   THRAO=  1.00D-10  THRMO=  1.00D-09  THRPROD=  1.00D-09
                         THRSW=  1.00D-05  THROV=  1.00D-12  THRAOF12=   1.00D-08

 CPU time for 3-index integral evaluation         6.41 sec
 CPU time for first  half transformation          0.78 sec ( 3301.1 MFLOP/sec)
 CPU time for second half transformation          0.02 sec ( 1462.0 MFLOP/sec)
 CPU time for fitting                             0.03 sec (39690.7 MFLOP/sec)
 CPU time for tilde quantities                    0.04 sec (39722.4 MFLOP/sec)
 CPU time for assembly                            0.23 sec (34678.6 MFLOP/sec)
 CPU time for tranop_f12                          0.27 sec (35487.5 MFLOP/sec)
 CPU time for f12 integrals (total)               8.27 sec, Elapsed time:     13.87 sec
 CPU time for f12 matrices (total)                0.08 sec, Elapsed time:      0.12 sec

 Diagonal F12 approximation with fixed coefficients:  TSING= 0.500,  TTRIP= 0.250 (scaled by -1/beta)

 DF-MP2-F12 energy corrections:
 ==============================
 Approx.                                    Singlet             Triplet             Total
 DF-MP2-F12/3*C(DX,FIX)                -0.025088201428     -0.002992148228     -0.028080349655
 DF-MP2-F12/3*C(FIX)                   -0.023318839096     -0.002706389795     -0.026025228891
 DF-MP2-F12/3C(FIX)                    -0.023248405330     -0.002804051016     -0.026052456347

 DF-MP2-F12 correlation energies:
 ================================
 Approx.                                    Singlet             Triplet             Ecorr            Total Energy
 DF-MP2                                -0.175081840341     -0.099826215681     -0.274908056022    -76.338387706664
 DF-MP2-F12/3*C(DX,FIX)                -0.200170041769     -0.102818363909     -0.302988405677    -76.366468056319
 DF-MP2-F12/3*C(FIX)                   -0.198400679437     -0.102532605476     -0.300933284914    -76.364412935555
 DF-MP2-F12/3C(FIX)                    -0.198330245671     -0.102630266697     -0.300960512369    -76.364440163011

 SCS-DF-MP2 energies (F_SING= 1.20000  F_TRIP= 0.62222  F_PARALLEL= 0.33333):
 ============================================================================
 SCS-DF-MP2                            -0.272212298167    -76.335691948808
 SCS-DF-MP2-F12/3*C(DX,FIX)            -0.304179920999    -76.367659571641
 SCS-DF-MP2-F12/3*C(FIX)               -0.301878880954    -76.365358531596
 SCS-DF-MP2-F12/3C(FIX)                -0.301855127417    -76.365334778059
 Symmetry transformation completed.

 Number of N-1 electron functions:               4
 Number of N-2 electron functions:              10
 Number of singly external CSFs:               836
 Number of doubly external CSFs:            349866
 Total number of CSFs:                      350703

 Length of J-op  integral file:              53.89 MB
 Length of K-op  integral file:              87.81 MB
 Length of 3-ext integral record:             0.00 MB

 Memory could be reduced to 60.96 Mwords without degradation in triples

 Integral transformation finished. Total CPU:   5.74 sec, npass=  1  Memory used:  26.32 MW

 Reference energy:                    -76.06347965

 Adding F12 terms to K(Cij), methodcc=6,  factor= 1.0

 ITER.      SQ.NORM     CORR.ENERGY   TOTAL ENERGY   ENERGY CHANGE        DEN1      VAR(S)    VAR(P)  DIIS     TIME  TIME/IT
   1      1.06285575    -0.27500137   -76.33848102    -0.00005364     0.00597361  0.78D-03  0.10D-02  1  1    20.96     4.03
   2      1.06628927    -0.27475733   -76.33823698     0.00024404    -0.00471257  0.14D-04  0.11D-03  2  2    24.89     4.19
   3      1.06752630    -0.27489438   -76.33837403    -0.00013705    -0.00083046  0.97D-05  0.74D-05  3  3    28.88     4.25
   4      1.06809588    -0.27491704   -76.33839670    -0.00002267    -0.00036750  0.48D-06  0.63D-06  4  4    32.85     4.28
   5      1.06819467    -0.27491554   -76.33839519     0.00000151    -0.00002295  0.15D-06  0.45D-07  5  5    36.80     4.40
   6      1.06822297    -0.27491411   -76.33839376     0.00000143    -0.00000425  0.16D-07  0.45D-08  6  6    40.76     4.40
   7      1.06823105    -0.27491367   -76.33839332     0.00000043    -0.00000178  0.13D-08  0.61D-09  6  1    44.73     4.39
   8      1.06823275    -0.27491367   -76.33839332     0.00000000    -0.00000013  0.21D-09  0.74D-10  6  2    48.67     4.39
   9      1.06823333    -0.27491368   -76.33839333    -0.00000001     0.00000005  0.18D-10  0.98D-11  6  3    52.66     4.38

 Norm of t1 vector:      0.03668660      S-energy:    -0.00000005      T1 diagnostic:  0.00917165
                                                                       D1 diagnostic:  0.01852752

 Adding energy correction from Wij-K(Fij), methodcc=6  factor= 1.0
 
  CCSD correlation energy              -0.274913680725
  MP2-F12 correction (uncoupled)       -0.024937635566
  C*T doubles correction               -0.000829167891
  f12b correction                       0.004278485633

 Total CPU time for triples:     23.13 sec

  Ecorr(MP2)                           -0.274947725254
  Ecorr(MP2-F12)                       -0.301000181601
  Scale factor for triples energy       1.094754216724


 RESULTS
 =======

  Reference energy                    -76.062514909616
  F12 singles correction               -0.000964741025

 F12 singles corrections added to reference energy

  New reference energy                -76.063479650642

  F12a singlet correction              -0.023069718665
  F12a triplet correction              -0.002697084791
  F12a total correction                -0.025766803457

 F12a corrections for ansatz F12/3C(FIX) added to CCSD energy
 
  CCSD-F12a singlet pair energy        -0.209811735036
  CCSD-F12a triplet pair energy        -0.090868697039
  CCSD-F12a correlation energy         -0.300680484181

  Triples (T) contribution (scaled)    -0.009808502829
  Total correlation energy             -0.310488987010

  CCSD-F12a total energy              -76.364160134823
  CCSD[T]-F12a energy                 -76.374310456715
  CCSD-T-F12a energy                  -76.373819478906
 !CCSD(T)-F12a total energy           -76.373968637652

 F12b corrections for ansatz F12/3C(FIX) added to CCSD(T)-F12a energy

  CCSD-F12b singlet pair energy        -0.205843107227
  CCSD-F12b triplet pair energy        -0.090558839217
  CCSD-F12b correlation energy         -0.296401998549

  Triples (T) contribution (scaled)    -0.009808502829
  Total correlation energy             -0.306210501377

  CCSD-F12b total energy              -76.359881649190
  CCSD[T]-F12b energy                 -76.370031971083
  CCSD-T-F12b energy                  -76.369540993273
 !CCSD(T)-F12b total energy           -76.369690152019

 Timing summary (sec):

 STEP                 CPU(USER)    SYS     CPU(TOT)    WALL
 Transformation          5.77      0.76      6.53      6.68
 CCSD iterations        35.46      3.50     38.96     39.57
 Triples                23.13      0.39     23.52     23.53
 MP2-F12                11.44      0.50     11.94     17.24
 F12b energy             3.48      0.30      3.78      3.80

 Program statistics:

 Available memory in ccsd:              2999999786
 Min. memory needed in ccsd:               1609972
 Max. memory used in ccsd:                 1864434
 Max. memory used in cckext:               1252381 (10 integral passes)



 **********************************************************************************************************************************
 DATASETS  * FILE   NREC   LENGTH (MB)   RECORD NAMES
              1      20     2029.35       500      610      700      900      950      970     1000      129      960     1100   
                                          VAR    BASINP    GEOM    SYMINP    ZMAT    AOBASIS   BASIS     P2S    ABASIS      S 
                                         1400     1410     1200     1210     1080     1600     1650     1300     1700     1380   
                                           T        V       H0       H01     AOSYM     SMH    MOLCAS    ERIS     OPER     JKOP   

              2       8       12.47       700     1000      520     2100     7360     7350     2101     2102   
                                         GEOM     BASIS   MCVARS     RHF    F12ABS    EF12      RHF      RHF  

 PROGRAMS   *        TOTAL   CCSD(T)        HF       INT   CCSD(T)        HF       INT   CCSD(T)        HF       INT
 CPU TIMES  *       541.85     79.32     24.81      0.07     80.39     20.48      0.07    293.01     27.22     16.35
 REAL TIME  *       620.95 SEC
 DISK USED  *         5.16 GB      
 **********************************************************************************************************************************
 SETTING E_F12_B(1)     =       -76.37396864  AU                              
 SETTING E_F12_B(2)     =       -76.36969015  AU                              
 SETTING E_INT_HF       =         0.00053726  AU                              
 SETTING E_INT_F12(1)   =        -0.00063367  AU                              
 SETTING E_INT_F12(2)   =        -0.00062124  AU                              
 E_INT_HF         =         0.00053726 AU
 E_INT_F12(1:2)   = [      -0.00063367    -0.00062124] AU

 CCSD(T)-F12/cc-pVTZ-F12 energy=    -76.369690152019

     CCSD(T)-F12        HF-SCF       CCSD(T)-F12        HF-SCF       CCSD(T)-F12        HF-SCF  
    -76.36969015    -76.06251491    -40.45406273    -40.21549261   -116.82437412   -116.27747026
 **********************************************************************************************************************************
 Molpro calculation terminated
 Variable memory released
