
 Primary working directories    : /net/scratch/people/plgsirous
 Secondary working directories  : /net/scratch/people/plgsirous
 Wavefunction directory         : /net/people/plgsirous/wfu/
 Main file repository           : /net/scratch/people/plgsirous/

 SHA1      : 
 NAME      : 
 ARCHNAME  : linux/x86_64
 FC        : /net/software/local/intel/impi/2018.1.163/bin64/mpiifort
 BLASLIB   : -L/net/software/local/intel/compilers_and_libraries_2018.1.163/linux/mkl/lib/intel64 -lmkl_scalapack_ilp64 -lmkl_intel_ilp64 -lmkl_intel_thread -lmkl_core -lmkl_blacs_intelmpi_ilp64 -liomp5 -lpthread -lm -ldl
 id        : pl

 Nodes     nprocs
 p1412        1

 Using customized tuning parameters: mindgm=7; mindgv=20; mindgc=1; mindgr=1; noblas=0; minvec=7
 default implementation of scratch files=df  

 memory,3000,m
 zsymel=nosym
 angstrom
 geometry={
 C1        -3.2772    1.4825     1.2719
 H1        -2.4640    0.8996     1.6510
 H2        -3.1608    2.5010     1.5785
 H3        -4.2018    1.0992     1.6501
 H4        -3.2685    1.4210     0.2037
 O1        -4.0537    0.0941     4.8628
 H5        -3.6356    1.0018     4.8955
 H6        -4.2137    -0.1413     5.7854
 }
 basis=vtz-f12
 gthresh,orbital=1d-8,energy=1d-8,twoint=1.d-19
 
 
 nkerna=1
 nkernb=1
 nkernab=$nkerna+$nkernb
 
                                                                                 ! AB Dimer
 {hf,accu=1.d-8}
 E_HF_AB=energy
 core,$nkernab
 {ccsd(t)-f12,scale_trip=1,THRF12=1.d-12}
 E_F12_AB=energy
 
                                                                                 ! Monomer A Part
 
 dummy,6,7,8;
 {hf,accu=1.d-8}
 E_HF_A=energy
 core,$nkerna
 {ccsd(t)-f12,scale_trip=1,THRF12=1.d-12}
 E_F12_A=energy
 
                                                                                 ! Monomer B Part
 
 dummy,1,2,3,4,5;
 {hf,accu=1.d-8}
 E_HF_B=energy
 core,$nkernb
 {ccsd(t)-f12,scale_trip=1,THRF12=1.d-12}
 E_F12_B=energy
 
 E_int_HF = E_HF_AB-(E_HF_A+E_HF_B)
 E_int_F12 = E_F12_AB-(E_F12_A+E_F12_B)
 
 
 show,E_int_HF,E_int_F12

 Variables initialized (889), CPU time= 0.01 sec
 Commands  initialized (702), CPU time= 0.00 sec, 572 directives.
 Default parameters read. Elapsed time= 0.07 sec

 Checking input...
 Passed
1


                                         ***  PROGRAM SYSTEM MOLPRO  ***
                                       Copyright, TTI GmbH Stuttgart, 2015
                                    Version 2015.1 linked Jul  2 2018 15:03:07


 **********************************************************************************************************************************
 LABEL *                                                                                 
  64 bit serial version                                                                  DATE: 17-Jan-19          TIME: 14:52:53  
 **********************************************************************************************************************************

 SHA1:             
 **********************************************************************************************************************************
 SETTING ZSYMEL         =    NOSYM
 ZSYMEL=NOSYM
 ZUNIT=ANG
 

Geometry recognized as XYZ


 Variable memory set to 3000000000 words,  buffer space   230000 words

 SETTING BASIS          =    VTZ-F12

 THRESHOLDS:

 ZERO    =  1.00D-12  ONEINT  =  1.00D-12  TWOINT  =  1.00D-19  PREFAC  =  1.00D-14  LOCALI  =  1.00D-09  EORDER  =  1.00D-04
 ENERGY  =  1.00D-08  ETEST   =  0.00D+00  EDENS   =  0.00D+00  THRDEDEF=  1.00D-06  GRADIENT=  1.00D-02  STEP    =  1.00D-03
 ORBITAL =  1.00D-08  CIVEC   =  1.00D-05  COEFF   =  1.00D-04  PRINTCI =  5.00D-02  PUNCHCI =  9.90D+01  OPTGRAD =  3.00D-04
 OPTENERG=  1.00D-06  OPTSTEP =  3.00D-04  THRGRAD =  1.00D-10  COMPRESS=  1.00D-11  VARMIN  =  1.00D-07  VARMAX  =  1.00D-03
 THRDOUB =  0.00D+00  THRDIV  =  1.00D-05  THRRED  =  1.00D-07  THRPSP  =  1.00D+00  THRDC   =  1.00D-10  THRCS   =  1.00D-10
 THRNRM  =  1.00D-08  THREQ   =  0.00D+00  THRDE   =  1.00D+00  THRREF  =  1.00D-05  SPARFAC =  1.00D+00  THRDLP  =  1.00D-07
 THRDIA  =  1.00D-10  THRDLS  =  1.00D-07  THRGPS  =  0.00D+00  THRKEX  =  0.00D+00  THRDIS  =  2.00D-01  THRVAR  =  1.00D-10
 THRLOC  =  1.00D-06  THRGAP  =  1.00D-06  THRLOCT = -1.00D+00  THRGAPT = -1.00D+00  THRORB  =  1.00D-06  THRMLTP =  0.00D+00
 THRCPQCI=  1.00D-10  KEXTA   =  0.00D+00  THRCOARS=  0.00D+00  SYMTOL  =  1.00D-06  GRADTOL =  1.00D-06  THROVL  =  1.00D-08
 THRORTH =  1.00D-08  GRID    =  1.00D-06  GRIDMAX =  1.00D-03  DTMAX   =  0.00D+00  THROCCDE=  1.00D-01  THROCCDE=  1.00D-01


 SETTING NKERNA         =         1.00000000                                  
 SETTING NKERNB         =         1.00000000                                  
 SETTING NKERNAB        =         2.00000000                                  


 Recomputing integrals since basis changed


 Using spherical harmonics

 Library entry C      S cc-pVTZ-F12          selected for orbital group  1
 Library entry C      P cc-pVTZ-F12          selected for orbital group  1
 Library entry C      D cc-pVTZ-F12          selected for orbital group  1
 Library entry C      F cc-pVTZ-F12          selected for orbital group  1
 Library entry H      S cc-pVTZ-F12          selected for orbital group  2
 Library entry H      P cc-pVTZ-F12          selected for orbital group  2
 Library entry H      D cc-pVTZ-F12          selected for orbital group  2
 Library entry O      S cc-pVTZ-F12          selected for orbital group  3
 Library entry O      P cc-pVTZ-F12          selected for orbital group  3
 Library entry O      D cc-pVTZ-F12          selected for orbital group  3
 Library entry O      F cc-pVTZ-F12          selected for orbital group  3


 PROGRAM * SEWARD (Integral evaluation for generally contracted gaussian basis sets)     Author: Roland Lindh, 1990

 Geometry written to block  1 of record 700


 Point group  C1  



 ATOMIC COORDINATES

 NR  ATOM    CHARGE       X              Y              Z

   1  C1      6.00   -6.193010455    2.801518980    2.403542658
   2  H1      1.00   -4.656285171    1.699997622    3.119937832
   3  H2      1.00   -5.973046335    4.726205038    2.982932688
   4  H3      1.00   -7.940251230    2.077186956    3.118237078
   5  H4      1.00   -6.176569838    2.685300823    0.384937212
   6  O1      8.00   -7.660382791    0.177823228    9.189360199
   7  H5      1.00   -6.870288298    1.893127632    9.251154243
   8  H6      1.00   -7.962738971   -0.267018301   10.932821521

 Bond lengths in Bohr (Angstrom)

 1-2  2.021904040  1-3  2.022002335  1-4  2.021953343  1-5  2.022015060  6-7  1.889533542
     ( 1.069945541)     ( 1.069997556)     ( 1.069971630)     ( 1.070004290)     ( 0.999898090)

 6-8  1.824543951
     ( 0.965507079)

 Bond angles

  2-1-3  109.53398059   2-1-4  109.65604535   2-1-5  108.43490854   3-1-4  109.49436728

  3-1-5  109.86987750   4-1-5  109.83468330   7-6-8  105.03277623

 NUCLEAR CHARGE:                   20
 NUMBER OF PRIMITIVE AOS:         270
 NUMBER OF SYMMETRY AOS:          246
 NUMBER OF CONTRACTIONS:          214   ( 214A   )
 NUMBER OF CORE ORBITALS:           2   (   2A   )
 NUMBER OF VALENCE ORBITALS:       14   (  14A   )


 NUCLEAR REPULSION ENERGY   35.91495842


 Eigenvalues of metric

         1 0.720E-04 0.186E-03 0.293E-03 0.332E-03 0.336E-03 0.425E-03 0.546E-03 0.565E-03


 Contracted 2-electron integrals neglected if value below      1.0D-19
 AO integral compression algorithm  1   Integral accuracy      1.0D-19

     2010.120 MB (compressed) written to integral file ( 82.5%)


 NUMBER OF SORTED TWO-ELECTRON INTEGRALS:  264626515.     BUFFER LENGTH:  32768
 NUMBER OF SEGMENTS:  17  SEGMENT LENGTH:   15999762      RECORD LENGTH: 524288

 Memory used in sort:      16.56 MW

 SORT1 READ   304635709. AND WROTE   243458543. INTEGRALS IN    706 RECORDS. CPU TIME:     3.27 SEC, REAL TIME:     8.48 SEC
 SORT2 READ   243458543. AND WROTE   264626515. INTEGRALS IN   7668 RECORDS. CPU TIME:     3.36 SEC, REAL TIME:     8.38 SEC

 FILE SIZES:   FILE 1:  2031.8 MBYTE,  FILE 4:  2961.2 MBYTE,   TOTAL:   4993.0 MBYTE

 OPERATOR DM      FOR CENTER  0  COORDINATES:    0.000000    0.000000    0.000000


 **********************************************************************************************************************************
 DATASETS  * FILE   NREC   LENGTH (MB)   RECORD NAMES
              1      19     1782.97       500      610      700      900      950      970     1000      129      960     1100   
                                          VAR    BASINP    GEOM    SYMINP    ZMAT    AOBASIS   BASIS     P2S    ABASIS      S 
                                         1400     1410     1200     1210     1080     1600     1650     1300     1700   
                                           T        V       H0       H01     AOSYM     SMH    MOLCAS    ERIS     OPER   

 PROGRAMS   *        TOTAL       INT
 CPU TIMES  *        16.23     16.10
 REAL TIME  *        32.27 SEC
 DISK USED  *         4.99 GB      
 **********************************************************************************************************************************


 PROGRAM * RHF-SCF (CLOSED SHELL)       Authors: W. Meyer, H.-J. Werner


 NUMBER OF ELECTRONS:      10+   10-    SPACE SYMMETRY=1    SPIN SYMMETRY: Singlet 
 CONVERGENCE THRESHOLDS:    1.00E-04 (Density)    1.00E-09 (Energy)
 MAX. NUMBER OF ITERATIONS:       60
 INTERPOLATION TYPE:            DIIS
 INTERPOLATION STEPS:              2 (START)      1 (STEP)
 LEVEL SHIFTS:                  0.00 (CLOSED)  0.00 (OPEN) 



 Orbital guess generated from atomic densities. Full valence occupancy:   16

 Molecular orbital dump at record        2100.2

 Initial occupancy:  10

 ITERATION    DDIFF          GRAD             ENERGY        2-EL.EN.            DIPOLE MOMENTS         DIIS   ORB.
    1      0.000D+00      0.000D+00      -116.21877094    157.563106    0.25848    0.65714    0.91928    0    start
    2      0.000D+00      0.548D-02      -116.26284074    152.519881    0.12640    0.33562    0.55103    1    diag
    3      0.562D-02      0.324D-02      -116.27661275    154.611184    0.15818    0.41549    0.64659    2    diag
    4      0.183D-02      0.478D-03      -116.27727211    154.496614    0.15484    0.40778    0.63889    3    diag
    5      0.416D-03      0.141D-03      -116.27734182    154.491630    0.15409    0.40663    0.63912    4    diag
    6      0.155D-03      0.341D-04      -116.27734575    154.497211    0.15372    0.40585    0.63862    5    diag
    7      0.403D-04      0.699D-05      -116.27734599    154.495520    0.15367    0.40577    0.63865    6    diag
    8      0.107D-04      0.180D-05      -116.27734601    154.495703    0.15363    0.40569    0.63861    7    diag
    9      0.303D-05      0.418D-06      -116.27734601    154.495675    0.15363    0.40567    0.63860    8    diag
   10      0.638D-06      0.487D-07      -116.27734601    154.495677    0.15363    0.40567    0.63860    0    orth

 Final occupancy:  10

 !RHF STATE 1.1 Energy               -116.277346011929
 Nuclear energy                        35.91495842
 One-electron energy                 -229.44014298
 Two-electron energy                   77.24783855
 Virial quotient                       -1.00080235
 !RHF STATE 1.1 Dipole moment           0.15362669     0.40567365     0.63859666
 Dipole moment /Debye                   0.39045452     1.03105204     1.62304450

 Orbital energies:

         1.1          2.1          3.1          4.1          5.1          6.1          7.1          8.1          9.1         10.1
    -20.568878   -11.190938    -1.340054    -0.945607    -0.705189    -0.579205    -0.547227    -0.544313    -0.542536    -0.508286

        11.1         12.1
      0.056666     0.068368

 HOMO     10.1    -0.508286 =     -13.8312eV
 LUMO     11.1     0.056666 =       1.5420eV
 LUMO-HOMO         0.564952 =      15.3731eV


 **********************************************************************************************************************************
 DATASETS  * FILE   NREC   LENGTH (MB)   RECORD NAMES
              1      19     1782.97       500      610      700      900      950      970     1000      129      960     1100   
                                          VAR    BASINP    GEOM    SYMINP    ZMAT    AOBASIS   BASIS     P2S    ABASIS      S 
                                         1400     1410     1200     1210     1080     1600     1650     1300     1700   
                                           T        V       H0       H01     AOSYM     SMH    MOLCAS    ERIS     OPER   

              2       4        3.81       700     1000      520     2100   
                                         GEOM     BASIS   MCVARS     RHF  

 PROGRAMS   *        TOTAL        HF       INT
 CPU TIMES  *        41.21     24.99     16.10
 REAL TIME  *        61.00 SEC
 DISK USED  *         4.99 GB      
 **********************************************************************************************************************************
 SETTING E_HF_AB        =      -116.27734601  AU                              


 PROGRAM * CCSD (Closed-shell coupled cluster)     Authors: C. Hampel, H.-J. Werner, 1991, M. Deegan, P.J. Knowles, 1992

                                  CCSD-F12 implementation by  H.-J. Werner, 2007

                   Density fitting integral evaluation by F.R. Manby, 2003,2007, G. Knizia, 2010

 Basis set CC-PVTZ/JKFIT generated.      Number of basis functions:   338 
 Basis set CC-PVTZ-F12/OPTRI generated.  Number of basis functions:   396 
 Basis set AUG-CC-PVTZ/MP2FIT generated. Number of basis functions:   488 

 Convergence thresholds:  THRVAR = 1.00D-08  THRDEN = 1.00D-08

 CCSD(T)     terms to be evaluated (factor= 1.000)


 Number of core orbitals:           2 (   2 )
 Number of closed-shell orbitals:   8 (   8 )
 Number of external orbitals:     204 ( 204 )

 Molecular orbitals read from record     2100.2  Type=RHF/CANONICAL (state 1.1)

 MP2-F12 correlation treatment (H.-J. Werner, 2006)
 ==================================================

 Using MP2-F12 with ansatz 3C(FIX)

 Using projected zeroth-order Hamiltonian (+Z)

 FOCKRIB=T FOCKRIC=T FOCKRIP=T CABSP=T CABSA=T CABSK=T CABSF=T GBC=F EBC=F DMAT=T NOFIK=T NOPAO=1 SOLVE=-1  USEPAO=0
 EXCH_A= T EXCH_B= F EXCH_C= F EXCH_P= F
 
 Geminal basis:    OPTFULL  GEM_TYPE=SLATER  BETA=1.0  NGEM=6

 Optimizing Gaussian exponents for each gem_beta

 Geminal optimization for beta= 1.0000
 Weight function:   m=0, omega= 1.4646

 Augmented Hessian optimization of geminal fit. Trust ratio= 0.40000
 Convergence reached after   2 iterations. Final gradient= 8.26D-16, Step= 4.26D-06, Delta= 1.28D-09
 
 Alpha:                 0.19532     0.81920     2.85917     9.50073    35.69989   197.79328
 Coeff:                 0.27070     0.30552     0.18297     0.10986     0.06810     0.04224
 

 All pairs explicitly correlated. Number of r12-pairs:           36

 Excluding core orbitals from MO domains
 
 AO(A)-basis ORBITAL           loaded. Number of functions:     214
 RI(R)-basis CC-PVTZ-F12/OPTRI loaded. Number of functions:     396
 DF-basis CC-PVTZ/JKFIT        loaded. Number of functions:     338

 Screening thresholds:   THRAO=  1.00D-10  THRMO=  1.00D-09  THRPROD=  1.00D-09
                         THRSW=  1.00D-05  THROV=  1.00D-12  THRAOF12=   1.00D-08

 CPU time for Fock operators                      3.19 sec
 
 Construction of ABS:
 Smallest eigenvalue of S          4.12E-04  (threshold= 1.00E-08)
 Ratio eigmin/eigmax               5.30E-05  (threshold= 1.00E-09)
 Smallest eigenvalue of S kept     4.12E-04  (threshold= 4.12E-04, 0 functions deleted, 396 kept)
 
 Construction of CABS:
 Smallest eigenvalue of S          8.32E-07  (threshold= 1.00E-08)
 Ratio eigmin/eigmax               8.32E-07  (threshold= 1.00E-09)
 Smallest eigenvalue of S kept     8.32E-07  (threshold= 8.32E-07, 0 functions deleted, 396 kept)
 
 CPU time for CABS singles                        0.12 sec

 CABS-singles contribution of  -0.00159878 patched into reference energy.
 New reference energy        -116.27894479
 
 AO(A)-basis ORBITAL           loaded. Number of functions:     214
 RI(R)-basis CC-PVTZ-F12/OPTRI loaded. Number of functions:     396
 DF-basis AUG-CC-PVTZ/MP2FIT   loaded. Number of functions:     488

 Screening thresholds:   THRAO=  1.00D-10  THRMO=  1.00D-09  THRPROD=  1.00D-09
                         THRSW=  1.00D-05  THROV=  1.00D-12  THRAOF12=   1.00D-08

 CPU time for 3-index integral evaluation         6.04 sec
 CPU time for first  half transformation          0.52 sec ( 9903.4 MFLOP/sec)
 CPU time for second half transformation          0.02 sec ( 5848.2 MFLOP/sec)
 CPU time for sorting                             0.02 sec
 CPU time for fitting                             0.08 sec (30482.4 MFLOP/sec)
 CPU time for tilde quantities                    0.08 sec (40198.7 MFLOP/sec)
 CPU time for assembly                            0.89 sec (33638.8 MFLOP/sec)
 CPU time for tranop_f12                          1.12 sec (34581.9 MFLOP/sec)
 CPU time for f12 integrals (total)              10.21 sec, Elapsed time:     19.97 sec
 CPU time for f12 matrices (total)                0.33 sec, Elapsed time:      0.41 sec

 Diagonal F12 approximation with fixed coefficients:  TSING= 0.500,  TTRIP= 0.250 (scaled by -1/beta)

 DF-MP2-F12 energy corrections:
 ==============================
 Approx.                                    Singlet             Triplet             Total
 DF-MP2-F12/3*C(DX,FIX)                -0.041417765408     -0.004146138693     -0.045563904101
 DF-MP2-F12/3*C(FIX)                   -0.039293402762     -0.003876105972     -0.043169508734
 DF-MP2-F12/3C(FIX)                    -0.039151542684     -0.003982199774     -0.043133742458

 DF-MP2-F12 correlation energies:
 ================================
 Approx.                                    Singlet             Triplet             Ecorr            Total Energy
 DF-MP2                                -0.320882265492     -0.156061603890     -0.476943869383   -116.755888663257
 DF-MP2-F12/3*C(DX,FIX)                -0.362300030901     -0.160207742583     -0.522507773484   -116.801452567358
 DF-MP2-F12/3*C(FIX)                   -0.360175668255     -0.159937709862     -0.520113378117   -116.799058171991
 DF-MP2-F12/3C(FIX)                    -0.360033808176     -0.160043803665     -0.520077611841   -116.799022405715

 SCS-DF-MP2 energies (F_SING= 1.20000  F_TRIP= 0.62222  F_PARALLEL= 0.33333):
 ============================================================================
 SCS-DF-MP2                            -0.482163716567   -116.761108510441
 SCS-DF-MP2-F12/3*C(DX,FIX)            -0.534444854688   -116.813389648562
 SCS-DF-MP2-F12/3*C(FIX)               -0.531727599153   -116.810672393027
 SCS-DF-MP2-F12/3C(FIX)                -0.531623380980   -116.810568174855
 Symmetry transformation completed.

 Number of N-1 electron functions:               8
 Number of N-2 electron functions:              36
 Number of singly external CSFs:              1632
 Number of doubly external CSFs:           1332528
 Total number of CSFs:                     1334161

 Length of J-op  integral file:             205.73 MB
 Length of K-op  integral file:             258.78 MB
 Length of 3-ext integral record:             0.00 MB

 Memory could be reduced to 93.27 Mwords without degradation in triples

 Integral transformation finished. Total CPU:   9.14 sec, npass=  1  Memory used:  48.07 MW

 Reference energy:                   -116.27894479

 Adding F12 terms to K(Cij), methodcc=6,  factor= 1.0

 ITER.      SQ.NORM     CORR.ENERGY   TOTAL ENERGY   ENERGY CHANGE        DEN1      VAR(S)    VAR(P)  DIIS     TIME  TIME/IT
   1      1.13274472    -0.49208193  -116.77102672    -0.01506114    -0.00348573  0.14D-02  0.20D-02  1  1    31.68     8.63
   2      1.14075808    -0.49264549  -116.77159029    -0.00056356    -0.00962081  0.30D-04  0.23D-03  2  2    40.37     8.88
   3      1.14379243    -0.49290243  -116.77184722    -0.00025693    -0.00215370  0.12D-04  0.14D-04  3  3    49.41     9.11
   4      1.14477660    -0.49293553  -116.77188033    -0.00003311    -0.00061100  0.61D-06  0.11D-05  4  4    58.44     9.22
   5      1.14493587    -0.49293471  -116.77187951     0.00000082    -0.00003020  0.16D-06  0.63D-07  5  5    67.48     9.29
   6      1.14497026    -0.49293252  -116.77187731     0.00000219    -0.00000678  0.14D-07  0.69D-08  6  6    76.58    10.60
   7      1.14497821    -0.49293185  -116.77187664     0.00000067    -0.00000234  0.21D-08  0.59D-09  6  2    85.64    10.46
   8      1.14498104    -0.49293172  -116.77187652     0.00000013    -0.00000057  0.18D-09  0.60D-10  6  1    94.65    10.34
   9      1.14498164    -0.49293173  -116.77187652    -0.00000001    -0.00000001  0.15D-10  0.11D-10  6  3   103.71    10.27
  10      1.14498173    -0.49293174  -116.77187653    -0.00000001     0.00000009  0.20D-11  0.13D-11  6  4   112.74    10.20
  11      1.14498170    -0.49293174  -116.77187654    -0.00000000     0.00000006  0.31D-12  0.15D-12  6  5   121.76    10.15
  12      1.14498167    -0.49293174  -116.77187654     0.00000000     0.00000002  0.61D-13  0.18D-13  6  6   130.85    10.11

 Norm of t1 vector:      0.04930563      S-energy:     0.00000000      T1 diagnostic:  0.00871609
                                                                       D1 diagnostic:  0.01859515

 Adding energy correction from Wij-K(Fij), methodcc=6  factor= 1.0
 
  CCSD correlation energy              -0.492931742835
  MP2-F12 correction (uncoupled)       -0.041711659107
  C*T doubles correction               -0.001127532893
  f12b correction                       0.007814741688


 Total CPU time for triples:    162.96 sec

  Ecorr(MP2)                           -0.477020793179
  Ecorr(MP2-F12)                       -0.520154535637
  Scale factor for triples energy       1.090423191347


 RESULTS
 =======

  Reference energy                   -116.277346011929
  F12 singles correction               -0.001598781946

 F12 singles corrections added to reference energy

  New reference energy               -116.278944793874

  F12a singlet correction              -0.038977317913
  F12a triplet correction              -0.003861874088
  F12a total correction                -0.042839192001

 F12a corrections for ansatz F12/3C(FIX) added to CCSD energy
 
  CCSD-F12a singlet pair energy        -0.389271127539
  CCSD-F12a triplet pair energy        -0.146499810751
  CCSD-F12a correlation energy         -0.535770934836

  Triples (T) contribution (scaled)    -0.016893387294
  Total correlation energy             -0.552664322130

  CCSD-F12a total energy             -116.814715728710
  CCSD[T]-F12a energy                -116.832194680885
  CCSD-T-F12a energy                 -116.831384802095
 !CCSD(T)-F12a total energy          -116.831609116004

 F12b corrections for ansatz F12/3C(FIX) added to CCSD(T)-F12a energy

  CCSD-F12b singlet pair energy        -0.381922491852
  CCSD-F12b triplet pair energy        -0.146033704750
  CCSD-F12b correlation energy         -0.527956193148

  Triples (T) contribution (scaled)    -0.016893387294
  Total correlation energy             -0.544849580442

  CCSD-F12b total energy             -116.806900987022
  CCSD[T]-F12b energy                -116.824379939197
  CCSD-T-F12b energy                 -116.823570060407
 !CCSD(T)-F12b total energy          -116.823794374316

 Timing summary (sec):

 STEP                 CPU(USER)    SYS     CPU(TOT)    WALL
 Transformation          9.25      0.99     10.24     10.53
 CCSD iterations       107.55      6.26    113.81    121.46
 Triples               162.96      2.77    165.73    165.81
 MP2-F12                14.07      1.46     15.53     24.25
 F12b energy             7.10      0.31      7.41      7.42

 Program statistics:

 Available memory in ccsd:              2999999464
 Min. memory needed in ccsd:               3963025
 Max. memory used in ccsd:                 5096465
 Max. memory used in cckext:               3666031 (13 integral passes)



 **********************************************************************************************************************************
 DATASETS  * FILE   NREC   LENGTH (MB)   RECORD NAMES
              1      20     2076.52       500      610      700      900      950      970     1000      129      960     1100   
                                          VAR    BASINP    GEOM    SYMINP    ZMAT    AOBASIS   BASIS     P2S    ABASIS      S 
                                         1400     1410     1200     1210     1080     1600     1650     1300     1700     1380   
                                           T        V       H0       H01     AOSYM     SMH    MOLCAS    ERIS     OPER     JKOP   

              2       6        4.74       700     1000      520     2100     7360     7350   
                                         GEOM     BASIS   MCVARS     RHF    F12ABS    EF12   

 PROGRAMS   *        TOTAL   CCSD(T)        HF       INT
 CPU TIMES  *       342.18    300.97     24.99     16.10
 REAL TIME  *       390.71 SEC
 DISK USED  *         4.99 GB      
 **********************************************************************************************************************************
 SETTING E_F12_AB(1)    =      -116.83160912  AU                              
 SETTING E_F12_AB(2)    =      -116.82379437  AU                              

 Dummy atoms: O1  H5  H6


 Recomputing one-electron integrals since nuclear charges changed


 PROGRAM * SEWARD (Integral evaluation for generally contracted gaussian basis sets)     Author: Roland Lindh, 1990

 Geometry written to block  1 of record 700


 Point group  C1  



 ATOMIC COORDINATES

 NR  ATOM    CHARGE       X              Y              Z

   1  C1      6.00   -6.193010455    2.801518980    2.403542658
   2  H1      1.00   -4.656285171    1.699997622    3.119937832
   3  H2      1.00   -5.973046335    4.726205038    2.982932688
   4  H3      1.00   -7.940251230    2.077186956    3.118237078
   5  H4      1.00   -6.176569838    2.685300823    0.384937212
   6  O1      0.00   -7.660382791    0.177823228    9.189360199
   7  H5      0.00   -6.870288298    1.893127632    9.251154243
   8  H6      0.00   -7.962738971   -0.267018301   10.932821521

 Bond lengths in Bohr (Angstrom)

 1-2  2.021904040  1-3  2.022002335  1-4  2.021953343  1-5  2.022015060  6-7  1.889533542
     ( 1.069945541)     ( 1.069997556)     ( 1.069971630)     ( 1.070004290)     ( 0.999898090)

 6-8  1.824543951
     ( 0.965507079)

 Bond angles

  2-1-3  109.53398059   2-1-4  109.65604535   2-1-5  108.43490854   3-1-4  109.49436728

  3-1-5  109.86987750   4-1-5  109.83468330   7-6-8  105.03277623

 NUCLEAR CHARGE:                   10
 NUMBER OF PRIMITIVE AOS:         270
 NUMBER OF SYMMETRY AOS:          246
 NUMBER OF CONTRACTIONS:          214   ( 214A   )
 NUMBER OF CORE ORBITALS:           1   (   1A   )
 NUMBER OF VALENCE ORBITALS:        8   (   8A   )

 MOLECULE CHANGED: INITIALIZING OCCUPATION AND DUMP RECORDS


 NUCLEAR REPULSION ENERGY   13.68681606


 Eigenvalues of metric

         1 0.720E-04 0.186E-03 0.293E-03 0.332E-03 0.336E-03 0.425E-03 0.546E-03 0.565E-03


 Contracted 2-electron integrals neglected if value below      1.0D-19

 OPERATOR DM      FOR CENTER  0  COORDINATES:    0.000000    0.000000    0.000000


 **********************************************************************************************************************************
 DATASETS  * FILE   NREC   LENGTH (MB)   RECORD NAMES
              1      19     1782.97       500      610      700      900      950      970     1000      129      960     1100   
                                          VAR    BASINP    GEOM    SYMINP    ZMAT    AOBASIS   BASIS     P2S    ABASIS      S 
                                         1400     1410     1200     1210     1080     1600     1650     1300     1700   
                                           T        V       H0       H01     AOSYM     SMH    MOLCAS    ERIS     OPER   

              2       6        4.74       700     1000      520     2100     7360     7350   
                                         GEOM     BASIS   MCVARS     RHF    F12ABS    EF12   

 PROGRAMS   *        TOTAL       INT   CCSD(T)        HF       INT
 CPU TIMES  *       342.26      0.07    300.97     24.99     16.10
 REAL TIME  *       391.05 SEC
 DISK USED  *         4.99 GB      
 **********************************************************************************************************************************


 PROGRAM * RHF-SCF (CLOSED SHELL)       Authors: W. Meyer, H.-J. Werner


 NUMBER OF ELECTRONS:       5+    5-    SPACE SYMMETRY=1    SPIN SYMMETRY: Singlet 
 CONVERGENCE THRESHOLDS:    1.00E-04 (Density)    1.00E-09 (Energy)
 MAX. NUMBER OF ITERATIONS:       60
 INTERPOLATION TYPE:            DIIS
 INTERPOLATION STEPS:              2 (START)      1 (STEP)
 LEVEL SHIFTS:                  0.00 (CLOSED)  0.00 (OPEN) 



 Orbital guess generated from atomic densities. Full valence occupancy:    9

 Molecular orbital dump at record        2101.2

 Initial occupancy:   5

 ITERATION    DDIFF          GRAD             ENERGY        2-EL.EN.            DIPOLE MOMENTS         DIIS   ORB.
    1      0.000D+00      0.000D+00       -40.19565460     53.501358    0.00410   -0.00285   -0.00129    0    start
    2      0.000D+00      0.368D-02       -40.21289956     52.216647    0.00129   -0.00097   -0.00039    1    diag
    3      0.318D-02      0.143D-02       -40.21516841     52.670304    0.00182   -0.00133   -0.00056    2    diag
    4      0.855D-03      0.357D-03       -40.21548665     52.615357    0.00162   -0.00120   -0.00050    3    diag
    5      0.325D-03      0.463D-04       -40.21549212     52.617512    0.00159   -0.00118   -0.00049    4    diag
    6      0.562D-04      0.375D-05       -40.21549216     52.617656    0.00159   -0.00118   -0.00049    5    diag
    7      0.871D-05      0.302D-06       -40.21549216     52.617616    0.00159   -0.00118   -0.00049    6    diag
    8      0.998D-06      0.227D-07       -40.21549216     52.617618    0.00159   -0.00118   -0.00049    0    orth

 Final occupancy:   5

 !RHF STATE 1.1 Energy                -40.215492161909
 Nuclear energy                        13.68681606
 One-electron energy                  -80.21111704
 Two-electron energy                   26.30880882
 Virial quotient                       -0.99832362
 !RHF STATE 1.1 Dipole moment           0.00158623    -0.00117815    -0.00049132
 Dipole moment /Debye                   0.00403153    -0.00299437    -0.00124872

 Orbital energies:

         1.1          2.1          3.1          4.1          5.1          6.1          7.1
    -11.196271    -0.950712    -0.551938    -0.550002    -0.547826     0.051801     0.066010

 HOMO      5.1    -0.547826 =     -14.9071eV
 LUMO      6.1     0.051801 =       1.4096eV
 LUMO-HOMO         0.599627 =      16.3167eV


 **********************************************************************************************************************************
 DATASETS  * FILE   NREC   LENGTH (MB)   RECORD NAMES
              1      19     1782.97       500      610      700      900      950      970     1000      129      960     1100   
                                          VAR    BASINP    GEOM    SYMINP    ZMAT    AOBASIS   BASIS     P2S    ABASIS      S 
                                         1400     1410     1200     1210     1080     1600     1650     1300     1700   
                                           T        V       H0       H01     AOSYM     SMH    MOLCAS    ERIS     OPER   

              2       7        8.14       700     1000      520     2100     7360     7350     2101   
                                         GEOM     BASIS   MCVARS     RHF    F12ABS    EF12      RHF  

 PROGRAMS   *        TOTAL        HF       INT   CCSD(T)        HF       INT
 CPU TIMES  *       362.67     20.41      0.07    300.97     24.99     16.10
 REAL TIME  *       470.67 SEC
 DISK USED  *         4.99 GB      
 **********************************************************************************************************************************
 SETTING E_HF_A         =       -40.21549216  AU                              


 PROGRAM * CCSD (Closed-shell coupled cluster)     Authors: C. Hampel, H.-J. Werner, 1991, M. Deegan, P.J. Knowles, 1992

                                  CCSD-F12 implementation by  H.-J. Werner, 2007

                   Density fitting integral evaluation by F.R. Manby, 2003,2007, G. Knizia, 2010

 Basis set CC-PVTZ/JKFIT generated.      Number of basis functions:   338 
 Basis set CC-PVTZ-F12/OPTRI generated.  Number of basis functions:   396 
 Basis set AUG-CC-PVTZ/MP2FIT generated. Number of basis functions:   488 

 Convergence thresholds:  THRVAR = 1.00D-08  THRDEN = 1.00D-08

 CCSD(T)     terms to be evaluated (factor= 1.000)


 Number of core orbitals:           1 (   1 )
 Number of closed-shell orbitals:   4 (   4 )
 Number of external orbitals:     209 ( 209 )

 Molecular orbitals read from record     2101.2  Type=RHF/CANONICAL (state 1.1)

 MP2-F12 correlation treatment (H.-J. Werner, 2006)
 ==================================================

 Using MP2-F12 with ansatz 3C(FIX)

 Using projected zeroth-order Hamiltonian (+Z)

 FOCKRIB=T FOCKRIC=T FOCKRIP=T CABSP=T CABSA=T CABSK=T CABSF=T GBC=F EBC=F DMAT=T NOFIK=T NOPAO=1 SOLVE=-1  USEPAO=0
 EXCH_A= T EXCH_B= F EXCH_C= F EXCH_P= F
 
 Geminal basis:    OPTFULL  GEM_TYPE=SLATER  BETA=1.0  NGEM=6

 Optimizing Gaussian exponents for each gem_beta

 Geminal optimization for beta= 1.0000
 Weight function:   m=0, omega= 1.4646

 Augmented Hessian optimization of geminal fit. Trust ratio= 0.40000
 Convergence reached after   2 iterations. Final gradient= 8.26D-16, Step= 4.26D-06, Delta= 1.28D-09
 
 Alpha:                 0.19532     0.81920     2.85917     9.50073    35.69989   197.79328
 Coeff:                 0.27070     0.30552     0.18297     0.10986     0.06810     0.04224
 

 All pairs explicitly correlated. Number of r12-pairs:           10

 Excluding core orbitals from MO domains
 
 AO(A)-basis ORBITAL           loaded. Number of functions:     214
 RI(R)-basis CC-PVTZ-F12/OPTRI loaded. Number of functions:     396
 DF-basis CC-PVTZ/JKFIT        loaded. Number of functions:     338

 Screening thresholds:   THRAO=  1.00D-10  THRMO=  1.00D-09  THRPROD=  1.00D-09
                         THRSW=  1.00D-05  THROV=  1.00D-12  THRAOF12=   1.00D-08

 CPU time for Fock operators                      2.67 sec
 
 Construction of ABS:
 Smallest eigenvalue of S          4.12E-04  (threshold= 1.00E-08)
 Ratio eigmin/eigmax               5.30E-05  (threshold= 1.00E-09)
 Smallest eigenvalue of S kept     4.12E-04  (threshold= 4.12E-04, 0 functions deleted, 396 kept)
 
 Construction of CABS:
 Smallest eigenvalue of S          8.32E-07  (threshold= 1.00E-08)
 Ratio eigmin/eigmax               8.32E-07  (threshold= 1.00E-09)
 Smallest eigenvalue of S kept     8.32E-07  (threshold= 8.32E-07, 0 functions deleted, 396 kept)
 
 CPU time for CABS singles                        0.10 sec

 CABS-singles contribution of  -0.00063592 patched into reference energy.
 New reference energy         -40.21612808
 
 AO(A)-basis ORBITAL           loaded. Number of functions:     214
 RI(R)-basis CC-PVTZ-F12/OPTRI loaded. Number of functions:     396
 DF-basis AUG-CC-PVTZ/MP2FIT   loaded. Number of functions:     488

 Screening thresholds:   THRAO=  1.00D-10  THRMO=  1.00D-09  THRPROD=  1.00D-09
                         THRSW=  1.00D-05  THROV=  1.00D-12  THRAOF12=   1.00D-08

 CPU time for 3-index integral evaluation         5.73 sec
 CPU time for first  half transformation          0.46 sec ( 5597.6 MFLOP/sec)
 CPU time for second half transformation          0.02 sec ( 1462.0 MFLOP/sec)
 CPU time for fitting                             0.03 sec (39690.7 MFLOP/sec)
 CPU time for tilde quantities                    0.04 sec (39722.4 MFLOP/sec)
 CPU time for assembly                            0.22 sec (36254.9 MFLOP/sec)
 CPU time for tranop_f12                          0.25 sec (38326.5 MFLOP/sec)
 CPU time for f12 integrals (total)               7.22 sec, Elapsed time:      7.59 sec
 CPU time for f12 matrices (total)                0.08 sec, Elapsed time:      0.12 sec

 Diagonal F12 approximation with fixed coefficients:  TSING= 0.500,  TTRIP= 0.250 (scaled by -1/beta)

 DF-MP2-F12 energy corrections:
 ==============================
 Approx.                                    Singlet             Triplet             Total
 DF-MP2-F12/3*C(DX,FIX)                -0.016292615929     -0.001140585152     -0.017433201081
 DF-MP2-F12/3*C(FIX)                   -0.015932242869     -0.001150551989     -0.017082794857
 DF-MP2-F12/3C(FIX)                    -0.015862897246     -0.001157567876     -0.017020465122

 DF-MP2-F12 correlation energies:
 ================================
 Approx.                                    Singlet             Triplet             Ecorr            Total Energy
 DF-MP2                                -0.145609838878     -0.055804107774     -0.201413946651    -40.417542024193
 DF-MP2-F12/3*C(DX,FIX)                -0.161902454807     -0.056944692926     -0.218847147733    -40.434975225274
 DF-MP2-F12/3*C(FIX)                   -0.161542081746     -0.056954659762     -0.218496741509    -40.434624819050
 DF-MP2-F12/3C(FIX)                    -0.161472736124     -0.056961675650     -0.218434411773    -40.434562489315

 SCS-DF-MP2 energies (F_SING= 1.20000  F_TRIP= 0.62222  F_PARALLEL= 0.33333):
 ============================================================================
 SCS-DF-MP2                            -0.209454362601    -40.425582440143
 SCS-DF-MP2-F12/3*C(DX,FIX)            -0.229715199144    -40.445843276686
 SCS-DF-MP2-F12/3*C(FIX)               -0.229288953059    -40.445417030600
 SCS-DF-MP2-F12/3C(FIX)                -0.229210103753    -40.445338181294
 Symmetry transformation completed.

 Number of N-1 electron functions:               4
 Number of N-2 electron functions:              10
 Number of singly external CSFs:               836
 Number of doubly external CSFs:            349866
 Total number of CSFs:                      350703

 Length of J-op  integral file:              53.89 MB
 Length of K-op  integral file:              87.81 MB
 Length of 3-ext integral record:             0.00 MB

 Memory could be reduced to 60.96 Mwords without degradation in triples

 Integral transformation finished. Total CPU:   5.46 sec, npass=  1  Memory used:  26.32 MW

 Reference energy:                    -40.21612808

 Adding F12 terms to K(Cij), methodcc=6,  factor= 1.0

 ITER.      SQ.NORM     CORR.ENERGY   TOTAL ENERGY   ENERGY CHANGE        DEN1      VAR(S)    VAR(P)  DIIS     TIME  TIME/IT
   1      1.06960445    -0.21651615   -40.43264423    -0.01506740    -0.00954256  0.62D-03  0.94D-03  1  1    19.29     3.93
   2      1.07445958    -0.21733261   -40.43346069    -0.00081646    -0.00516300  0.14D-04  0.90D-04  2  2    23.11     4.01
   3      1.07598076    -0.21744397   -40.43357205    -0.00011136    -0.00108918  0.20D-05  0.57D-05  3  3    26.91     4.04
   4      1.07634999    -0.21745852   -40.43358659    -0.00001455    -0.00020072  0.12D-06  0.30D-06  4  4    30.72     5.08
   5      1.07640183    -0.21745814   -40.43358622     0.00000037    -0.00000933  0.77D-08  0.15D-07  5  5    34.60     4.94
   6      1.07640814    -0.21745688   -40.43358496     0.00000126    -0.00000296  0.31D-09  0.83D-09  6  6    38.52     4.93
   7      1.07640887    -0.21745682   -40.43358490     0.00000006    -0.00000040  0.19D-10  0.60D-10  6  1    42.48     7.24
   8      1.07640890    -0.21745684   -40.43358492    -0.00000002     0.00000004  0.24D-11  0.53D-11  6  4    46.44     9.39
   9      1.07640892    -0.21745686   -40.43358493    -0.00000001     0.00000003  0.22D-12  0.28D-12  6  2    50.40     8.83
  10      1.07640893    -0.21745685   -40.43358493     0.00000000    -0.00000001  0.24D-13  0.28D-13  6  3    54.35     8.38
  11      1.07640894    -0.21745685   -40.43358493     0.00000000    -0.00000000  0.20D-14  0.28D-14  6  5    58.32     8.63

 Norm of t1 vector:      0.03261052      S-energy:     0.00000000      T1 diagnostic:  0.00815263
                                                                       D1 diagnostic:  0.01307408

 Adding energy correction from Wij-K(Fij), methodcc=6  factor= 1.0
 
  CCSD correlation energy              -0.217456850133
  MP2-F12 correction (uncoupled)       -0.016723141333
  C*T doubles correction               -0.000289624708
  f12b correction                       0.003526426738


 Total CPU time for triples:     23.14 sec

  Ecorr(MP2)                           -0.201448752254
  Ecorr(MP2-F12)                       -0.218469217376
  Scale factor for triples energy       1.084490298061


 RESULTS
 =======

  Reference energy                    -40.215492161909
  F12 singles correction               -0.000635915633

 F12 singles corrections added to reference energy

  New reference energy                -40.216128077541

  F12a singlet correction              -0.015867605902
  F12a triplet correction              -0.001145160140
  F12a total correction                -0.017012766042

 F12a corrections for ansatz F12/3C(FIX) added to CCSD energy
 
  CCSD-F12a singlet pair energy        -0.179253553522
  CCSD-F12a triplet pair energy        -0.055216064512
  CCSD-F12a correlation energy         -0.234469616175

  Triples (T) contribution (scaled)    -0.006988231025
  Total correlation energy             -0.241457847200

  CCSD-F12a total energy              -40.450597693717
  CCSD[T]-F12a energy                 -40.457827393148
  CCSD-T-F12a energy                  -40.457512548169
 !CCSD(T)-F12a total energy           -40.457585924741

 F12b corrections for ansatz F12/3C(FIX) added to CCSD(T)-F12a energy

  CCSD-F12b singlet pair energy        -0.175882045596
  CCSD-F12b triplet pair energy        -0.055061145700
  CCSD-F12b correlation energy         -0.230943189437

  Triples (T) contribution (scaled)    -0.006988231025
  Total correlation energy             -0.237931420462

  CCSD-F12b total energy              -40.447071266979
  CCSD[T]-F12b energy                 -40.454300966410
  CCSD-T-F12b energy                  -40.453986121431
 !CCSD(T)-F12b total energy           -40.454059498003

 Timing summary (sec):

 STEP                 CPU(USER)    SYS     CPU(TOT)    WALL
 Transformation          5.49      0.64      6.13      6.91
 CCSD iterations        42.61      3.75     46.36     98.48
 Triples                23.14      0.38     23.52     23.53
 MP2-F12                10.23      0.42     10.65     16.73
 F12b energy             3.42      0.30      3.72      4.68

 Program statistics:

 Available memory in ccsd:              2999999786
 Min. memory needed in ccsd:               1609972
 Max. memory used in ccsd:                 1864434
 Max. memory used in cckext:               1252381 (12 integral passes)



 **********************************************************************************************************************************
 DATASETS  * FILE   NREC   LENGTH (MB)   RECORD NAMES
              1      20     1935.98       500      610      700      900      950      970     1000      129      960     1100   
                                          VAR    BASINP    GEOM    SYMINP    ZMAT    AOBASIS   BASIS     P2S    ABASIS      S 
                                         1400     1410     1200     1210     1080     1600     1650     1300     1700     1380   
                                           T        V       H0       H01     AOSYM     SMH    MOLCAS    ERIS     OPER     JKOP   

              2       7        8.14       700     1000      520     2100     7360     7350     2101   
                                         GEOM     BASIS   MCVARS     RHF    F12ABS    EF12      RHF  

 PROGRAMS   *        TOTAL   CCSD(T)        HF       INT   CCSD(T)        HF       INT
 CPU TIMES  *       447.60     84.93     20.41      0.07    300.97     24.99     16.10
 REAL TIME  *       621.24 SEC
 DISK USED  *         4.99 GB      
 **********************************************************************************************************************************
 SETTING E_F12_A(1)     =       -40.45758592  AU                              
 SETTING E_F12_A(2)     =       -40.45405950  AU                              

 Dummy atoms: C1  H1  H2  H3  H4


 Recomputing one-electron integrals since nuclear charges changed


 PROGRAM * SEWARD (Integral evaluation for generally contracted gaussian basis sets)     Author: Roland Lindh, 1990

 Geometry written to block  1 of record 700


 Point group  C1  



 ATOMIC COORDINATES

 NR  ATOM    CHARGE       X              Y              Z

   1  C1      0.00   -6.193010455    2.801518980    2.403542658
   2  H1      0.00   -4.656285171    1.699997622    3.119937832
   3  H2      0.00   -5.973046335    4.726205038    2.982932688
   4  H3      0.00   -7.940251230    2.077186956    3.118237078
   5  H4      0.00   -6.176569838    2.685300823    0.384937212
   6  O1      8.00   -7.660382791    0.177823228    9.189360199
   7  H5      1.00   -6.870288298    1.893127632    9.251154243
   8  H6      1.00   -7.962738971   -0.267018301   10.932821521

 Bond lengths in Bohr (Angstrom)

 1-2  2.021904040  1-3  2.022002335  1-4  2.021953343  1-5  2.022015060  6-7  1.889533542
     ( 1.069945541)     ( 1.069997556)     ( 1.069971630)     ( 1.070004290)     ( 0.999898090)

 6-8  1.824543951
     ( 0.965507079)

 Bond angles

  2-1-3  109.53398059   2-1-4  109.65604535   2-1-5  108.43490854   3-1-4  109.49436728

  3-1-5  109.86987750   4-1-5  109.83468330   7-6-8  105.03277623

 NUCLEAR CHARGE:                   10
 NUMBER OF PRIMITIVE AOS:         270
 NUMBER OF SYMMETRY AOS:          246
 NUMBER OF CONTRACTIONS:          214   ( 214A   )
 NUMBER OF CORE ORBITALS:           1   (   1A   )
 NUMBER OF VALENCE ORBITALS:        6   (   6A   )

 MOLECULE CHANGED: INITIALIZING OCCUPATION AND DUMP RECORDS


 NUCLEAR REPULSION ENERGY    8.95777847


 Eigenvalues of metric

         1 0.720E-04 0.186E-03 0.293E-03 0.332E-03 0.336E-03 0.425E-03 0.546E-03 0.565E-03


 Contracted 2-electron integrals neglected if value below      1.0D-19

 OPERATOR DM      FOR CENTER  0  COORDINATES:    0.000000    0.000000    0.000000


 **********************************************************************************************************************************
 DATASETS  * FILE   NREC   LENGTH (MB)   RECORD NAMES
              1      19     1782.97       500      610      700      900      950      970     1000      129      960     1100   
                                          VAR    BASINP    GEOM    SYMINP    ZMAT    AOBASIS   BASIS     P2S    ABASIS      S 
                                         1400     1410     1200     1210     1080     1600     1650     1300     1700   
                                           T        V       H0       H01     AOSYM     SMH    MOLCAS    ERIS     OPER   

              2       7        8.14       700     1000      520     2100     7360     7350     2101   
                                         GEOM     BASIS   MCVARS     RHF    F12ABS    EF12      RHF  

 PROGRAMS   *        TOTAL       INT   CCSD(T)        HF       INT   CCSD(T)        HF       INT
 CPU TIMES  *       447.68      0.07     84.93     20.41      0.07    300.97     24.99     16.10
 REAL TIME  *       626.39 SEC
 DISK USED  *         4.99 GB      
 **********************************************************************************************************************************


 PROGRAM * RHF-SCF (CLOSED SHELL)       Authors: W. Meyer, H.-J. Werner


 NUMBER OF ELECTRONS:       5+    5-    SPACE SYMMETRY=1    SPIN SYMMETRY: Singlet 
 CONVERGENCE THRESHOLDS:    1.00E-04 (Density)    1.00E-09 (Energy)
 MAX. NUMBER OF ITERATIONS:       60
 INTERPOLATION TYPE:            DIIS
 INTERPOLATION STEPS:              2 (START)      1 (STEP)
 LEVEL SHIFTS:                  0.00 (CLOSED)  0.00 (OPEN) 



 Orbital guess generated from atomic densities. Full valence occupancy:    7

 Molecular orbital dump at record        2102.2

 Initial occupancy:   5

 ITERATION    DDIFF          GRAD             ENERGY        2-EL.EN.            DIPOLE MOMENTS         DIIS   ORB.
    1      0.000D+00      0.000D+00       -76.02301884     77.348326    0.25473    0.66089    0.92011    0    start
    2      0.000D+00      0.672D-02       -76.04988173     73.678252    0.14446    0.37715    0.54141    1    diag
    3      0.462D-02      0.429D-02       -76.06159659     75.311326    0.17106    0.44608    0.63700    2    diag
    4      0.163D-02      0.403D-03       -76.06179600     75.218594    0.16915    0.44164    0.63415    3    diag
    5      0.229D-03      0.114D-03       -76.06181813     75.233358    0.16840    0.43988    0.63314    4    diag
    6      0.799D-04      0.231D-04       -76.06181961     75.232225    0.16817    0.43936    0.63290    5    diag
    7      0.226D-04      0.472D-05       -76.06181969     75.232380    0.16810    0.43921    0.63282    6    diag
    8      0.503D-05      0.889D-06       -76.06181969     75.232366    0.16809    0.43917    0.63279    7    diag
    9      0.944D-06      0.120D-06       -76.06181969     75.232356    0.16809    0.43917    0.63278    8    diag
   10      0.160D-06      0.279D-07       -76.06181969     75.232361    0.16809    0.43917    0.63278    0    orth

 Final occupancy:   5

 !RHF STATE 1.1 Energy                -76.061819689850
 Nuclear energy                         8.95777847
 One-electron energy                 -122.63577856
 Two-electron energy                   37.61618040
 Virial quotient                       -1.00213386
 !RHF STATE 1.1 Dipole moment           0.16808644     0.43917160     0.63278366
 Dipole moment /Debye                   0.42720513     1.11618974     1.60827029

 Orbital energies:

         1.1          2.1          3.1          4.1          5.1          6.1          7.1
    -20.568987    -1.340108    -0.705231    -0.579022    -0.508360     0.042879     0.060235

 HOMO      5.1    -0.508360 =     -13.8332eV
 LUMO      6.1     0.042879 =       1.1668eV
 LUMO-HOMO         0.551239 =      15.0000eV


 **********************************************************************************************************************************
 DATASETS  * FILE   NREC   LENGTH (MB)   RECORD NAMES
              1      19     1782.97       500      610      700      900      950      970     1000      129      960     1100   
                                          VAR    BASINP    GEOM    SYMINP    ZMAT    AOBASIS   BASIS     P2S    ABASIS      S 
                                         1400     1410     1200     1210     1080     1600     1650     1300     1700   
                                           T        V       H0       H01     AOSYM     SMH    MOLCAS    ERIS     OPER   

              2       8       12.47       700     1000      520     2100     7360     7350     2101     2102   
                                         GEOM     BASIS   MCVARS     RHF    F12ABS    EF12      RHF      RHF  

 PROGRAMS   *        TOTAL        HF       INT   CCSD(T)        HF       INT   CCSD(T)        HF       INT
 CPU TIMES  *       472.58     24.90      0.07     84.93     20.41      0.07    300.97     24.99     16.10
 REAL TIME  *       695.61 SEC
 DISK USED  *         4.99 GB      
 **********************************************************************************************************************************
 SETTING E_HF_B         =       -76.06181969  AU                              


 PROGRAM * CCSD (Closed-shell coupled cluster)     Authors: C. Hampel, H.-J. Werner, 1991, M. Deegan, P.J. Knowles, 1992

                                  CCSD-F12 implementation by  H.-J. Werner, 2007

                   Density fitting integral evaluation by F.R. Manby, 2003,2007, G. Knizia, 2010

 Basis set CC-PVTZ/JKFIT generated.      Number of basis functions:   338 
 Basis set CC-PVTZ-F12/OPTRI generated.  Number of basis functions:   396 
 Basis set AUG-CC-PVTZ/MP2FIT generated. Number of basis functions:   488 

 Convergence thresholds:  THRVAR = 1.00D-08  THRDEN = 1.00D-08

 CCSD(T)     terms to be evaluated (factor= 1.000)


 Number of core orbitals:           1 (   1 )
 Number of closed-shell orbitals:   4 (   4 )
 Number of external orbitals:     209 ( 209 )

 Molecular orbitals read from record     2102.2  Type=RHF/CANONICAL (state 1.1)

 MP2-F12 correlation treatment (H.-J. Werner, 2006)
 ==================================================

 Using MP2-F12 with ansatz 3C(FIX)

 Using projected zeroth-order Hamiltonian (+Z)

 FOCKRIB=T FOCKRIC=T FOCKRIP=T CABSP=T CABSA=T CABSK=T CABSF=T GBC=F EBC=F DMAT=T NOFIK=T NOPAO=1 SOLVE=-1  USEPAO=0
 EXCH_A= T EXCH_B= F EXCH_C= F EXCH_P= F
 
 Geminal basis:    OPTFULL  GEM_TYPE=SLATER  BETA=1.0  NGEM=6

 Optimizing Gaussian exponents for each gem_beta

 Geminal optimization for beta= 1.0000
 Weight function:   m=0, omega= 1.4646

 Augmented Hessian optimization of geminal fit. Trust ratio= 0.40000
 Convergence reached after   2 iterations. Final gradient= 8.26D-16, Step= 4.26D-06, Delta= 1.28D-09
 
 Alpha:                 0.19532     0.81920     2.85917     9.50073    35.69989   197.79328
 Coeff:                 0.27070     0.30552     0.18297     0.10986     0.06810     0.04224
 

 All pairs explicitly correlated. Number of r12-pairs:           10

 Excluding core orbitals from MO domains
 
 AO(A)-basis ORBITAL           loaded. Number of functions:     214
 RI(R)-basis CC-PVTZ-F12/OPTRI loaded. Number of functions:     396
 DF-basis CC-PVTZ/JKFIT        loaded. Number of functions:     338

 Screening thresholds:   THRAO=  1.00D-10  THRMO=  1.00D-09  THRPROD=  1.00D-09
                         THRSW=  1.00D-05  THROV=  1.00D-12  THRAOF12=   1.00D-08

 CPU time for Fock operators                      2.78 sec
 
 Construction of ABS:
 Smallest eigenvalue of S          4.12E-04  (threshold= 1.00E-08)
 Ratio eigmin/eigmax               5.30E-05  (threshold= 1.00E-09)
 Smallest eigenvalue of S kept     4.12E-04  (threshold= 4.12E-04, 0 functions deleted, 396 kept)
 
 Construction of CABS:
 Smallest eigenvalue of S          8.32E-07  (threshold= 1.00E-08)
 Ratio eigmin/eigmax               8.32E-07  (threshold= 1.00E-09)
 Smallest eigenvalue of S kept     8.32E-07  (threshold= 8.32E-07, 0 functions deleted, 396 kept)
 
 CPU time for CABS singles                        0.12 sec

 CABS-singles contribution of  -0.00096254 patched into reference energy.
 New reference energy         -76.06278223
 
 AO(A)-basis ORBITAL           loaded. Number of functions:     214
 RI(R)-basis CC-PVTZ-F12/OPTRI loaded. Number of functions:     396
 DF-basis AUG-CC-PVTZ/MP2FIT   loaded. Number of functions:     488

 Screening thresholds:   THRAO=  1.00D-10  THRMO=  1.00D-09  THRPROD=  1.00D-09
                         THRSW=  1.00D-05  THROV=  1.00D-12  THRAOF12=   1.00D-08

 CPU time for 3-index integral evaluation         6.23 sec
 CPU time for first  half transformation          0.76 sec ( 3388.0 MFLOP/sec)
 CPU time for second half transformation          0.01 sec ( 2924.1 MFLOP/sec)
 CPU time for sorting                             0.01 sec
 CPU time for fitting                             0.05 sec (23814.4 MFLOP/sec)
 CPU time for tilde quantities                    0.04 sec (39722.4 MFLOP/sec)
 CPU time for assembly                            0.25 sec (31904.3 MFLOP/sec)
 CPU time for tranop_f12                          0.28 sec (34220.1 MFLOP/sec)
 CPU time for f12 integrals (total)               8.17 sec, Elapsed time:      9.29 sec
 CPU time for f12 matrices (total)                0.08 sec, Elapsed time:      0.95 sec

 Diagonal F12 approximation with fixed coefficients:  TSING= 0.500,  TTRIP= 0.250 (scaled by -1/beta)

 DF-MP2-F12 energy corrections:
 ==============================
 Approx.                                    Singlet             Triplet             Total
 DF-MP2-F12/3*C(DX,FIX)                -0.025111194682     -0.002995268280     -0.028106462962
 DF-MP2-F12/3*C(FIX)                   -0.023346305780     -0.002710707463     -0.026057013243
 DF-MP2-F12/3C(FIX)                    -0.023272218039     -0.002807257137     -0.026079475176

 DF-MP2-F12 correlation energies:
 ================================
 Approx.                                    Singlet             Triplet             Ecorr            Total Energy
 DF-MP2                                -0.175150535286     -0.099863692416     -0.275014227701    -76.337796460408
 DF-MP2-F12/3*C(DX,FIX)                -0.200261729967     -0.102858960696     -0.303120690663    -76.365902923370
 DF-MP2-F12/3*C(FIX)                   -0.198496841065     -0.102574399879     -0.301071240945    -76.363853473651
 DF-MP2-F12/3C(FIX)                    -0.198422753325     -0.102670949552     -0.301093702877    -76.363875935584

 SCS-DF-MP2 energies (F_SING= 1.20000  F_TRIP= 0.62222  F_PARALLEL= 0.33333):
 ============================================================================
 SCS-DF-MP2                            -0.272318050957    -76.335100283664
 SCS-DF-MP2-F12/3*C(DX,FIX)            -0.304315207061    -76.367097439767
 SCS-DF-MP2-F12/3*C(FIX)               -0.302020280314    -76.364802513021
 SCS-DF-MP2-F12/3C(FIX)                -0.301991450378    -76.364773683085
 Symmetry transformation completed.

 Number of N-1 electron functions:               4
 Number of N-2 electron functions:              10
 Number of singly external CSFs:               836
 Number of doubly external CSFs:            349866
 Total number of CSFs:                      350703

 Length of J-op  integral file:              53.89 MB
 Length of K-op  integral file:              87.81 MB
 Length of 3-ext integral record:             0.00 MB

 Memory could be reduced to 60.96 Mwords without degradation in triples

 Integral transformation finished. Total CPU:   5.75 sec, npass=  1  Memory used:  26.32 MW

 Reference energy:                    -76.06278223

 Adding F12 terms to K(Cij), methodcc=6,  factor= 1.0

 ITER.      SQ.NORM     CORR.ENERGY   TOTAL ENERGY   ENERGY CHANGE        DEN1      VAR(S)    VAR(P)  DIIS     TIME  TIME/IT
   1      1.06296566    -0.27510344   -76.33788567    -0.00004700     0.00600352  0.78D-03  0.10D-02  1  1    20.82     3.97
   2      1.06641402    -0.27485582   -76.33763805     0.00024762    -0.00472634  0.14D-04  0.11D-03  2  2    24.76     4.15
   3      1.06765998    -0.27499399   -76.33777622    -0.00013817    -0.00083581  0.94D-05  0.74D-05  3  3    28.72     4.21
   4      1.06823356    -0.27501679   -76.33779902    -0.00002280    -0.00037087  0.46D-06  0.59D-06  4  4    32.64     4.23
   5      1.06833146    -0.27501521   -76.33779745     0.00000158    -0.00002161  0.14D-06  0.38D-07  5  5    36.59     4.25
   6      1.06835816    -0.27501385   -76.33779609     0.00000136    -0.00000447  0.12D-07  0.38D-08  6  6    40.56     4.27
   7      1.06836503    -0.27501346   -76.33779569     0.00000039    -0.00000155  0.11D-08  0.33D-09  6  1    44.51     4.28
   8      1.06836657    -0.27501352   -76.33779575    -0.00000006    -0.00000002  0.10D-09  0.43D-10  6  2    48.43     4.28
   9      1.06836693    -0.27501352   -76.33779575    -0.00000000     0.00000006  0.86D-11  0.78D-11  6  4    52.39     4.29
  10      1.06836705    -0.27501351   -76.33779575     0.00000000    -0.00000000  0.16D-11  0.56D-12  6  3    56.35     4.30

 Norm of t1 vector:      0.03661304      S-energy:     0.00000001      T1 diagnostic:  0.00915326
                                                                       D1 diagnostic:  0.01838845

 Adding energy correction from Wij-K(Fij), methodcc=6  factor= 1.0
 
  CCSD correlation energy              -0.275013514629
  MP2-F12 correction (uncoupled)       -0.024961345564
  C*T doubles correction               -0.000833987969
  f12b correction                       0.004283272769

 Total CPU time for triples:     23.06 sec

  Ecorr(MP2)                           -0.275056439859
  Ecorr(MP2-F12)                       -0.301135915035
  Scale factor for triples energy       1.094814995749


 RESULTS
 =======

  Reference energy                    -76.061819689850
  F12 singles correction               -0.000962542857

 F12 singles corrections added to reference energy

  New reference energy                -76.062782232707

  F12a singlet correction              -0.023094528908
  F12a triplet correction              -0.002700804624
  F12a total correction                -0.025795333533

 F12a corrections for ansatz F12/3C(FIX) added to CCSD energy
 
  CCSD-F12a singlet pair energy        -0.209937767827
  CCSD-F12a triplet pair energy        -0.090871087831
  CCSD-F12a correlation energy         -0.300808848161

  Triples (T) contribution (scaled)    -0.009819176921
  Total correlation energy             -0.310628025083

  CCSD-F12a total energy              -76.363591080868
  CCSD[T]-F12a energy                 -76.373752179997
  CCSD-T-F12a energy                  -76.373260353548
 !CCSD(T)-F12a total energy           -76.373410257789

 F12b corrections for ansatz F12/3C(FIX) added to CCSD(T)-F12a energy

  CCSD-F12b singlet pair energy        -0.205964693896
  CCSD-F12b triplet pair energy        -0.090560888993
  CCSD-F12b correlation energy         -0.296525575392

  Triples (T) contribution (scaled)    -0.009819176921
  Total correlation energy             -0.306344752313

  CCSD-F12b total energy              -76.359307808099
  CCSD[T]-F12b energy                 -76.369468907227
  CCSD-T-F12b energy                  -76.368977080778
 !CCSD(T)-F12b total energy           -76.369126985020

 Timing summary (sec):

 STEP                 CPU(USER)    SYS     CPU(TOT)    WALL
 Transformation          5.79      0.75      6.54      6.90
 CCSD iterations        39.26      3.75     43.01     43.07
 Triples                23.06      0.38     23.44     23.45
 MP2-F12                11.32      0.51     11.83     13.60
 F12b energy             3.40      0.30      3.70      3.73

 Program statistics:

 Available memory in ccsd:              2999999786
 Min. memory needed in ccsd:               1609972
 Max. memory used in ccsd:                 1864434
 Max. memory used in cckext:               1252381 (11 integral passes)



 **********************************************************************************************************************************
 DATASETS  * FILE   NREC   LENGTH (MB)   RECORD NAMES
              1      20     1935.98       500      610      700      900      950      970     1000      129      960     1100   
                                          VAR    BASINP    GEOM    SYMINP    ZMAT    AOBASIS   BASIS     P2S    ABASIS      S 
                                         1400     1410     1200     1210     1080     1600     1650     1300     1700     1380   
                                           T        V       H0       H01     AOSYM     SMH    MOLCAS    ERIS     OPER     JKOP   

              2       8       12.47       700     1000      520     2100     7360     7350     2101     2102   
                                         GEOM     BASIS   MCVARS     RHF    F12ABS    EF12      RHF      RHF  

 PROGRAMS   *        TOTAL   CCSD(T)        HF       INT   CCSD(T)        HF       INT   CCSD(T)        HF       INT
 CPU TIMES  *       555.45     82.86     24.90      0.07     84.93     20.41      0.07    300.97     24.99     16.10
 REAL TIME  *       786.67 SEC
 DISK USED  *         4.99 GB      
 **********************************************************************************************************************************
 SETTING E_F12_B(1)     =       -76.37341026  AU                              
 SETTING E_F12_B(2)     =       -76.36912699  AU                              
 SETTING E_INT_HF       =    -3.41601700D-05  AU                              
 SETTING E_INT_F12(1)   =        -0.00061293  AU                              
 SETTING E_INT_F12(2)   =        -0.00060789  AU                              
 E_INT_HF         =        -0.00003416 AU
 E_INT_F12(1:2)   = [      -0.00061293    -0.00060789] AU

 CCSD(T)-F12/cc-pVTZ-F12 energy=    -76.369126985020

     CCSD(T)-F12        HF-SCF       CCSD(T)-F12        HF-SCF       CCSD(T)-F12        HF-SCF  
    -76.36912699    -76.06181969    -40.45405950    -40.21549216   -116.82379437   -116.27734601
 **********************************************************************************************************************************
 Molpro calculation terminated
 Variable memory released
