
 Primary working directories    : /net/scratch/people/plgsirous
 Secondary working directories  : /net/scratch/people/plgsirous
 Wavefunction directory         : /net/people/plgsirous/wfu/
 Main file repository           : /net/scratch/people/plgsirous/

 SHA1      : 
 NAME      : 
 ARCHNAME  : linux/x86_64
 FC        : /net/software/local/intel/impi/2018.1.163/bin64/mpiifort
 BLASLIB   : -L/net/software/local/intel/compilers_and_libraries_2018.1.163/linux/mkl/lib/intel64 -lmkl_scalapack_ilp64 -lmkl_intel_ilp64 -lmkl_intel_thread -lmkl_core -lmkl_blacs_intelmpi_ilp64 -liomp5 -lpthread -lm -ldl
 id        : pl

 Nodes     nprocs
 p1408        1

 Using customized tuning parameters: mindgm=7; mindgv=20; mindgc=1; mindgr=1; noblas=0; minvec=7
 default implementation of scratch files=df  

 memory,3000,m
 zsymel=nosym
 angstrom
 geometry={
 C1        -3.2772    1.4825     1.2719
 H1        -2.4640    0.8996     1.6510
 H2        -3.1608    2.5010     1.5785
 H3        -4.2018    1.0992     1.6501
 H4        -3.2685    1.4210     0.2037
 O1        -4.3696    4.5552     -0.9378
 H5        -4.6353    5.3326     -1.4455
 H6        -5.2136    4.1026     -0.6957
 }
 basis=vtz-f12
 gthresh,orbital=1d-8,energy=1d-8,twoint=1.d-19
 
 
 nkerna=1
 nkernb=1
 nkernab=$nkerna+$nkernb
 
                                                                                 ! AB Dimer
 {hf,accu=1.d-8}
 E_HF_AB=energy
 core,$nkernab
 {ccsd(t)-f12,scale_trip=1,THRF12=1.d-12}
 E_F12_AB=energy
 
                                                                                 ! Monomer A Part
 
 dummy,6,7,8;
 {hf,accu=1.d-8}
 E_HF_A=energy
 core,$nkerna
 {ccsd(t)-f12,scale_trip=1,THRF12=1.d-12}
 E_F12_A=energy
 
                                                                                 ! Monomer B Part
 
 dummy,1,2,3,4,5;
 {hf,accu=1.d-8}
 E_HF_B=energy
 core,$nkernb
 {ccsd(t)-f12,scale_trip=1,THRF12=1.d-12}
 E_F12_B=energy
 
 E_int_HF = E_HF_AB-(E_HF_A+E_HF_B)
 E_int_F12 = E_F12_AB-(E_F12_A+E_F12_B)
 
 
 show,E_int_HF,E_int_F12

 Variables initialized (889), CPU time= 0.01 sec
 Commands  initialized (702), CPU time= 0.00 sec, 572 directives.
 Default parameters read. Elapsed time= 0.11 sec

 Checking input...
 Passed
1


                                         ***  PROGRAM SYSTEM MOLPRO  ***
                                       Copyright, TTI GmbH Stuttgart, 2015
                                    Version 2015.1 linked Jul  2 2018 15:03:07


 **********************************************************************************************************************************
 LABEL *                                                                                 
  64 bit serial version                                                                  DATE: 17-Jan-19          TIME: 14:52:54  
 **********************************************************************************************************************************

 SHA1:             
 **********************************************************************************************************************************
 SETTING ZSYMEL         =    NOSYM
 ZSYMEL=NOSYM
 ZUNIT=ANG
 

Geometry recognized as XYZ


 Variable memory set to 3000000000 words,  buffer space   230000 words

 SETTING BASIS          =    VTZ-F12

 THRESHOLDS:

 ZERO    =  1.00D-12  ONEINT  =  1.00D-12  TWOINT  =  1.00D-19  PREFAC  =  1.00D-14  LOCALI  =  1.00D-09  EORDER  =  1.00D-04
 ENERGY  =  1.00D-08  ETEST   =  0.00D+00  EDENS   =  0.00D+00  THRDEDEF=  1.00D-06  GRADIENT=  1.00D-02  STEP    =  1.00D-03
 ORBITAL =  1.00D-08  CIVEC   =  1.00D-05  COEFF   =  1.00D-04  PRINTCI =  5.00D-02  PUNCHCI =  9.90D+01  OPTGRAD =  3.00D-04
 OPTENERG=  1.00D-06  OPTSTEP =  3.00D-04  THRGRAD =  1.00D-10  COMPRESS=  1.00D-11  VARMIN  =  1.00D-07  VARMAX  =  1.00D-03
 THRDOUB =  0.00D+00  THRDIV  =  1.00D-05  THRRED  =  1.00D-07  THRPSP  =  1.00D+00  THRDC   =  1.00D-10  THRCS   =  1.00D-10
 THRNRM  =  1.00D-08  THREQ   =  0.00D+00  THRDE   =  1.00D+00  THRREF  =  1.00D-05  SPARFAC =  1.00D+00  THRDLP  =  1.00D-07
 THRDIA  =  1.00D-10  THRDLS  =  1.00D-07  THRGPS  =  0.00D+00  THRKEX  =  0.00D+00  THRDIS  =  2.00D-01  THRVAR  =  1.00D-10
 THRLOC  =  1.00D-06  THRGAP  =  1.00D-06  THRLOCT = -1.00D+00  THRGAPT = -1.00D+00  THRORB  =  1.00D-06  THRMLTP =  0.00D+00
 THRCPQCI=  1.00D-10  KEXTA   =  0.00D+00  THRCOARS=  0.00D+00  SYMTOL  =  1.00D-06  GRADTOL =  1.00D-06  THROVL  =  1.00D-08
 THRORTH =  1.00D-08  GRID    =  1.00D-06  GRIDMAX =  1.00D-03  DTMAX   =  0.00D+00  THROCCDE=  1.00D-01  THROCCDE=  1.00D-01


 SETTING NKERNA         =         1.00000000                                  
 SETTING NKERNB         =         1.00000000                                  
 SETTING NKERNAB        =         2.00000000                                  


 Recomputing integrals since basis changed


 Using spherical harmonics

 Library entry C      S cc-pVTZ-F12          selected for orbital group  1
 Library entry C      P cc-pVTZ-F12          selected for orbital group  1
 Library entry C      D cc-pVTZ-F12          selected for orbital group  1
 Library entry C      F cc-pVTZ-F12          selected for orbital group  1
 Library entry H      S cc-pVTZ-F12          selected for orbital group  2
 Library entry H      P cc-pVTZ-F12          selected for orbital group  2
 Library entry H      D cc-pVTZ-F12          selected for orbital group  2
 Library entry O      S cc-pVTZ-F12          selected for orbital group  3
 Library entry O      P cc-pVTZ-F12          selected for orbital group  3
 Library entry O      D cc-pVTZ-F12          selected for orbital group  3
 Library entry O      F cc-pVTZ-F12          selected for orbital group  3


 PROGRAM * SEWARD (Integral evaluation for generally contracted gaussian basis sets)     Author: Roland Lindh, 1990

 Geometry written to block  1 of record 700


 Point group  C1  



 ATOMIC COORDINATES

 NR  ATOM    CHARGE       X              Y              Z

   1  C1      6.00   -6.193010455    2.801518980    2.403542658
   2  H1      1.00   -4.656285171    1.699997622    3.119937832
   3  H2      1.00   -5.973046335    4.726205038    2.982932688
   4  H3      1.00   -7.940251230    2.077186956    3.118237078
   5  H4      1.00   -6.176569838    2.685300823    0.384937212
   6  O1      8.00   -8.257347274    8.608080443   -1.772185160
   7  H5      1.00   -8.759447505   10.077153532   -2.731599113
   8  H6      1.00   -9.852276123    7.752790399   -1.314682465

 Bond lengths in Bohr (Angstrom)

 1-2  2.021904040  1-3  2.022002335  1-4  2.021953343  1-5  2.022015060  6-7  1.825035758
     ( 1.069945541)     ( 1.069997556)     ( 1.069971630)     ( 1.070004290)     ( 0.965767332)

 6-8  1.866715781
     ( 0.987823451)

 Bond angles

  2-1-3  109.53398059   2-1-4  109.65604535   2-1-5  108.43490854   3-1-4  109.49436728

  3-1-5  109.86987750   4-1-5  109.83468330   7-6-8  105.22390814

 NUCLEAR CHARGE:                   20
 NUMBER OF PRIMITIVE AOS:         270
 NUMBER OF SYMMETRY AOS:          246
 NUMBER OF CONTRACTIONS:          214   ( 214A   )
 NUMBER OF CORE ORBITALS:           2   (   2A   )
 NUMBER OF VALENCE ORBITALS:       14   (  14A   )


 NUCLEAR REPULSION ENERGY   35.88393783


 Eigenvalues of metric

         1 0.730E-04 0.183E-03 0.307E-03 0.333E-03 0.335E-03 0.406E-03 0.545E-03 0.565E-03


 Contracted 2-electron integrals neglected if value below      1.0D-19
 AO integral compression algorithm  1   Integral accuracy      1.0D-19

     2039.218 MB (compressed) written to integral file ( 83.7%)


 NUMBER OF SORTED TWO-ELECTRON INTEGRALS:  264626515.     BUFFER LENGTH:  32768
 NUMBER OF SEGMENTS:  17  SEGMENT LENGTH:   15999762      RECORD LENGTH: 524288

 Memory used in sort:      16.56 MW

 SORT1 READ   304635709. AND WROTE   244009539. INTEGRALS IN    706 RECORDS. CPU TIME:     3.22 SEC, REAL TIME:     7.34 SEC
 SORT2 READ   244009539. AND WROTE   264626515. INTEGRALS IN   7779 RECORDS. CPU TIME:     3.05 SEC, REAL TIME:    16.28 SEC

 FILE SIZES:   FILE 1:  2060.9 MBYTE,  FILE 4:  2961.2 MBYTE,   TOTAL:   5022.1 MBYTE

 OPERATOR DM      FOR CENTER  0  COORDINATES:    0.000000    0.000000    0.000000


 **********************************************************************************************************************************
 DATASETS  * FILE   NREC   LENGTH (MB)   RECORD NAMES
              1      19     1808.43       500      610      700      900      950      970     1000      129      960     1100   
                                          VAR    BASINP    GEOM    SYMINP    ZMAT    AOBASIS   BASIS     P2S    ABASIS      S 
                                         1400     1410     1200     1210     1080     1600     1650     1300     1700   
                                           T        V       H0       H01     AOSYM     SMH    MOLCAS    ERIS     OPER   

 PROGRAMS   *        TOTAL       INT
 CPU TIMES  *        15.87     15.74
 REAL TIME  *        40.99 SEC
 DISK USED  *         5.02 GB      
 **********************************************************************************************************************************


 PROGRAM * RHF-SCF (CLOSED SHELL)       Authors: W. Meyer, H.-J. Werner


 NUMBER OF ELECTRONS:      10+   10-    SPACE SYMMETRY=1    SPIN SYMMETRY: Singlet 
 CONVERGENCE THRESHOLDS:    1.00E-04 (Density)    1.00E-09 (Energy)
 MAX. NUMBER OF ITERATIONS:       60
 INTERPOLATION TYPE:            DIIS
 INTERPOLATION STEPS:              2 (START)      1 (STEP)
 LEVEL SHIFTS:                  0.00 (CLOSED)  0.00 (OPEN) 



 Orbital guess generated from atomic densities. Full valence occupancy:   16

 Molecular orbital dump at record        2100.2

 Initial occupancy:  10

 ITERATION    DDIFF          GRAD             ENERGY        2-EL.EN.            DIPOLE MOMENTS         DIIS   ORB.
    1      0.000D+00      0.000D+00      -116.22009893    157.519582   -1.07481    0.30766   -0.25621    0    start
    2      0.000D+00      0.548D-02      -116.26417074    152.476654   -0.60718    0.22150   -0.17558    1    diag
    3      0.563D-02      0.322D-02      -116.27775458    154.559162   -0.72560    0.24600   -0.19711    2    diag
    4      0.182D-02      0.475D-03      -116.27840650    154.444614   -0.71517    0.24396   -0.19510    3    diag
    5      0.415D-03      0.139D-03      -116.27847446    154.439639   -0.71453    0.24467   -0.19541    4    diag
    6      0.154D-03      0.337D-04      -116.27847823    154.445154   -0.71364    0.24465   -0.19534    5    diag
    7      0.399D-04      0.676D-05      -116.27847846    154.443493   -0.71360    0.24468   -0.19535    6    diag
    8      0.105D-04      0.170D-05      -116.27847848    154.443661   -0.71352    0.24468   -0.19535    7    diag
    9      0.290D-05      0.403D-06      -116.27847848    154.443634   -0.71349    0.24468   -0.19534    8    diag
   10      0.601D-06      0.475D-07      -116.27847848    154.443635   -0.71349    0.24468   -0.19534    0    orth

 Final occupancy:  10

 !RHF STATE 1.1 Energy               -116.278478477577
 Nuclear energy                        35.88393783
 One-electron energy                 -229.38423405
 Two-electron energy                   77.22181774
 Virial quotient                       -1.00064011
 !RHF STATE 1.1 Dipole moment          -0.71349112     0.24467843    -0.19534242
 Dipole moment /Debye                  -1.81339477     0.62186980    -0.49647838

 Orbital energies:

         1.1          2.1          3.1          4.1          5.1          6.1          7.1          8.1          9.1         10.1
    -20.567941   -11.189242    -1.342760    -0.943852    -0.708729    -0.580145    -0.545413    -0.542856    -0.540592    -0.508771

        11.1         12.1
      0.058194     0.069295

 HOMO     10.1    -0.508771 =     -13.8444eV
 LUMO     11.1     0.058194 =       1.5835eV
 LUMO-HOMO         0.566965 =      15.4279eV


 **********************************************************************************************************************************
 DATASETS  * FILE   NREC   LENGTH (MB)   RECORD NAMES
              1      19     1808.43       500      610      700      900      950      970     1000      129      960     1100   
                                          VAR    BASINP    GEOM    SYMINP    ZMAT    AOBASIS   BASIS     P2S    ABASIS      S 
                                         1400     1410     1200     1210     1080     1600     1650     1300     1700   
                                           T        V       H0       H01     AOSYM     SMH    MOLCAS    ERIS     OPER   

              2       4        3.81       700     1000      520     2100   
                                         GEOM     BASIS   MCVARS     RHF  

 PROGRAMS   *        TOTAL        HF       INT
 CPU TIMES  *        40.59     24.72     15.74
 REAL TIME  *        69.93 SEC
 DISK USED  *         5.02 GB      
 **********************************************************************************************************************************
 SETTING E_HF_AB        =      -116.27847848  AU                              


 PROGRAM * CCSD (Closed-shell coupled cluster)     Authors: C. Hampel, H.-J. Werner, 1991, M. Deegan, P.J. Knowles, 1992

                                  CCSD-F12 implementation by  H.-J. Werner, 2007

                   Density fitting integral evaluation by F.R. Manby, 2003,2007, G. Knizia, 2010

 Basis set CC-PVTZ/JKFIT generated.      Number of basis functions:   338 
 Basis set CC-PVTZ-F12/OPTRI generated.  Number of basis functions:   396 
 Basis set AUG-CC-PVTZ/MP2FIT generated. Number of basis functions:   488 

 Convergence thresholds:  THRVAR = 1.00D-08  THRDEN = 1.00D-08

 CCSD(T)     terms to be evaluated (factor= 1.000)


 Number of core orbitals:           2 (   2 )
 Number of closed-shell orbitals:   8 (   8 )
 Number of external orbitals:     204 ( 204 )

 Molecular orbitals read from record     2100.2  Type=RHF/CANONICAL (state 1.1)

 MP2-F12 correlation treatment (H.-J. Werner, 2006)
 ==================================================

 Using MP2-F12 with ansatz 3C(FIX)

 Using projected zeroth-order Hamiltonian (+Z)

 FOCKRIB=T FOCKRIC=T FOCKRIP=T CABSP=T CABSA=T CABSK=T CABSF=T GBC=F EBC=F DMAT=T NOFIK=T NOPAO=1 SOLVE=-1  USEPAO=0
 EXCH_A= T EXCH_B= F EXCH_C= F EXCH_P= F
 
 Geminal basis:    OPTFULL  GEM_TYPE=SLATER  BETA=1.0  NGEM=6

 Optimizing Gaussian exponents for each gem_beta

 Geminal optimization for beta= 1.0000
 Weight function:   m=0, omega= 1.4646

 Augmented Hessian optimization of geminal fit. Trust ratio= 0.40000
 Convergence reached after   2 iterations. Final gradient= 8.26D-16, Step= 4.26D-06, Delta= 1.28D-09
 
 Alpha:                 0.19532     0.81920     2.85917     9.50073    35.69989   197.79328
 Coeff:                 0.27070     0.30552     0.18297     0.10986     0.06810     0.04224
 

 All pairs explicitly correlated. Number of r12-pairs:           36

 Excluding core orbitals from MO domains
 
 AO(A)-basis ORBITAL           loaded. Number of functions:     214
 RI(R)-basis CC-PVTZ-F12/OPTRI loaded. Number of functions:     396
 DF-basis CC-PVTZ/JKFIT        loaded. Number of functions:     338

 Screening thresholds:   THRAO=  1.00D-10  THRMO=  1.00D-09  THRPROD=  1.00D-09
                         THRSW=  1.00D-05  THROV=  1.00D-12  THRAOF12=   1.00D-08

 CPU time for Fock operators                      2.96 sec
 
 Construction of ABS:
 Smallest eigenvalue of S          4.09E-04  (threshold= 1.00E-08)
 Ratio eigmin/eigmax               5.26E-05  (threshold= 1.00E-09)
 Smallest eigenvalue of S kept     4.09E-04  (threshold= 4.09E-04, 0 functions deleted, 396 kept)
 
 Construction of CABS:
 Smallest eigenvalue of S          8.42E-07  (threshold= 1.00E-08)
 Ratio eigmin/eigmax               8.42E-07  (threshold= 1.00E-09)
 Smallest eigenvalue of S kept     8.42E-07  (threshold= 8.42E-07, 0 functions deleted, 396 kept)
 
 CPU time for CABS singles                        0.11 sec

 CABS-singles contribution of  -0.00160895 patched into reference energy.
 New reference energy        -116.28008743
 
 AO(A)-basis ORBITAL           loaded. Number of functions:     214
 RI(R)-basis CC-PVTZ-F12/OPTRI loaded. Number of functions:     396
 DF-basis AUG-CC-PVTZ/MP2FIT   loaded. Number of functions:     488

 Screening thresholds:   THRAO=  1.00D-10  THRMO=  1.00D-09  THRPROD=  1.00D-09
                         THRSW=  1.00D-05  THROV=  1.00D-12  THRAOF12=   1.00D-08

 CPU time for 3-index integral evaluation         5.85 sec
 CPU time for first  half transformation          0.44 sec (11704.0 MFLOP/sec)
 CPU time for second half transformation          0.03 sec ( 3898.8 MFLOP/sec)
 CPU time for sorting                             0.03 sec
 CPU time for fitting                             0.07 sec (34837.1 MFLOP/sec)
 CPU time for tilde quantities                    0.08 sec (40198.7 MFLOP/sec)
 CPU time for assembly                            0.82 sec (36510.4 MFLOP/sec)
 CPU time for tranop_f12                          1.07 sec (36197.9 MFLOP/sec)
 CPU time for f12 integrals (total)               9.78 sec, Elapsed time:     32.84 sec
 CPU time for f12 matrices (total)                0.33 sec, Elapsed time:      0.40 sec

 Diagonal F12 approximation with fixed coefficients:  TSING= 0.500,  TTRIP= 0.250 (scaled by -1/beta)

 DF-MP2-F12 energy corrections:
 ==============================
 Approx.                                    Singlet             Triplet             Total
 DF-MP2-F12/3*C(DX,FIX)                -0.041452521842     -0.004152026597     -0.045604548439
 DF-MP2-F12/3*C(FIX)                   -0.039319783510     -0.003880482195     -0.043200265706
 DF-MP2-F12/3C(FIX)                    -0.039177084415     -0.003986547835     -0.043163632251

 DF-MP2-F12 correlation energies:
 ================================
 Approx.                                    Singlet             Triplet             Ecorr            Total Energy
 DF-MP2                                -0.320548179320     -0.155875919014     -0.476424098333   -116.756511530241
 DF-MP2-F12/3*C(DX,FIX)                -0.362000701162     -0.160027945611     -0.522028646773   -116.802116078681
 DF-MP2-F12/3*C(FIX)                   -0.359867962830     -0.159756401209     -0.519624364039   -116.799711795947
 DF-MP2-F12/3C(FIX)                    -0.359725263735     -0.159862466849     -0.519587730584   -116.799675162492

 SCS-DF-MP2 energies (F_SING= 1.20000  F_TRIP= 0.62222  F_PARALLEL= 0.33333):
 ============================================================================
 SCS-DF-MP2                            -0.481647275903   -116.761734707811
 SCS-DF-MP2-F12/3*C(DX,FIX)            -0.533973785330   -116.814061217238
 SCS-DF-MP2-F12/3*C(FIX)               -0.531245538371   -116.811332970279
 SCS-DF-MP2-F12/3C(FIX)                -0.531140295855   -116.811227727763
 Symmetry transformation completed.

 Number of N-1 electron functions:               8
 Number of N-2 electron functions:              36
 Number of singly external CSFs:              1632
 Number of doubly external CSFs:           1332528
 Total number of CSFs:                     1334161

 Length of J-op  integral file:             205.73 MB
 Length of K-op  integral file:             258.78 MB
 Length of 3-ext integral record:             0.00 MB

 Memory could be reduced to 93.27 Mwords without degradation in triples

 Integral transformation finished. Total CPU:   9.61 sec, npass=  1  Memory used:  48.07 MW

 Reference energy:                   -116.28008743

 Adding F12 terms to K(Cij), methodcc=6,  factor= 1.0

 ITER.      SQ.NORM     CORR.ENERGY   TOTAL ENERGY   ENERGY CHANGE        DEN1      VAR(S)    VAR(P)  DIIS     TIME  TIME/IT
   1      1.13235051    -0.49162745  -116.77171488    -0.01512653    -0.00362447  0.14D-02  0.19D-02  1  1    31.95     9.20
   2      1.14029667    -0.49218729  -116.77227472    -0.00055984    -0.00956176  0.29D-04  0.23D-03  2  2    40.99     9.39
   3      1.14329709    -0.49244079  -116.77252822    -0.00025350    -0.00213999  0.12D-04  0.13D-04  3  3    49.98     9.45
   4      1.14426568    -0.49247332  -116.77256075    -0.00003253    -0.00060379  0.60D-06  0.10D-05  4  4    59.08     9.49
   5      1.14442178    -0.49247252  -116.77255995     0.00000080    -0.00002945  0.16D-06  0.62D-07  5  5    68.17     9.52
   6      1.14445524    -0.49247036  -116.77255779     0.00000216    -0.00000656  0.14D-07  0.66D-08  6  6    77.19     9.53
   7      1.14446289    -0.49246969  -116.77255712     0.00000066    -0.00000225  0.20D-08  0.56D-09  6  2    86.30     9.56
   8      1.14446563    -0.49246957  -116.77255700     0.00000012    -0.00000055  0.17D-09  0.56D-10  6  1    95.32    11.21
   9      1.14446621    -0.49246957  -116.77255701    -0.00000001    -0.00000001  0.13D-10  0.10D-10  6  3   104.40    11.04
  10      1.14446629    -0.49246958  -116.77255702    -0.00000001     0.00000009  0.18D-11  0.12D-11  6  4   113.45    10.90
  11      1.14446627    -0.49246959  -116.77255702    -0.00000000     0.00000006  0.26D-12  0.14D-12  6  5   122.49    10.78
  12      1.14446624    -0.49246959  -116.77255702     0.00000000     0.00000001  0.52D-13  0.16D-13  6  6   131.58    10.68

 Norm of t1 vector:      0.04898904      S-energy:     0.00000000      T1 diagnostic:  0.00866012
                                                                       D1 diagnostic:  0.01837478

 Adding energy correction from Wij-K(Fij), methodcc=6  factor= 1.0
 
  CCSD correlation energy              -0.492469588025
  MP2-F12 correction (uncoupled)       -0.041743358774
  C*T doubles correction               -0.001127644818
  f12b correction                       0.007812216990


 Total CPU time for triples:    163.25 sec

  Ecorr(MP2)                           -0.476500920314
  Ecorr(MP2-F12)                       -0.519664552565
  Scale factor for triples energy       1.090584572685


 RESULTS
 =======

  Reference energy                   -116.278478477576
  F12 singles correction               -0.001608954332

 F12 singles corrections added to reference energy

  New reference energy               -116.280087431908

  F12a singlet correction              -0.039004653263
  F12a triplet correction              -0.003866350329
  F12a total correction                -0.042871003592

 F12a corrections for ansatz F12/3C(FIX) added to CCSD energy
 
  CCSD-F12a singlet pair energy        -0.388897588177
  CCSD-F12a triplet pair energy        -0.146443007396
  CCSD-F12a correlation energy         -0.535340591617

  Triples (T) contribution (scaled)    -0.016823408918
  Total correlation energy             -0.552164000535

  CCSD-F12a total energy             -116.815428023525
  CCSD[T]-F12a energy                -116.832831219716
  CCSD-T-F12a energy                 -116.832030079928
 !CCSD(T)-F12a total energy          -116.832251432443

 F12b corrections for ansatz F12/3C(FIX) added to CCSD(T)-F12a energy

  CCSD-F12b singlet pair energy        -0.381551807067
  CCSD-F12b triplet pair energy        -0.145976571516
  CCSD-F12b correlation energy         -0.527528374627

  Triples (T) contribution (scaled)    -0.016823408918
  Total correlation energy             -0.544351783545

  CCSD-F12b total energy             -116.807615806535
  CCSD[T]-F12b energy                -116.825019002725
  CCSD-T-F12b energy                 -116.824217862938
 !CCSD(T)-F12b total energy          -116.824439215453

 Timing summary (sec):

 STEP                 CPU(USER)    SYS     CPU(TOT)    WALL
 Transformation          9.73      1.18     10.91     11.31
 CCSD iterations       108.47      6.54    115.01    128.37
 Triples               163.25      2.70    165.95    166.01
 MP2-F12                13.39      1.30     14.69     36.81
 F12b energy             7.13      0.34      7.47      7.46

 Program statistics:

 Available memory in ccsd:              2999999464
 Min. memory needed in ccsd:               3963025
 Max. memory used in ccsd:                 5096465
 Max. memory used in cckext:               3666031 (13 integral passes)



 **********************************************************************************************************************************
 DATASETS  * FILE   NREC   LENGTH (MB)   RECORD NAMES
              1      20     2101.98       500      610      700      900      950      970     1000      129      960     1100   
                                          VAR    BASINP    GEOM    SYMINP    ZMAT    AOBASIS   BASIS     P2S    ABASIS      S 
                                         1400     1410     1200     1210     1080     1600     1650     1300     1700     1380   
                                           T        V       H0       H01     AOSYM     SMH    MOLCAS    ERIS     OPER     JKOP   

              2       6        4.74       700     1000      520     2100     7360     7350   
                                         GEOM     BASIS   MCVARS     RHF    F12ABS    EF12   

 PROGRAMS   *        TOTAL   CCSD(T)        HF       INT
 CPU TIMES  *       342.60    302.00     24.72     15.74
 REAL TIME  *       420.10 SEC
 DISK USED  *         5.02 GB      
 **********************************************************************************************************************************
 SETTING E_F12_AB(1)    =      -116.83225143  AU                              
 SETTING E_F12_AB(2)    =      -116.82443922  AU                              

 Dummy atoms: O1  H5  H6


 Recomputing one-electron integrals since nuclear charges changed


 PROGRAM * SEWARD (Integral evaluation for generally contracted gaussian basis sets)     Author: Roland Lindh, 1990

 Geometry written to block  1 of record 700


 Point group  C1  



 ATOMIC COORDINATES

 NR  ATOM    CHARGE       X              Y              Z

   1  C1      6.00   -6.193010455    2.801518980    2.403542658
   2  H1      1.00   -4.656285171    1.699997622    3.119937832
   3  H2      1.00   -5.973046335    4.726205038    2.982932688
   4  H3      1.00   -7.940251230    2.077186956    3.118237078
   5  H4      1.00   -6.176569838    2.685300823    0.384937212
   6  O1      0.00   -8.257347274    8.608080443   -1.772185160
   7  H5      0.00   -8.759447505   10.077153532   -2.731599113
   8  H6      0.00   -9.852276123    7.752790399   -1.314682465

 Bond lengths in Bohr (Angstrom)

 1-2  2.021904040  1-3  2.022002335  1-4  2.021953343  1-5  2.022015060  6-7  1.825035758
     ( 1.069945541)     ( 1.069997556)     ( 1.069971630)     ( 1.070004290)     ( 0.965767332)

 6-8  1.866715781
     ( 0.987823451)

 Bond angles

  2-1-3  109.53398059   2-1-4  109.65604535   2-1-5  108.43490854   3-1-4  109.49436728

  3-1-5  109.86987750   4-1-5  109.83468330   7-6-8  105.22390814

 NUCLEAR CHARGE:                   10
 NUMBER OF PRIMITIVE AOS:         270
 NUMBER OF SYMMETRY AOS:          246
 NUMBER OF CONTRACTIONS:          214   ( 214A   )
 NUMBER OF CORE ORBITALS:           1   (   1A   )
 NUMBER OF VALENCE ORBITALS:        8   (   8A   )

 MOLECULE CHANGED: INITIALIZING OCCUPATION AND DUMP RECORDS


 NUCLEAR REPULSION ENERGY   13.68681606


 Eigenvalues of metric

         1 0.730E-04 0.183E-03 0.307E-03 0.333E-03 0.335E-03 0.406E-03 0.545E-03 0.565E-03


 Contracted 2-electron integrals neglected if value below      1.0D-19

 OPERATOR DM      FOR CENTER  0  COORDINATES:    0.000000    0.000000    0.000000


 **********************************************************************************************************************************
 DATASETS  * FILE   NREC   LENGTH (MB)   RECORD NAMES
              1      19     1808.43       500      610      700      900      950      970     1000      129      960     1100   
                                          VAR    BASINP    GEOM    SYMINP    ZMAT    AOBASIS   BASIS     P2S    ABASIS      S 
                                         1400     1410     1200     1210     1080     1600     1650     1300     1700   
                                           T        V       H0       H01     AOSYM     SMH    MOLCAS    ERIS     OPER   

              2       6        4.74       700     1000      520     2100     7360     7350   
                                         GEOM     BASIS   MCVARS     RHF    F12ABS    EF12   

 PROGRAMS   *        TOTAL       INT   CCSD(T)        HF       INT
 CPU TIMES  *       342.67      0.06    302.00     24.72     15.74
 REAL TIME  *       420.48 SEC
 DISK USED  *         5.02 GB      
 **********************************************************************************************************************************


 PROGRAM * RHF-SCF (CLOSED SHELL)       Authors: W. Meyer, H.-J. Werner


 NUMBER OF ELECTRONS:       5+    5-    SPACE SYMMETRY=1    SPIN SYMMETRY: Singlet 
 CONVERGENCE THRESHOLDS:    1.00E-04 (Density)    1.00E-09 (Energy)
 MAX. NUMBER OF ITERATIONS:       60
 INTERPOLATION TYPE:            DIIS
 INTERPOLATION STEPS:              2 (START)      1 (STEP)
 LEVEL SHIFTS:                  0.00 (CLOSED)  0.00 (OPEN) 



 Orbital guess generated from atomic densities. Full valence occupancy:    9

 Molecular orbital dump at record        2101.2

 Initial occupancy:   5

 ITERATION    DDIFF          GRAD             ENERGY        2-EL.EN.            DIPOLE MOMENTS         DIIS   ORB.
    1      0.000D+00      0.000D+00       -40.19565383     53.501359    0.00416   -0.00270   -0.00137    0    start
    2      0.000D+00      0.368D-02       -40.21289860     52.216647    0.00136   -0.00084   -0.00043    1    diag
    3      0.318D-02      0.143D-02       -40.21516743     52.670306    0.00189   -0.00120   -0.00060    2    diag
    4      0.855D-03      0.357D-03       -40.21548564     52.615358    0.00169   -0.00107   -0.00053    3    diag
    5      0.326D-03      0.463D-04       -40.21549111     52.617513    0.00167   -0.00105   -0.00052    4    diag
    6      0.568D-04      0.375D-05       -40.21549116     52.617657    0.00166   -0.00105   -0.00052    5    diag
    7      0.876D-05      0.302D-06       -40.21549116     52.617617    0.00166   -0.00105   -0.00052    6    diag
    8      0.998D-06      0.227D-07       -40.21549116     52.617619    0.00166   -0.00105   -0.00052    0    orth

 Final occupancy:   5

 !RHF STATE 1.1 Energy                -40.215491156094
 Nuclear energy                        13.68681606
 One-electron energy                  -80.21111656
 Two-electron energy                   26.30880934
 Virial quotient                       -0.99832337
 !RHF STATE 1.1 Dipole moment           0.00166305    -0.00104540    -0.00051541
 Dipole moment /Debye                   0.00422678    -0.00265697    -0.00130997

 Orbital energies:

         1.1          2.1          3.1          4.1          5.1          6.1          7.1
    -11.196270    -0.950712    -0.551937    -0.550003    -0.547826     0.052203     0.066379

 HOMO      5.1    -0.547826 =     -14.9071eV
 LUMO      6.1     0.052203 =       1.4205eV
 LUMO-HOMO         0.600029 =      16.3276eV


 **********************************************************************************************************************************
 DATASETS  * FILE   NREC   LENGTH (MB)   RECORD NAMES
              1      19     1808.43       500      610      700      900      950      970     1000      129      960     1100   
                                          VAR    BASINP    GEOM    SYMINP    ZMAT    AOBASIS   BASIS     P2S    ABASIS      S 
                                         1400     1410     1200     1210     1080     1600     1650     1300     1700   
                                           T        V       H0       H01     AOSYM     SMH    MOLCAS    ERIS     OPER   

              2       7        8.14       700     1000      520     2100     7360     7350     2101   
                                         GEOM     BASIS   MCVARS     RHF    F12ABS    EF12      RHF  

 PROGRAMS   *        TOTAL        HF       INT   CCSD(T)        HF       INT
 CPU TIMES  *       362.86     20.19      0.06    302.00     24.72     15.74
 REAL TIME  *       444.07 SEC
 DISK USED  *         5.02 GB      
 **********************************************************************************************************************************
 SETTING E_HF_A         =       -40.21549116  AU                              


 PROGRAM * CCSD (Closed-shell coupled cluster)     Authors: C. Hampel, H.-J. Werner, 1991, M. Deegan, P.J. Knowles, 1992

                                  CCSD-F12 implementation by  H.-J. Werner, 2007

                   Density fitting integral evaluation by F.R. Manby, 2003,2007, G. Knizia, 2010

 Basis set CC-PVTZ/JKFIT generated.      Number of basis functions:   338 
 Basis set CC-PVTZ-F12/OPTRI generated.  Number of basis functions:   396 
 Basis set AUG-CC-PVTZ/MP2FIT generated. Number of basis functions:   488 

 Convergence thresholds:  THRVAR = 1.00D-08  THRDEN = 1.00D-08

 CCSD(T)     terms to be evaluated (factor= 1.000)


 Number of core orbitals:           1 (   1 )
 Number of closed-shell orbitals:   4 (   4 )
 Number of external orbitals:     209 ( 209 )

 Molecular orbitals read from record     2101.2  Type=RHF/CANONICAL (state 1.1)

 MP2-F12 correlation treatment (H.-J. Werner, 2006)
 ==================================================

 Using MP2-F12 with ansatz 3C(FIX)

 Using projected zeroth-order Hamiltonian (+Z)

 FOCKRIB=T FOCKRIC=T FOCKRIP=T CABSP=T CABSA=T CABSK=T CABSF=T GBC=F EBC=F DMAT=T NOFIK=T NOPAO=1 SOLVE=-1  USEPAO=0
 EXCH_A= T EXCH_B= F EXCH_C= F EXCH_P= F
 
 Geminal basis:    OPTFULL  GEM_TYPE=SLATER  BETA=1.0  NGEM=6

 Optimizing Gaussian exponents for each gem_beta

 Geminal optimization for beta= 1.0000
 Weight function:   m=0, omega= 1.4646

 Augmented Hessian optimization of geminal fit. Trust ratio= 0.40000
 Convergence reached after   2 iterations. Final gradient= 8.26D-16, Step= 4.26D-06, Delta= 1.28D-09
 
 Alpha:                 0.19532     0.81920     2.85917     9.50073    35.69989   197.79328
 Coeff:                 0.27070     0.30552     0.18297     0.10986     0.06810     0.04224
 

 All pairs explicitly correlated. Number of r12-pairs:           10

 Excluding core orbitals from MO domains
 
 AO(A)-basis ORBITAL           loaded. Number of functions:     214
 RI(R)-basis CC-PVTZ-F12/OPTRI loaded. Number of functions:     396
 DF-basis CC-PVTZ/JKFIT        loaded. Number of functions:     338

 Screening thresholds:   THRAO=  1.00D-10  THRMO=  1.00D-09  THRPROD=  1.00D-09
                         THRSW=  1.00D-05  THROV=  1.00D-12  THRAOF12=   1.00D-08

 CPU time for Fock operators                      3.06 sec
 
 Construction of ABS:
 Smallest eigenvalue of S          4.09E-04  (threshold= 1.00E-08)
 Ratio eigmin/eigmax               5.26E-05  (threshold= 1.00E-09)
 Smallest eigenvalue of S kept     4.09E-04  (threshold= 4.09E-04, 0 functions deleted, 396 kept)
 
 Construction of CABS:
 Smallest eigenvalue of S          8.42E-07  (threshold= 1.00E-08)
 Ratio eigmin/eigmax               8.42E-07  (threshold= 1.00E-09)
 Smallest eigenvalue of S kept     8.42E-07  (threshold= 8.42E-07, 0 functions deleted, 396 kept)
 
 CPU time for CABS singles                        0.13 sec

 CABS-singles contribution of  -0.00063669 patched into reference energy.
 New reference energy         -40.21612785
 
 AO(A)-basis ORBITAL           loaded. Number of functions:     214
 RI(R)-basis CC-PVTZ-F12/OPTRI loaded. Number of functions:     396
 DF-basis AUG-CC-PVTZ/MP2FIT   loaded. Number of functions:     488

 Screening thresholds:   THRAO=  1.00D-10  THRMO=  1.00D-09  THRPROD=  1.00D-09
                         THRSW=  1.00D-05  THROV=  1.00D-12  THRAOF12=   1.00D-08

 CPU time for 3-index integral evaluation         6.06 sec
 CPU time for first  half transformation          0.61 sec ( 4221.1 MFLOP/sec)
 CPU time for second half transformation          0.01 sec ( 2924.1 MFLOP/sec)
 CPU time for sorting                             0.02 sec
 CPU time for fitting                             0.05 sec (23814.4 MFLOP/sec)
 CPU time for tilde quantities                    0.05 sec (31777.9 MFLOP/sec)
 CPU time for assembly                            0.23 sec (34678.6 MFLOP/sec)
 CPU time for tranop_f12                          0.25 sec (38326.5 MFLOP/sec)
 CPU time for f12 integrals (total)               7.74 sec, Elapsed time:     15.73 sec
 CPU time for f12 matrices (total)                0.07 sec, Elapsed time:      0.12 sec

 Diagonal F12 approximation with fixed coefficients:  TSING= 0.500,  TTRIP= 0.250 (scaled by -1/beta)

 DF-MP2-F12 energy corrections:
 ==============================
 Approx.                                    Singlet             Triplet             Total
 DF-MP2-F12/3*C(DX,FIX)                -0.016295529304     -0.001140827783     -0.017436357087
 DF-MP2-F12/3*C(FIX)                   -0.015935208149     -0.001150864315     -0.017086072464
 DF-MP2-F12/3C(FIX)                    -0.015865507371     -0.001157861637     -0.017023369009

 DF-MP2-F12 correlation energies:
 ================================
 Approx.                                    Singlet             Triplet             Ecorr            Total Energy
 DF-MP2                                -0.145607280183     -0.055804014875     -0.201411295058    -40.417539143655
 DF-MP2-F12/3*C(DX,FIX)                -0.161902809487     -0.056944842658     -0.218847652145    -40.434975500742
 DF-MP2-F12/3*C(FIX)                   -0.161542488332     -0.056954879190     -0.218497367522    -40.434625216119
 DF-MP2-F12/3C(FIX)                    -0.161472787554     -0.056961876512     -0.218434664067    -40.434562512664

 SCS-DF-MP2 energies (F_SING= 1.20000  F_TRIP= 0.62222  F_PARALLEL= 0.33333):
 ============================================================================
 SCS-DF-MP2                            -0.209451234364    -40.425579082961
 SCS-DF-MP2-F12/3*C(DX,FIX)            -0.229715717927    -40.445843566524
 SCS-DF-MP2-F12/3*C(FIX)               -0.229289577494    -40.445417426092
 SCS-DF-MP2-F12/3C(FIX)                -0.229210290451    -40.445338139048
 Symmetry transformation completed.

 Number of N-1 electron functions:               4
 Number of N-2 electron functions:              10
 Number of singly external CSFs:               836
 Number of doubly external CSFs:            349866
 Total number of CSFs:                      350703

 Length of J-op  integral file:              53.89 MB
 Length of K-op  integral file:              87.81 MB
 Length of 3-ext integral record:             0.00 MB

 Memory could be reduced to 60.96 Mwords without degradation in triples

 Integral transformation finished. Total CPU:   5.40 sec, npass=  1  Memory used:  26.32 MW

 Reference energy:                    -40.21612785

 Adding F12 terms to K(Cij), methodcc=6,  factor= 1.0

 ITER.      SQ.NORM     CORR.ENERGY   TOTAL ENERGY   ENERGY CHANGE        DEN1      VAR(S)    VAR(P)  DIIS     TIME  TIME/IT
   1      1.06960433    -0.21651365   -40.43264150    -0.01506755    -0.00954250  0.62D-03  0.94D-03  1  1    20.16     3.78
   2      1.07445931    -0.21732974   -40.43345759    -0.00081609    -0.00516275  0.14D-04  0.90D-04  2  2    23.93     3.94
   3      1.07598054    -0.21744110   -40.43356895    -0.00011136    -0.00108923  0.20D-05  0.57D-05  3  3    27.70     3.99
   4      1.07634979    -0.21745565   -40.43358350    -0.00001455    -0.00020078  0.12D-06  0.30D-06  4  4    31.50     4.01
   5      1.07640163    -0.21745528   -40.43358313     0.00000037    -0.00000932  0.77D-08  0.15D-07  5  5    35.25     4.03
   6      1.07640793    -0.21745402   -40.43358186     0.00000126    -0.00000296  0.31D-09  0.82D-09  6  6    39.05     5.01
   7      1.07640867    -0.21745396   -40.43358180     0.00000006    -0.00000040  0.18D-10  0.57D-10  6  1    42.81     4.88
   8      1.07640872    -0.21745398   -40.43358183    -0.00000003     0.00000003  0.23D-11  0.53D-11  6  2    46.61     4.78
   9      1.07640873    -0.21745399   -40.43358183    -0.00000000     0.00000002  0.19D-12  0.32D-12  6  3    50.39     4.70
  10      1.07640873    -0.21745398   -40.43358183     0.00000000     0.00000001  0.22D-13  0.30D-13  6  4    54.23     4.65

 Norm of t1 vector:      0.03260948      S-energy:    -0.00000000      T1 diagnostic:  0.00815237
                                                                       D1 diagnostic:  0.01307384

 Adding energy correction from Wij-K(Fij), methodcc=6  factor= 1.0
 
  CCSD correlation energy              -0.217453984682
  MP2-F12 correction (uncoupled)       -0.016726104620
  C*T doubles correction               -0.000289824183
  f12b correction                       0.003526845020


 Total CPU time for triples:     23.19 sec

  Ecorr(MP2)                           -0.201446105159
  Ecorr(MP2-F12)                       -0.218469474168
  Scale factor for triples energy       1.084505823507


 RESULTS
 =======

  Reference energy                    -40.215491156094
  F12 singles correction               -0.000636692503

 F12 singles corrections added to reference energy

  New reference energy                -40.216127848597

  F12a singlet correction              -0.015870471862
  F12a triplet correction              -0.001145456941
  F12a total correction                -0.017015928803

 F12a corrections for ansatz F12/3C(FIX) added to CCSD energy
 
  CCSD-F12a singlet pair energy        -0.179253657588
  CCSD-F12a triplet pair energy        -0.055216255608
  CCSD-F12a correlation energy         -0.234469913484

  Triples (T) contribution (scaled)    -0.006988213240
  Total correlation energy             -0.241458126725

  CCSD-F12a total energy              -40.450597762082
  CCSD[T]-F12a energy                 -40.457827446329
  CCSD-T-F12a energy                  -40.457512595210
 !CCSD(T)-F12a total energy           -40.457585975322

 F12b corrections for ansatz F12/3C(FIX) added to CCSD(T)-F12a energy

  CCSD-F12b singlet pair energy        -0.175881766915
  CCSD-F12b triplet pair energy        -0.055061301262
  CCSD-F12b correlation energy         -0.230943068465

  Triples (T) contribution (scaled)    -0.006988213240
  Total correlation energy             -0.237931281705

  CCSD-F12b total energy              -40.447070917062
  CCSD[T]-F12b energy                 -40.454300601309
  CCSD-T-F12b energy                  -40.453985750190
 !CCSD(T)-F12b total energy           -40.454059130302

 Timing summary (sec):

 STEP                 CPU(USER)    SYS     CPU(TOT)    WALL
 Transformation          5.44      0.67      6.11      6.21
 CCSD iterations        37.64      3.11     40.75     46.59
 Triples                23.19      0.37     23.56     23.58
 MP2-F12                11.16      0.51     11.67     19.80
 F12b energy             3.38      0.34      3.72      3.73

 Program statistics:

 Available memory in ccsd:              2999999786
 Min. memory needed in ccsd:               1609972
 Max. memory used in ccsd:                 1864434
 Max. memory used in cckext:               1252381 (11 integral passes)



 **********************************************************************************************************************************
 DATASETS  * FILE   NREC   LENGTH (MB)   RECORD NAMES
              1      20     1961.44       500      610      700      900      950      970     1000      129      960     1100   
                                          VAR    BASINP    GEOM    SYMINP    ZMAT    AOBASIS   BASIS     P2S    ABASIS      S 
                                         1400     1410     1200     1210     1080     1600     1650     1300     1700     1380   
                                           T        V       H0       H01     AOSYM     SMH    MOLCAS    ERIS     OPER     JKOP   

              2       7        8.14       700     1000      520     2100     7360     7350     2101   
                                         GEOM     BASIS   MCVARS     RHF    F12ABS    EF12      RHF  

 PROGRAMS   *        TOTAL   CCSD(T)        HF       INT   CCSD(T)        HF       INT
 CPU TIMES  *       443.71     80.85     20.19      0.06    302.00     24.72     15.74
 REAL TIME  *       544.18 SEC
 DISK USED  *         5.02 GB      
 **********************************************************************************************************************************
 SETTING E_F12_A(1)     =       -40.45758598  AU                              
 SETTING E_F12_A(2)     =       -40.45405913  AU                              

 Dummy atoms: C1  H1  H2  H3  H4


 Recomputing one-electron integrals since nuclear charges changed


 PROGRAM * SEWARD (Integral evaluation for generally contracted gaussian basis sets)     Author: Roland Lindh, 1990

 Geometry written to block  1 of record 700


 Point group  C1  



 ATOMIC COORDINATES

 NR  ATOM    CHARGE       X              Y              Z

   1  C1      0.00   -6.193010455    2.801518980    2.403542658
   2  H1      0.00   -4.656285171    1.699997622    3.119937832
   3  H2      0.00   -5.973046335    4.726205038    2.982932688
   4  H3      0.00   -7.940251230    2.077186956    3.118237078
   5  H4      0.00   -6.176569838    2.685300823    0.384937212
   6  O1      8.00   -8.257347274    8.608080443   -1.772185160
   7  H5      1.00   -8.759447505   10.077153532   -2.731599113
   8  H6      1.00   -9.852276123    7.752790399   -1.314682465

 Bond lengths in Bohr (Angstrom)

 1-2  2.021904040  1-3  2.022002335  1-4  2.021953343  1-5  2.022015060  6-7  1.825035758
     ( 1.069945541)     ( 1.069997556)     ( 1.069971630)     ( 1.070004290)     ( 0.965767332)

 6-8  1.866715781
     ( 0.987823451)

 Bond angles

  2-1-3  109.53398059   2-1-4  109.65604535   2-1-5  108.43490854   3-1-4  109.49436728

  3-1-5  109.86987750   4-1-5  109.83468330   7-6-8  105.22390814

 NUCLEAR CHARGE:                   10
 NUMBER OF PRIMITIVE AOS:         270
 NUMBER OF SYMMETRY AOS:          246
 NUMBER OF CONTRACTIONS:          214   ( 214A   )
 NUMBER OF CORE ORBITALS:           1   (   1A   )
 NUMBER OF VALENCE ORBITALS:        6   (   6A   )

 MOLECULE CHANGED: INITIALIZING OCCUPATION AND DUMP RECORDS


 NUCLEAR REPULSION ENERGY    9.00998347


 Eigenvalues of metric

         1 0.730E-04 0.183E-03 0.307E-03 0.333E-03 0.335E-03 0.406E-03 0.545E-03 0.565E-03


 Contracted 2-electron integrals neglected if value below      1.0D-19

 OPERATOR DM      FOR CENTER  0  COORDINATES:    0.000000    0.000000    0.000000


 **********************************************************************************************************************************
 DATASETS  * FILE   NREC   LENGTH (MB)   RECORD NAMES
              1      19     1808.43       500      610      700      900      950      970     1000      129      960     1100   
                                          VAR    BASINP    GEOM    SYMINP    ZMAT    AOBASIS   BASIS     P2S    ABASIS      S 
                                         1400     1410     1200     1210     1080     1600     1650     1300     1700   
                                           T        V       H0       H01     AOSYM     SMH    MOLCAS    ERIS     OPER   

              2       7        8.14       700     1000      520     2100     7360     7350     2101   
                                         GEOM     BASIS   MCVARS     RHF    F12ABS    EF12      RHF  

 PROGRAMS   *        TOTAL       INT   CCSD(T)        HF       INT   CCSD(T)        HF       INT
 CPU TIMES  *       443.78      0.06     80.85     20.19      0.06    302.00     24.72     15.74
 REAL TIME  *       544.53 SEC
 DISK USED  *         5.02 GB      
 **********************************************************************************************************************************


 PROGRAM * RHF-SCF (CLOSED SHELL)       Authors: W. Meyer, H.-J. Werner


 NUMBER OF ELECTRONS:       5+    5-    SPACE SYMMETRY=1    SPIN SYMMETRY: Singlet 
 CONVERGENCE THRESHOLDS:    1.00E-04 (Density)    1.00E-09 (Energy)
 MAX. NUMBER OF ITERATIONS:       60
 INTERPOLATION TYPE:            DIIS
 INTERPOLATION STEPS:              2 (START)      1 (STEP)
 LEVEL SHIFTS:                  0.00 (CLOSED)  0.00 (OPEN) 



 Orbital guess generated from atomic densities. Full valence occupancy:    7

 Molecular orbital dump at record        2102.2

 Initial occupancy:   5

 ITERATION    DDIFF          GRAD             ENERGY        2-EL.EN.            DIPOLE MOMENTS         DIIS   ORB.
    1      0.000D+00      0.000D+00       -76.02445639     77.421191   -1.07903    0.30901   -0.25391    0    start
    2      0.000D+00      0.672D-02       -76.05128199     73.775199   -0.62956    0.18599   -0.15174    1    diag
    3      0.462D-02      0.426D-02       -76.06278361     75.393040   -0.74062    0.21774   -0.17785    2    diag
    4      0.162D-02      0.401D-03       -76.06297848     75.300703   -0.73572    0.21752   -0.17745    3    diag
    5      0.228D-03      0.112D-03       -76.06299942     75.315196   -0.73385    0.21750   -0.17733    4    diag
    6      0.779D-04      0.223D-04       -76.06300078     75.314129   -0.73336    0.21753   -0.17732    5    diag
    7      0.220D-04      0.451D-05       -76.06300085     75.314282   -0.73320    0.21753   -0.17731    6    diag
    8      0.480D-05      0.866D-06       -76.06300085     75.314269   -0.73316    0.21752   -0.17731    7    diag
    9      0.904D-06      0.115D-06       -76.06300085     75.314260   -0.73315    0.21752   -0.17731    8    diag
   10      0.166D-06      0.257D-07       -76.06300085     75.314265   -0.73315    0.21752   -0.17731    0    orth

 Final occupancy:   5

 !RHF STATE 1.1 Energy                -76.063000848961
 Nuclear energy                         9.00998347
 One-electron energy                 -122.73011668
 Two-electron energy                   37.65713237
 Virial quotient                       -1.00188553
 !RHF STATE 1.1 Dipole moment          -0.73315382     0.21751981    -0.17730729
 Dipole moment /Debye                  -1.86336909     0.55284399    -0.45064067

 Orbital energies:

         1.1          2.1          3.1          4.1          5.1          6.1          7.1
    -20.567941    -1.342709    -0.708678    -0.579853    -0.508745     0.044368     0.061556

 HOMO      5.1    -0.508745 =     -13.8437eV
 LUMO      6.1     0.044368 =       1.2073eV
 LUMO-HOMO         0.553113 =      15.0510eV


 **********************************************************************************************************************************
 DATASETS  * FILE   NREC   LENGTH (MB)   RECORD NAMES
              1      19     1808.43       500      610      700      900      950      970     1000      129      960     1100   
                                          VAR    BASINP    GEOM    SYMINP    ZMAT    AOBASIS   BASIS     P2S    ABASIS      S 
                                         1400     1410     1200     1210     1080     1600     1650     1300     1700   
                                           T        V       H0       H01     AOSYM     SMH    MOLCAS    ERIS     OPER   

              2       8       12.47       700     1000      520     2100     7360     7350     2101     2102   
                                         GEOM     BASIS   MCVARS     RHF    F12ABS    EF12      RHF      RHF  

 PROGRAMS   *        TOTAL        HF       INT   CCSD(T)        HF       INT   CCSD(T)        HF       INT
 CPU TIMES  *       468.53     24.75      0.06     80.85     20.19      0.06    302.00     24.72     15.74
 REAL TIME  *       573.68 SEC
 DISK USED  *         5.02 GB      
 **********************************************************************************************************************************
 SETTING E_HF_B         =       -76.06300085  AU                              


 PROGRAM * CCSD (Closed-shell coupled cluster)     Authors: C. Hampel, H.-J. Werner, 1991, M. Deegan, P.J. Knowles, 1992

                                  CCSD-F12 implementation by  H.-J. Werner, 2007

                   Density fitting integral evaluation by F.R. Manby, 2003,2007, G. Knizia, 2010

 Basis set CC-PVTZ/JKFIT generated.      Number of basis functions:   338 
 Basis set CC-PVTZ-F12/OPTRI generated.  Number of basis functions:   396 
 Basis set AUG-CC-PVTZ/MP2FIT generated. Number of basis functions:   488 

 Convergence thresholds:  THRVAR = 1.00D-08  THRDEN = 1.00D-08

 CCSD(T)     terms to be evaluated (factor= 1.000)


 Number of core orbitals:           1 (   1 )
 Number of closed-shell orbitals:   4 (   4 )
 Number of external orbitals:     209 ( 209 )

 Molecular orbitals read from record     2102.2  Type=RHF/CANONICAL (state 1.1)

 MP2-F12 correlation treatment (H.-J. Werner, 2006)
 ==================================================

 Using MP2-F12 with ansatz 3C(FIX)

 Using projected zeroth-order Hamiltonian (+Z)

 FOCKRIB=T FOCKRIC=T FOCKRIP=T CABSP=T CABSA=T CABSK=T CABSF=T GBC=F EBC=F DMAT=T NOFIK=T NOPAO=1 SOLVE=-1  USEPAO=0
 EXCH_A= T EXCH_B= F EXCH_C= F EXCH_P= F
 
 Geminal basis:    OPTFULL  GEM_TYPE=SLATER  BETA=1.0  NGEM=6

 Optimizing Gaussian exponents for each gem_beta

 Geminal optimization for beta= 1.0000
 Weight function:   m=0, omega= 1.4646

 Augmented Hessian optimization of geminal fit. Trust ratio= 0.40000
 Convergence reached after   2 iterations. Final gradient= 8.26D-16, Step= 4.26D-06, Delta= 1.28D-09
 
 Alpha:                 0.19532     0.81920     2.85917     9.50073    35.69989   197.79328
 Coeff:                 0.27070     0.30552     0.18297     0.10986     0.06810     0.04224
 

 All pairs explicitly correlated. Number of r12-pairs:           10

 Excluding core orbitals from MO domains
 
 AO(A)-basis ORBITAL           loaded. Number of functions:     214
 RI(R)-basis CC-PVTZ-F12/OPTRI loaded. Number of functions:     396
 DF-basis CC-PVTZ/JKFIT        loaded. Number of functions:     338

 Screening thresholds:   THRAO=  1.00D-10  THRMO=  1.00D-09  THRPROD=  1.00D-09
                         THRSW=  1.00D-05  THROV=  1.00D-12  THRAOF12=   1.00D-08

 CPU time for Fock operators                      2.80 sec
 
 Construction of ABS:
 Smallest eigenvalue of S          4.09E-04  (threshold= 1.00E-08)
 Ratio eigmin/eigmax               5.26E-05  (threshold= 1.00E-09)
 Smallest eigenvalue of S kept     4.09E-04  (threshold= 4.09E-04, 0 functions deleted, 396 kept)
 
 Construction of CABS:
 Smallest eigenvalue of S          8.42E-07  (threshold= 1.00E-08)
 Ratio eigmin/eigmax               8.42E-07  (threshold= 1.00E-09)
 Smallest eigenvalue of S kept     8.42E-07  (threshold= 8.42E-07, 0 functions deleted, 396 kept)
 
 CPU time for CABS singles                        0.12 sec

 CABS-singles contribution of  -0.00097272 patched into reference energy.
 New reference energy         -76.06397357
 
 AO(A)-basis ORBITAL           loaded. Number of functions:     214
 RI(R)-basis CC-PVTZ-F12/OPTRI loaded. Number of functions:     396
 DF-basis AUG-CC-PVTZ/MP2FIT   loaded. Number of functions:     488

 Screening thresholds:   THRAO=  1.00D-10  THRMO=  1.00D-09  THRPROD=  1.00D-09
                         THRSW=  1.00D-05  THROV=  1.00D-12  THRAOF12=   1.00D-08

 CPU time for 3-index integral evaluation         6.29 sec
 CPU time for first  half transformation          0.75 sec ( 3433.2 MFLOP/sec)
 CPU time for second half transformation          0.02 sec ( 1462.0 MFLOP/sec)
 CPU time for fitting                             0.05 sec (23814.4 MFLOP/sec)
 CPU time for tilde quantities                    0.04 sec (39722.4 MFLOP/sec)
 CPU time for assembly                            0.22 sec (36254.9 MFLOP/sec)
 CPU time for tranop_f12                          0.27 sec (35487.5 MFLOP/sec)
 CPU time for f12 integrals (total)               8.15 sec, Elapsed time:     23.70 sec
 CPU time for f12 matrices (total)                0.09 sec, Elapsed time:      0.11 sec

 Diagonal F12 approximation with fixed coefficients:  TSING= 0.500,  TTRIP= 0.250 (scaled by -1/beta)

 DF-MP2-F12 energy corrections:
 ==============================
 Approx.                                    Singlet             Triplet             Total
 DF-MP2-F12/3*C(DX,FIX)                -0.025144153766     -0.003001069548     -0.028145223314
 DF-MP2-F12/3*C(FIX)                   -0.023370837770     -0.002714875045     -0.026085712815
 DF-MP2-F12/3C(FIX)                    -0.023296278244     -0.002811436641     -0.026107714885

 DF-MP2-F12 correlation energies:
 ================================
 Approx.                                    Singlet             Triplet             Ecorr            Total Energy
 DF-MP2                                -0.174820985137     -0.099701745991     -0.274522731129    -76.338496303099
 DF-MP2-F12/3*C(DX,FIX)                -0.199965138903     -0.102702815539     -0.302667954443    -76.366641526413
 DF-MP2-F12/3*C(FIX)                   -0.198191822907     -0.102416621037     -0.300608443944    -76.364582015914
 DF-MP2-F12/3C(FIX)                    -0.198117263381     -0.102513182632     -0.300630446013    -76.364604017983

 SCS-DF-MP2 energies (F_SING= 1.20000  F_TRIP= 0.62222  F_PARALLEL= 0.33333):
 ============================================================================
 SCS-DF-MP2                            -0.271821824115    -76.335795396085
 SCS-DF-MP2-F12/3*C(DX,FIX)            -0.303862140797    -76.367835712767
 SCS-DF-MP2-F12/3*C(FIX)               -0.301556085022    -76.365529656992
 SCS-DF-MP2-F12/3C(FIX)                -0.301526696362    -76.365500268332
 Symmetry transformation completed.

 Number of N-1 electron functions:               4
 Number of N-2 electron functions:              10
 Number of singly external CSFs:               836
 Number of doubly external CSFs:            349866
 Total number of CSFs:                      350703

 Length of J-op  integral file:              53.89 MB
 Length of K-op  integral file:              87.81 MB
 Length of 3-ext integral record:             0.00 MB

 Memory could be reduced to 60.96 Mwords without degradation in triples

 Integral transformation finished. Total CPU:   5.69 sec, npass=  1  Memory used:  26.32 MW

 Reference energy:                    -76.06397357

 Adding F12 terms to K(Cij), methodcc=6,  factor= 1.0

 ITER.      SQ.NORM     CORR.ENERGY   TOTAL ENERGY   ENERGY CHANGE        DEN1      VAR(S)    VAR(P)  DIIS     TIME  TIME/IT
   1      1.06257585    -0.27467144   -76.33864501    -0.00010661     0.00586884  0.76D-03  0.10D-02  1  1    20.76     3.99
   2      1.06595904    -0.27442022   -76.33839380     0.00025122    -0.00466924  0.14D-04  0.11D-03  2  2    24.66     4.14
   3      1.06717011    -0.27455463   -76.33852820    -0.00013441    -0.00081994  0.92D-05  0.72D-05  3  3    28.62     4.19
   4      1.06772522    -0.27457691   -76.33855049    -0.00002228    -0.00036183  0.45D-06  0.57D-06  4  4    32.59     4.23
   5      1.06782007    -0.27457534   -76.33854891     0.00000158    -0.00002088  0.13D-06  0.36D-07  5  5    36.52     4.24
   6      1.06784598    -0.27457400   -76.33854757     0.00000134    -0.00000432  0.12D-07  0.37D-08  6  6    40.47     4.32
   7      1.06785268    -0.27457361   -76.33854718     0.00000039    -0.00000151  0.10D-08  0.31D-09  6  1    44.42     4.33
   8      1.06785418    -0.27457366   -76.33854723    -0.00000005    -0.00000002  0.97D-10  0.40D-10  6  2    48.35     4.33
   9      1.06785453    -0.27457366   -76.33854724    -0.00000000     0.00000005  0.77D-11  0.72D-11  6  4    52.25     4.32
  10      1.06785465    -0.27457366   -76.33854723     0.00000000    -0.00000000  0.14D-11  0.50D-12  6  3    56.18     4.32

 Norm of t1 vector:      0.03620190      S-energy:     0.00000001      T1 diagnostic:  0.00905048
                                                                       D1 diagnostic:  0.01816833

 Adding energy correction from Wij-K(Fij), methodcc=6  factor= 1.0
 
  CCSD correlation energy              -0.274573662456
  MP2-F12 correction (uncoupled)       -0.024991268886
  C*T doubles correction               -0.000833908183
  f12b correction                       0.004280509325

 Total CPU time for triples:     23.07 sec

  Ecorr(MP2)                           -0.274564831022
  Ecorr(MP2-F12)                       -0.300672545907
  Scale factor for triples energy       1.095087614782


 RESULTS
 =======

  Reference energy                    -76.063000848960
  F12 singles correction               -0.000972723010

 F12 singles corrections added to reference energy

  New reference energy                -76.063973571970

  F12a singlet correction              -0.023120086251
  F12a triplet correction              -0.002705090818
  F12a total correction                -0.025825177069

 F12a corrections for ansatz F12/3C(FIX) added to CCSD energy
 
  CCSD-F12a singlet pair energy        -0.209560902762
  CCSD-F12a triplet pair energy        -0.090837943743
  CCSD-F12a correlation energy         -0.300398839526

  Triples (T) contribution (scaled)    -0.009753084952
  Total correlation energy             -0.310151924477

  CCSD-F12a total energy              -76.364372411496
  CCSD[T]-F12a energy                 -76.374461651724
  CCSD-T-F12a energy                  -76.373978519727
 !CCSD(T)-F12a total energy           -76.374125496447

 F12b corrections for ansatz F12/3C(FIX) added to CCSD(T)-F12a energy

  CCSD-F12b singlet pair energy        -0.205590898704
  CCSD-F12b triplet pair energy        -0.090527438476
  CCSD-F12b correlation energy         -0.296118330201

  Triples (T) contribution (scaled)    -0.009753084952
  Total correlation energy             -0.305871415153

  CCSD-F12b total energy              -76.360091902171
  CCSD[T]-F12b energy                 -76.370181142399
  CCSD-T-F12b energy                  -76.369698010403
 !CCSD(T)-F12b total energy           -76.369844987123

 Timing summary (sec):

 STEP                 CPU(USER)    SYS     CPU(TOT)    WALL
 Transformation          5.73      0.74      6.47     12.87
 CCSD iterations        39.13      3.75     42.88     43.42
 Triples                23.07      0.39     23.46     23.47
 MP2-F12                11.33      0.50     11.83     45.58
 F12b energy             3.45      0.29      3.74      3.82

 Program statistics:

 Available memory in ccsd:              2999999786
 Min. memory needed in ccsd:               1609972
 Max. memory used in ccsd:                 1864434
 Max. memory used in cckext:               1252381 (11 integral passes)



 **********************************************************************************************************************************
 DATASETS  * FILE   NREC   LENGTH (MB)   RECORD NAMES
              1      20     1961.44       500      610      700      900      950      970     1000      129      960     1100   
                                          VAR    BASINP    GEOM    SYMINP    ZMAT    AOBASIS   BASIS     P2S    ABASIS      S 
                                         1400     1410     1200     1210     1080     1600     1650     1300     1700     1380   
                                           T        V       H0       H01     AOSYM     SMH    MOLCAS    ERIS     OPER     JKOP   

              2       8       12.47       700     1000      520     2100     7360     7350     2101     2102   
                                         GEOM     BASIS   MCVARS     RHF    F12ABS    EF12      RHF      RHF  

 PROGRAMS   *        TOTAL   CCSD(T)        HF       INT   CCSD(T)        HF       INT   CCSD(T)        HF       INT
 CPU TIMES  *       551.29     82.74     24.75      0.06     80.85     20.19      0.06    302.00     24.72     15.74
 REAL TIME  *       703.20 SEC
 DISK USED  *         5.02 GB      
 **********************************************************************************************************************************
 SETTING E_F12_B(1)     =       -76.37412550  AU                              
 SETTING E_F12_B(2)     =       -76.36984499  AU                              
 SETTING E_INT_HF       =     1.35274777D-05  AU                              
 SETTING E_INT_F12(1)   =        -0.00053996  AU                              
 SETTING E_INT_F12(2)   =        -0.00053510  AU                              
 E_INT_HF         =         0.00001353 AU
 E_INT_F12(1:2)   = [      -0.00053996    -0.00053510] AU

 CCSD(T)-F12/cc-pVTZ-F12 energy=    -76.369844987123

     CCSD(T)-F12        HF-SCF       CCSD(T)-F12        HF-SCF       CCSD(T)-F12        HF-SCF  
    -76.36984499    -76.06300085    -40.45405913    -40.21549116   -116.82443922   -116.27847848
 **********************************************************************************************************************************
 Molpro calculation terminated
 Variable memory released
