
 Primary working directories    : /net/scratch/people/plgsirous
 Secondary working directories  : /net/scratch/people/plgsirous
 Wavefunction directory         : /net/people/plgsirous/wfu/
 Main file repository           : /net/scratch/people/plgsirous/

 SHA1      : 
 NAME      : 
 ARCHNAME  : linux/x86_64
 FC        : /net/software/local/intel/impi/2018.1.163/bin64/mpiifort
 BLASLIB   : -L/net/software/local/intel/compilers_and_libraries_2018.1.163/linux/mkl/lib/intel64 -lmkl_scalapack_ilp64 -lmkl_intel_ilp64 -lmkl_intel_thread -lmkl_core -lmkl_blacs_intelmpi_ilp64 -liomp5 -lpthread -lm -ldl
 id        : pl

 Nodes     nprocs
 p1404        1

 Using customized tuning parameters: mindgm=7; mindgv=20; mindgc=1; mindgr=1; noblas=0; minvec=7
 default implementation of scratch files=df  

 memory,3000,m
 zsymel=nosym
 angstrom
 geometry={
 C1        -3.2772    1.4825     1.2719
 H1        -2.4640    0.8996     1.6510
 H2        -3.1608    2.5010     1.5785
 H3        -4.2018    1.0992     1.6501
 H4        -3.2685    1.4210     0.2037
 O1        -6.0123    -1.3269     0.9480
 H5        -5.1455    -1.8020     0.9523
 H6        -6.6821    -2.0194     0.8817
 }
 basis=vtz-f12
 gthresh,orbital=1d-8,energy=1d-8,twoint=1.d-19
 
 
 nkerna=1
 nkernb=1
 nkernab=$nkerna+$nkernb
 
                                                                                 ! AB Dimer
 {hf,accu=1.d-8}
 E_HF_AB=energy
 core,$nkernab
 {ccsd(t)-f12,scale_trip=1,THRF12=1.d-12}
 E_F12_AB=energy
 
                                                                                 ! Monomer A Part
 
 dummy,6,7,8;
 {hf,accu=1.d-8}
 E_HF_A=energy
 core,$nkerna
 {ccsd(t)-f12,scale_trip=1,THRF12=1.d-12}
 E_F12_A=energy
 
                                                                                 ! Monomer B Part
 
 dummy,1,2,3,4,5;
 {hf,accu=1.d-8}
 E_HF_B=energy
 core,$nkernb
 {ccsd(t)-f12,scale_trip=1,THRF12=1.d-12}
 E_F12_B=energy
 
 E_int_HF = E_HF_AB-(E_HF_A+E_HF_B)
 E_int_F12 = E_F12_AB-(E_F12_A+E_F12_B)
 
 
 show,E_int_HF,E_int_F12

 Variables initialized (889), CPU time= 0.01 sec
 Commands  initialized (702), CPU time= 0.00 sec, 572 directives.
 Default parameters read. Elapsed time= 0.26 sec

 Checking input...
 Passed
1


                                         ***  PROGRAM SYSTEM MOLPRO  ***
                                       Copyright, TTI GmbH Stuttgart, 2015
                                    Version 2015.1 linked Jul  2 2018 15:03:07


 **********************************************************************************************************************************
 LABEL *                                                                                 
  64 bit serial version                                                                  DATE: 17-Jan-19          TIME: 14:52:49  
 **********************************************************************************************************************************

 SHA1:             
 **********************************************************************************************************************************
 SETTING ZSYMEL         =    NOSYM
 ZSYMEL=NOSYM
 ZUNIT=ANG
 

Geometry recognized as XYZ


 Variable memory set to 3000000000 words,  buffer space   230000 words

 SETTING BASIS          =    VTZ-F12

 THRESHOLDS:

 ZERO    =  1.00D-12  ONEINT  =  1.00D-12  TWOINT  =  1.00D-19  PREFAC  =  1.00D-14  LOCALI  =  1.00D-09  EORDER  =  1.00D-04
 ENERGY  =  1.00D-08  ETEST   =  0.00D+00  EDENS   =  0.00D+00  THRDEDEF=  1.00D-06  GRADIENT=  1.00D-02  STEP    =  1.00D-03
 ORBITAL =  1.00D-08  CIVEC   =  1.00D-05  COEFF   =  1.00D-04  PRINTCI =  5.00D-02  PUNCHCI =  9.90D+01  OPTGRAD =  3.00D-04
 OPTENERG=  1.00D-06  OPTSTEP =  3.00D-04  THRGRAD =  1.00D-10  COMPRESS=  1.00D-11  VARMIN  =  1.00D-07  VARMAX  =  1.00D-03
 THRDOUB =  0.00D+00  THRDIV  =  1.00D-05  THRRED  =  1.00D-07  THRPSP  =  1.00D+00  THRDC   =  1.00D-10  THRCS   =  1.00D-10
 THRNRM  =  1.00D-08  THREQ   =  0.00D+00  THRDE   =  1.00D+00  THRREF  =  1.00D-05  SPARFAC =  1.00D+00  THRDLP  =  1.00D-07
 THRDIA  =  1.00D-10  THRDLS  =  1.00D-07  THRGPS  =  0.00D+00  THRKEX  =  0.00D+00  THRDIS  =  2.00D-01  THRVAR  =  1.00D-10
 THRLOC  =  1.00D-06  THRGAP  =  1.00D-06  THRLOCT = -1.00D+00  THRGAPT = -1.00D+00  THRORB  =  1.00D-06  THRMLTP =  0.00D+00
 THRCPQCI=  1.00D-10  KEXTA   =  0.00D+00  THRCOARS=  0.00D+00  SYMTOL  =  1.00D-06  GRADTOL =  1.00D-06  THROVL  =  1.00D-08
 THRORTH =  1.00D-08  GRID    =  1.00D-06  GRIDMAX =  1.00D-03  DTMAX   =  0.00D+00  THROCCDE=  1.00D-01  THROCCDE=  1.00D-01


 SETTING NKERNA         =         1.00000000                                  
 SETTING NKERNB         =         1.00000000                                  
 SETTING NKERNAB        =         2.00000000                                  


 Recomputing integrals since basis changed


 Using spherical harmonics

 Library entry C      S cc-pVTZ-F12          selected for orbital group  1
 Library entry C      P cc-pVTZ-F12          selected for orbital group  1
 Library entry C      D cc-pVTZ-F12          selected for orbital group  1
 Library entry C      F cc-pVTZ-F12          selected for orbital group  1
 Library entry H      S cc-pVTZ-F12          selected for orbital group  2
 Library entry H      P cc-pVTZ-F12          selected for orbital group  2
 Library entry H      D cc-pVTZ-F12          selected for orbital group  2
 Library entry O      S cc-pVTZ-F12          selected for orbital group  3
 Library entry O      P cc-pVTZ-F12          selected for orbital group  3
 Library entry O      D cc-pVTZ-F12          selected for orbital group  3
 Library entry O      F cc-pVTZ-F12          selected for orbital group  3


 PROGRAM * SEWARD (Integral evaluation for generally contracted gaussian basis sets)     Author: Roland Lindh, 1990

 Geometry written to block  1 of record 700


 Point group  C1  



 ATOMIC COORDINATES

 NR  ATOM    CHARGE       X              Y              Z

   1  C1      6.00   -6.193010455    2.801518980    2.403542658
   2  H1      1.00   -4.656285171    1.699997622    3.119937832
   3  H2      1.00   -5.973046335    4.726205038    2.982932688
   4  H3      1.00   -7.940251230    2.077186956    3.118237078
   5  H4      1.00   -6.176569838    2.685300823    0.384937212
   6  O1      8.00  -11.361600379   -2.507477595    1.791460366
   7  H5      1.00   -9.723585774   -3.405286476    1.799586188
   8  H6      1.00  -12.627338937   -3.816112936    1.666171524

 Bond lengths in Bohr (Angstrom)

 1-2  2.021904040  1-3  2.022002335  1-4  2.021953343  1-5  2.022015060  6-7  1.867945037
     ( 1.069945541)     ( 1.069997556)     ( 1.069971630)     ( 1.070004290)     ( 0.988473945)

 6-8  1.824915847
     ( 0.965703878)

 Bond angles

  2-1-3  109.53398059   2-1-4  109.65604535   2-1-5  108.43490854   3-1-4  109.49436728

  3-1-5  109.86987750   4-1-5  109.83468330   7-6-8  105.29843553

 NUCLEAR CHARGE:                   20
 NUMBER OF PRIMITIVE AOS:         270
 NUMBER OF SYMMETRY AOS:          246
 NUMBER OF CONTRACTIONS:          214   ( 214A   )
 NUMBER OF CORE ORBITALS:           2   (   2A   )
 NUMBER OF VALENCE ORBITALS:       14   (  14A   )


 NUCLEAR REPULSION ENERGY   35.93228190


 Eigenvalues of metric

         1 0.737E-04 0.171E-03 0.304E-03 0.323E-03 0.338E-03 0.402E-03 0.544E-03 0.563E-03


 Contracted 2-electron integrals neglected if value below      1.0D-19
 AO integral compression algorithm  1   Integral accuracy      1.0D-19

     2019.033 MB (compressed) written to integral file ( 82.8%)


 NUMBER OF SORTED TWO-ELECTRON INTEGRALS:  264626515.     BUFFER LENGTH:  32768
 NUMBER OF SEGMENTS:  17  SEGMENT LENGTH:   15999762      RECORD LENGTH: 524288

 Memory used in sort:      16.56 MW

 SORT1 READ   304636334. AND WROTE   243398714. INTEGRALS IN    704 RECORDS. CPU TIME:     3.25 SEC, REAL TIME:     7.29 SEC
 SORT2 READ   243398714. AND WROTE   264626515. INTEGRALS IN   7702 RECORDS. CPU TIME:     3.19 SEC, REAL TIME:     7.13 SEC

 FILE SIZES:   FILE 1:  2040.7 MBYTE,  FILE 4:  2952.8 MBYTE,   TOTAL:   4993.6 MBYTE

 OPERATOR DM      FOR CENTER  0  COORDINATES:    0.000000    0.000000    0.000000


 **********************************************************************************************************************************
 DATASETS  * FILE   NREC   LENGTH (MB)   RECORD NAMES
              1      19     1790.36       500      610      700      900      950      970     1000      129      960     1100   
                                          VAR    BASINP    GEOM    SYMINP    ZMAT    AOBASIS   BASIS     P2S    ABASIS      S 
                                         1400     1410     1200     1210     1080     1600     1650     1300     1700   
                                           T        V       H0       H01     AOSYM     SMH    MOLCAS    ERIS     OPER   

 PROGRAMS   *        TOTAL       INT
 CPU TIMES  *        15.76     15.64
 REAL TIME  *        43.99 SEC
 DISK USED  *         4.99 GB      
 **********************************************************************************************************************************


 PROGRAM * RHF-SCF (CLOSED SHELL)       Authors: W. Meyer, H.-J. Werner


 NUMBER OF ELECTRONS:      10+   10-    SPACE SYMMETRY=1    SPIN SYMMETRY: Singlet 
 CONVERGENCE THRESHOLDS:    1.00E-04 (Density)    1.00E-09 (Energy)
 MAX. NUMBER OF ITERATIONS:       60
 INTERPOLATION TYPE:            DIIS
 INTERPOLATION STEPS:              2 (START)      1 (STEP)
 LEVEL SHIFTS:                  0.00 (CLOSED)  0.00 (OPEN) 



 Orbital guess generated from atomic densities. Full valence occupancy:   16

 Molecular orbital dump at record        2100.2

 Initial occupancy:  10

 ITERATION    DDIFF          GRAD             ENERGY        2-EL.EN.            DIPOLE MOMENTS         DIIS   ORB.
    1      0.000D+00      0.000D+00      -116.22038345    157.598474    0.20023   -1.13629   -0.06154    0    start
    2      0.000D+00      0.547D-02      -116.26430875    152.574665    0.05733   -0.67269   -0.03890    1    diag
    3      0.562D-02      0.321D-02      -116.27780692    154.649581    0.09008   -0.79096   -0.04397    2    diag
    4      0.182D-02      0.475D-03      -116.27845872    154.534984    0.08701   -0.78044   -0.04311    3    diag
    5      0.418D-03      0.139D-03      -116.27852671    154.530128    0.08580   -0.78001   -0.04296    4    diag
    6      0.156D-03      0.337D-04      -116.27853050    154.535636    0.08538   -0.77917   -0.04286    5    diag
    7      0.407D-04      0.676D-05      -116.27853073    154.533994    0.08532   -0.77913   -0.04284    6    diag
    8      0.109D-04      0.170D-05      -116.27853074    154.534164    0.08528   -0.77905   -0.04283    7    diag
    9      0.307D-05      0.402D-06      -116.27853075    154.534137    0.08527   -0.77902   -0.04283    8    diag
   10      0.655D-06      0.479D-07      -116.27853075    154.534138    0.08527   -0.77902   -0.04283    0    orth

 Final occupancy:  10

 !RHF STATE 1.1 Energy               -116.278530745172
 Nuclear energy                        35.93228190
 One-electron energy                 -229.47788172
 Two-electron energy                   77.26706908
 Virial quotient                       -1.00064471
 !RHF STATE 1.1 Dipole moment           0.08527275    -0.77902221    -0.04282655
 Dipole moment /Debye                   0.21672750    -1.97994726    -0.10884710

 Orbital energies:

         1.1          2.1          3.1          4.1          5.1          6.1          7.1          8.1          9.1         10.1
    -20.568480   -11.188931    -1.343150    -0.943726    -0.709326    -0.580849    -0.545150    -0.541706    -0.541249    -0.509304

        11.1         12.1
      0.057699     0.068808

 HOMO     10.1    -0.509304 =     -13.8589eV
 LUMO     11.1     0.057699 =       1.5701eV
 LUMO-HOMO         0.567003 =      15.4289eV


 **********************************************************************************************************************************
 DATASETS  * FILE   NREC   LENGTH (MB)   RECORD NAMES
              1      19     1790.36       500      610      700      900      950      970     1000      129      960     1100   
                                          VAR    BASINP    GEOM    SYMINP    ZMAT    AOBASIS   BASIS     P2S    ABASIS      S 
                                         1400     1410     1200     1210     1080     1600     1650     1300     1700   
                                           T        V       H0       H01     AOSYM     SMH    MOLCAS    ERIS     OPER   

              2       4        3.81       700     1000      520     2100   
                                         GEOM     BASIS   MCVARS     RHF  

 PROGRAMS   *        TOTAL        HF       INT
 CPU TIMES  *        41.13     25.37     15.64
 REAL TIME  *        73.15 SEC
 DISK USED  *         4.99 GB      
 **********************************************************************************************************************************
 SETTING E_HF_AB        =      -116.27853075  AU                              


 PROGRAM * CCSD (Closed-shell coupled cluster)     Authors: C. Hampel, H.-J. Werner, 1991, M. Deegan, P.J. Knowles, 1992

                                  CCSD-F12 implementation by  H.-J. Werner, 2007

                   Density fitting integral evaluation by F.R. Manby, 2003,2007, G. Knizia, 2010

 Basis set CC-PVTZ/JKFIT generated.      Number of basis functions:   338 
 Basis set CC-PVTZ-F12/OPTRI generated.  Number of basis functions:   396 
 Basis set AUG-CC-PVTZ/MP2FIT generated. Number of basis functions:   488 

 Convergence thresholds:  THRVAR = 1.00D-08  THRDEN = 1.00D-08

 CCSD(T)     terms to be evaluated (factor= 1.000)


 Number of core orbitals:           2 (   2 )
 Number of closed-shell orbitals:   8 (   8 )
 Number of external orbitals:     204 ( 204 )

 Molecular orbitals read from record     2100.2  Type=RHF/CANONICAL (state 1.1)

 MP2-F12 correlation treatment (H.-J. Werner, 2006)
 ==================================================

 Using MP2-F12 with ansatz 3C(FIX)

 Using projected zeroth-order Hamiltonian (+Z)

 FOCKRIB=T FOCKRIC=T FOCKRIP=T CABSP=T CABSA=T CABSK=T CABSF=T GBC=F EBC=F DMAT=T NOFIK=T NOPAO=1 SOLVE=-1  USEPAO=0
 EXCH_A= T EXCH_B= F EXCH_C= F EXCH_P= F
 
 Geminal basis:    OPTFULL  GEM_TYPE=SLATER  BETA=1.0  NGEM=6

 Optimizing Gaussian exponents for each gem_beta

 Geminal optimization for beta= 1.0000
 Weight function:   m=0, omega= 1.4646

 Augmented Hessian optimization of geminal fit. Trust ratio= 0.40000
 Convergence reached after   2 iterations. Final gradient= 8.26D-16, Step= 4.26D-06, Delta= 1.28D-09
 
 Alpha:                 0.19532     0.81920     2.85917     9.50073    35.69989   197.79328
 Coeff:                 0.27070     0.30552     0.18297     0.10986     0.06810     0.04224
 

 All pairs explicitly correlated. Number of r12-pairs:           36

 Excluding core orbitals from MO domains
 
 AO(A)-basis ORBITAL           loaded. Number of functions:     214
 RI(R)-basis CC-PVTZ-F12/OPTRI loaded. Number of functions:     396
 DF-basis CC-PVTZ/JKFIT        loaded. Number of functions:     338

 Screening thresholds:   THRAO=  1.00D-10  THRMO=  1.00D-09  THRPROD=  1.00D-09
                         THRSW=  1.00D-05  THROV=  1.00D-12  THRAOF12=   1.00D-08

 CPU time for Fock operators                      2.78 sec
 
 Construction of ABS:
 Smallest eigenvalue of S          3.91E-04  (threshold= 1.00E-08)
 Ratio eigmin/eigmax               5.03E-05  (threshold= 1.00E-09)
 Smallest eigenvalue of S kept     3.91E-04  (threshold= 3.91E-04, 0 functions deleted, 396 kept)
 
 Construction of CABS:
 Smallest eigenvalue of S          8.37E-07  (threshold= 1.00E-08)
 Ratio eigmin/eigmax               8.37E-07  (threshold= 1.00E-09)
 Smallest eigenvalue of S kept     8.37E-07  (threshold= 8.37E-07, 0 functions deleted, 396 kept)
 
 CPU time for CABS singles                        0.11 sec

 CABS-singles contribution of  -0.00160680 patched into reference energy.
 New reference energy        -116.28013754
 
 AO(A)-basis ORBITAL           loaded. Number of functions:     214
 RI(R)-basis CC-PVTZ-F12/OPTRI loaded. Number of functions:     396
 DF-basis AUG-CC-PVTZ/MP2FIT   loaded. Number of functions:     488

 Screening thresholds:   THRAO=  1.00D-10  THRMO=  1.00D-09  THRPROD=  1.00D-09
                         THRSW=  1.00D-05  THROV=  1.00D-12  THRAOF12=   1.00D-08

 CPU time for 3-index integral evaluation         5.74 sec
 CPU time for first  half transformation          0.43 sec (11976.2 MFLOP/sec)
 CPU time for second half transformation          0.01 sec (11696.4 MFLOP/sec)
 CPU time for sorting                             0.02 sec
 CPU time for fitting                             0.06 sec (40643.2 MFLOP/sec)
 CPU time for tilde quantities                    0.09 sec (35732.2 MFLOP/sec)
 CPU time for assembly                            0.84 sec (35641.1 MFLOP/sec)
 CPU time for tranop_f12                          1.07 sec (36197.9 MFLOP/sec)
 CPU time for f12 integrals (total)               9.70 sec, Elapsed time:     11.19 sec
 CPU time for f12 matrices (total)                0.35 sec, Elapsed time:      0.43 sec

 Diagonal F12 approximation with fixed coefficients:  TSING= 0.500,  TTRIP= 0.250 (scaled by -1/beta)

 DF-MP2-F12 energy corrections:
 ==============================
 Approx.                                    Singlet             Triplet             Total
 DF-MP2-F12/3*C(DX,FIX)                -0.041447894537     -0.004151671389     -0.045599565925
 DF-MP2-F12/3*C(FIX)                   -0.039314827651     -0.003879889662     -0.043194717312
 DF-MP2-F12/3C(FIX)                    -0.039173495309     -0.003986321553     -0.043159816861

 DF-MP2-F12 correlation energies:
 ================================
 Approx.                                    Singlet             Triplet             Ecorr            Total Energy
 DF-MP2                                -0.320567223828     -0.155942699978     -0.476509923806   -116.756647467686
 DF-MP2-F12/3*C(DX,FIX)                -0.362015118365     -0.160094371367     -0.522109489732   -116.802247033612
 DF-MP2-F12/3*C(FIX)                   -0.359882051479     -0.159822589640     -0.519704641119   -116.799842184999
 DF-MP2-F12/3C(FIX)                    -0.359740719137     -0.159929021531     -0.519669740668   -116.799807284548

 SCS-DF-MP2 energies (F_SING= 1.20000  F_TRIP= 0.62222  F_PARALLEL= 0.33333):
 ============================================================================
 SCS-DF-MP2                            -0.481711681914   -116.761849225794
 SCS-DF-MP2-F12/3*C(DX,FIX)            -0.534032417555   -116.814169961435
 SCS-DF-MP2-F12/3*C(FIX)               -0.531303628662   -116.811441172542
 SCS-DF-MP2-F12/3C(FIX)                -0.531200254139   -116.811337798019
 Symmetry transformation completed.

 Number of N-1 electron functions:               8
 Number of N-2 electron functions:              36
 Number of singly external CSFs:              1632
 Number of doubly external CSFs:           1332528
 Total number of CSFs:                     1334161

 Length of J-op  integral file:             205.73 MB
 Length of K-op  integral file:             258.78 MB
 Length of 3-ext integral record:             0.00 MB

 Memory could be reduced to 93.27 Mwords without degradation in triples

 Integral transformation finished. Total CPU:   9.34 sec, npass=  1  Memory used:  48.07 MW

 Reference energy:                   -116.28013754

 Adding F12 terms to K(Cij), methodcc=6,  factor= 1.0

 ITER.      SQ.NORM     CORR.ENERGY   TOTAL ENERGY   ENERGY CHANGE        DEN1      VAR(S)    VAR(P)  DIIS     TIME  TIME/IT
   1      1.13237184    -0.49170424  -116.77184178    -0.01511743    -0.00361808  0.14D-02  0.19D-02  1  1    31.10     9.49
   2      1.14030787    -0.49226419  -116.77240174    -0.00055996    -0.00955165  0.29D-04  0.23D-03  2  2    39.68     9.33
   3      1.14331002    -0.49251684  -116.77265439    -0.00025265    -0.00214521  0.12D-04  0.13D-04  3  3    48.28     9.26
   4      1.14428043    -0.49254927  -116.77268681    -0.00003243    -0.00060556  0.59D-06  0.10D-05  4  4    56.87     9.21
   5      1.14443633    -0.49254854  -116.77268608     0.00000073    -0.00002946  0.16D-06  0.61D-07  5  5    65.49     9.19
   6      1.14446947    -0.49254639  -116.77268394     0.00000214    -0.00000637  0.13D-07  0.66D-08  6  6    74.10     9.20
   7      1.14447685    -0.49254574  -116.77268328     0.00000065    -0.00000213  0.20D-08  0.57D-09  6  2    82.74     9.20
   8      1.14447952    -0.49254562  -116.77268316     0.00000012    -0.00000052  0.17D-09  0.56D-10  6  1    91.38     9.21
   9      1.14448009    -0.49254562  -116.77268317    -0.00000001    -0.00000001  0.14D-10  0.10D-10  6  3    99.99    10.17
  10      1.14448018    -0.49254563  -116.77268318    -0.00000001     0.00000008  0.18D-11  0.12D-11  6  4   108.60    10.08
  11      1.14448016    -0.49254564  -116.77268318    -0.00000000     0.00000006  0.27D-12  0.14D-12  6  5   117.25    10.00
  12      1.14448014    -0.49254564  -116.77268318     0.00000000     0.00000001  0.54D-13  0.16D-13  6  6   125.88    10.02

 Norm of t1 vector:      0.04895479      S-energy:     0.00000000      T1 diagnostic:  0.00865407
                                                                       D1 diagnostic:  0.01833935

 Adding energy correction from Wij-K(Fij), methodcc=6  factor= 1.0
 
  CCSD correlation energy              -0.492545639107
  MP2-F12 correction (uncoupled)       -0.041738634396
  C*T doubles correction               -0.001127358658
  f12b correction                       0.007812065417


 Total CPU time for triples:    153.21 sec

  Ecorr(MP2)                           -0.476586805234
  Ecorr(MP2-F12)                       -0.519746622096
  Scale factor for triples energy       1.090560242935


 RESULTS
 =======

  Reference energy                   -116.278530745172
  F12 singles correction               -0.001606798708

 F12 singles corrections added to reference energy

  New reference energy               -116.280137543880

  F12a singlet correction              -0.039000135271
  F12a triplet correction              -0.003865857782
  F12a total correction                -0.042865993054

 F12a corrections for ansatz F12/3C(FIX) added to CCSD energy
 
  CCSD-F12a singlet pair energy        -0.388899373370
  CCSD-F12a triplet pair energy        -0.146512263042
  CCSD-F12a correlation energy         -0.535411632161

  Triples (T) contribution (scaled)    -0.016836739571
  Total correlation energy             -0.552248371732

  CCSD-F12a total energy             -116.815549176041
  CCSD[T]-F12a energy                -116.832965447261
  CCSD-T-F12a energy                 -116.832164588958
 !CCSD(T)-F12a total energy          -116.832385915612

 F12b corrections for ansatz F12/3C(FIX) added to CCSD(T)-F12a energy

  CCSD-F12b singlet pair energy        -0.381553804585
  CCSD-F12b triplet pair energy        -0.146045766411
  CCSD-F12b correlation energy         -0.527599566744

  Triples (T) contribution (scaled)    -0.016836739571
  Total correlation energy             -0.544436306315

  CCSD-F12b total energy             -116.807737110624
  CCSD[T]-F12b energy                -116.825153381844
  CCSD-T-F12b energy                 -116.824352523541
 !CCSD(T)-F12b total energy          -116.824573850195

 Timing summary (sec):

 STEP                 CPU(USER)    SYS     CPU(TOT)    WALL
 Transformation          9.46      1.04     10.50     11.16
 CCSD iterations       103.27      6.70    109.97    120.48
 Triples               153.21      2.54    155.75    155.78
 MP2-F12                13.16      1.33     14.49     14.99
 F12b energy             6.85      0.32      7.17      7.23

 Program statistics:

 Available memory in ccsd:              2999999464
 Min. memory needed in ccsd:               3963025
 Max. memory used in ccsd:                 5096465
 Max. memory used in cckext:               3666031 (13 integral passes)



 **********************************************************************************************************************************
 DATASETS  * FILE   NREC   LENGTH (MB)   RECORD NAMES
              1      20     2083.92       500      610      700      900      950      970     1000      129      960     1100   
                                          VAR    BASINP    GEOM    SYMINP    ZMAT    AOBASIS   BASIS     P2S    ABASIS      S 
                                         1400     1410     1200     1210     1080     1600     1650     1300     1700     1380   
                                           T        V       H0       H01     AOSYM     SMH    MOLCAS    ERIS     OPER     JKOP   

              2       6        4.74       700     1000      520     2100     7360     7350   
                                         GEOM     BASIS   MCVARS     RHF    F12ABS    EF12   

 PROGRAMS   *        TOTAL   CCSD(T)        HF       INT
 CPU TIMES  *       327.12    285.99     25.37     15.64
 REAL TIME  *       382.93 SEC
 DISK USED  *         4.99 GB      
 **********************************************************************************************************************************
 SETTING E_F12_AB(1)    =      -116.83238592  AU                              
 SETTING E_F12_AB(2)    =      -116.82457385  AU                              

 Dummy atoms: O1  H5  H6


 Recomputing one-electron integrals since nuclear charges changed


 PROGRAM * SEWARD (Integral evaluation for generally contracted gaussian basis sets)     Author: Roland Lindh, 1990

 Geometry written to block  1 of record 700


 Point group  C1  



 ATOMIC COORDINATES

 NR  ATOM    CHARGE       X              Y              Z

   1  C1      6.00   -6.193010455    2.801518980    2.403542658
   2  H1      1.00   -4.656285171    1.699997622    3.119937832
   3  H2      1.00   -5.973046335    4.726205038    2.982932688
   4  H3      1.00   -7.940251230    2.077186956    3.118237078
   5  H4      1.00   -6.176569838    2.685300823    0.384937212
   6  O1      0.00  -11.361600379   -2.507477595    1.791460366
   7  H5      0.00   -9.723585774   -3.405286476    1.799586188
   8  H6      0.00  -12.627338937   -3.816112936    1.666171524

 Bond lengths in Bohr (Angstrom)

 1-2  2.021904040  1-3  2.022002335  1-4  2.021953343  1-5  2.022015060  6-7  1.867945037
     ( 1.069945541)     ( 1.069997556)     ( 1.069971630)     ( 1.070004290)     ( 0.988473945)

 6-8  1.824915847
     ( 0.965703878)

 Bond angles

  2-1-3  109.53398059   2-1-4  109.65604535   2-1-5  108.43490854   3-1-4  109.49436728

  3-1-5  109.86987750   4-1-5  109.83468330   7-6-8  105.29843553

 NUCLEAR CHARGE:                   10
 NUMBER OF PRIMITIVE AOS:         270
 NUMBER OF SYMMETRY AOS:          246
 NUMBER OF CONTRACTIONS:          214   ( 214A   )
 NUMBER OF CORE ORBITALS:           1   (   1A   )
 NUMBER OF VALENCE ORBITALS:        8   (   8A   )

 MOLECULE CHANGED: INITIALIZING OCCUPATION AND DUMP RECORDS


 NUCLEAR REPULSION ENERGY   13.68681606


 Eigenvalues of metric

         1 0.737E-04 0.171E-03 0.304E-03 0.323E-03 0.338E-03 0.402E-03 0.544E-03 0.563E-03


 Contracted 2-electron integrals neglected if value below      1.0D-19

 OPERATOR DM      FOR CENTER  0  COORDINATES:    0.000000    0.000000    0.000000


 **********************************************************************************************************************************
 DATASETS  * FILE   NREC   LENGTH (MB)   RECORD NAMES
              1      19     1790.36       500      610      700      900      950      970     1000      129      960     1100   
                                          VAR    BASINP    GEOM    SYMINP    ZMAT    AOBASIS   BASIS     P2S    ABASIS      S 
                                         1400     1410     1200     1210     1080     1600     1650     1300     1700   
                                           T        V       H0       H01     AOSYM     SMH    MOLCAS    ERIS     OPER   

              2       6        4.74       700     1000      520     2100     7360     7350   
                                         GEOM     BASIS   MCVARS     RHF    F12ABS    EF12   

 PROGRAMS   *        TOTAL       INT   CCSD(T)        HF       INT
 CPU TIMES  *       327.19      0.06    285.99     25.37     15.64
 REAL TIME  *       388.54 SEC
 DISK USED  *         4.99 GB      
 **********************************************************************************************************************************


 PROGRAM * RHF-SCF (CLOSED SHELL)       Authors: W. Meyer, H.-J. Werner


 NUMBER OF ELECTRONS:       5+    5-    SPACE SYMMETRY=1    SPIN SYMMETRY: Singlet 
 CONVERGENCE THRESHOLDS:    1.00E-04 (Density)    1.00E-09 (Energy)
 MAX. NUMBER OF ITERATIONS:       60
 INTERPOLATION TYPE:            DIIS
 INTERPOLATION STEPS:              2 (START)      1 (STEP)
 LEVEL SHIFTS:                  0.00 (CLOSED)  0.00 (OPEN) 



 Orbital guess generated from atomic densities. Full valence occupancy:    9

 Molecular orbital dump at record        2101.2

 Initial occupancy:   5

 ITERATION    DDIFF          GRAD             ENERGY        2-EL.EN.            DIPOLE MOMENTS         DIIS   ORB.
    1      0.000D+00      0.000D+00       -40.19565441     53.501366    0.00409   -0.00278   -0.00136    0    start
    2      0.000D+00      0.368D-02       -40.21289927     52.216656    0.00129   -0.00090   -0.00046    1    diag
    3      0.319D-02      0.143D-02       -40.21516810     52.670315    0.00182   -0.00125   -0.00063    2    diag
    4      0.857D-03      0.357D-03       -40.21548633     52.615368    0.00161   -0.00111   -0.00057    3    diag
    5      0.328D-03      0.463D-04       -40.21549180     52.617522    0.00158   -0.00110   -0.00056    4    diag
    6      0.573D-04      0.375D-05       -40.21549184     52.617666    0.00158   -0.00109   -0.00056    5    diag
    7      0.870D-05      0.302D-06       -40.21549184     52.617626    0.00158   -0.00109   -0.00056    6    diag
    8      0.973D-06      0.227D-07       -40.21549184     52.617628    0.00158   -0.00109   -0.00056    0    orth

 Final occupancy:   5

 !RHF STATE 1.1 Energy                -40.215491837346
 Nuclear energy                        13.68681606
 One-electron energy                  -80.21112183
 Two-electron energy                   26.30881393
 Virial quotient                       -0.99832336
 !RHF STATE 1.1 Dipole moment           0.00158091    -0.00109391    -0.00055644
 Dipole moment /Debye                   0.00401802    -0.00278027    -0.00141423

 Orbital energies:

         1.1          2.1          3.1          4.1          5.1          6.1          7.1
    -11.196270    -0.950712    -0.551938    -0.550004    -0.547823     0.051778     0.066094

 HOMO      5.1    -0.547823 =     -14.9070eV
 LUMO      6.1     0.051778 =       1.4089eV
 LUMO-HOMO         0.599601 =      16.3160eV


 **********************************************************************************************************************************
 DATASETS  * FILE   NREC   LENGTH (MB)   RECORD NAMES
              1      19     1790.36       500      610      700      900      950      970     1000      129      960     1100   
                                          VAR    BASINP    GEOM    SYMINP    ZMAT    AOBASIS   BASIS     P2S    ABASIS      S 
                                         1400     1410     1200     1210     1080     1600     1650     1300     1700   
                                           T        V       H0       H01     AOSYM     SMH    MOLCAS    ERIS     OPER   

              2       7        8.14       700     1000      520     2100     7360     7350     2101   
                                         GEOM     BASIS   MCVARS     RHF    F12ABS    EF12      RHF  

 PROGRAMS   *        TOTAL        HF       INT   CCSD(T)        HF       INT
 CPU TIMES  *       347.87     20.68      0.06    285.99     25.37     15.64
 REAL TIME  *       412.68 SEC
 DISK USED  *         4.99 GB      
 **********************************************************************************************************************************
 SETTING E_HF_A         =       -40.21549184  AU                              


 PROGRAM * CCSD (Closed-shell coupled cluster)     Authors: C. Hampel, H.-J. Werner, 1991, M. Deegan, P.J. Knowles, 1992

                                  CCSD-F12 implementation by  H.-J. Werner, 2007

                   Density fitting integral evaluation by F.R. Manby, 2003,2007, G. Knizia, 2010

 Basis set CC-PVTZ/JKFIT generated.      Number of basis functions:   338 
 Basis set CC-PVTZ-F12/OPTRI generated.  Number of basis functions:   396 
 Basis set AUG-CC-PVTZ/MP2FIT generated. Number of basis functions:   488 

 Convergence thresholds:  THRVAR = 1.00D-08  THRDEN = 1.00D-08

 CCSD(T)     terms to be evaluated (factor= 1.000)


 Number of core orbitals:           1 (   1 )
 Number of closed-shell orbitals:   4 (   4 )
 Number of external orbitals:     209 ( 209 )

 Molecular orbitals read from record     2101.2  Type=RHF/CANONICAL (state 1.1)

 MP2-F12 correlation treatment (H.-J. Werner, 2006)
 ==================================================

 Using MP2-F12 with ansatz 3C(FIX)

 Using projected zeroth-order Hamiltonian (+Z)

 FOCKRIB=T FOCKRIC=T FOCKRIP=T CABSP=T CABSA=T CABSK=T CABSF=T GBC=F EBC=F DMAT=T NOFIK=T NOPAO=1 SOLVE=-1  USEPAO=0
 EXCH_A= T EXCH_B= F EXCH_C= F EXCH_P= F
 
 Geminal basis:    OPTFULL  GEM_TYPE=SLATER  BETA=1.0  NGEM=6

 Optimizing Gaussian exponents for each gem_beta

 Geminal optimization for beta= 1.0000
 Weight function:   m=0, omega= 1.4646

 Augmented Hessian optimization of geminal fit. Trust ratio= 0.40000
 Convergence reached after   2 iterations. Final gradient= 8.26D-16, Step= 4.26D-06, Delta= 1.28D-09
 
 Alpha:                 0.19532     0.81920     2.85917     9.50073    35.69989   197.79328
 Coeff:                 0.27070     0.30552     0.18297     0.10986     0.06810     0.04224
 

 All pairs explicitly correlated. Number of r12-pairs:           10

 Excluding core orbitals from MO domains
 
 AO(A)-basis ORBITAL           loaded. Number of functions:     214
 RI(R)-basis CC-PVTZ-F12/OPTRI loaded. Number of functions:     396
 DF-basis CC-PVTZ/JKFIT        loaded. Number of functions:     338

 Screening thresholds:   THRAO=  1.00D-10  THRMO=  1.00D-09  THRPROD=  1.00D-09
                         THRSW=  1.00D-05  THROV=  1.00D-12  THRAOF12=   1.00D-08

 CPU time for Fock operators                      2.69 sec
 
 Construction of ABS:
 Smallest eigenvalue of S          3.91E-04  (threshold= 1.00E-08)
 Ratio eigmin/eigmax               5.03E-05  (threshold= 1.00E-09)
 Smallest eigenvalue of S kept     3.91E-04  (threshold= 3.91E-04, 0 functions deleted, 396 kept)
 
 Construction of CABS:
 Smallest eigenvalue of S          8.37E-07  (threshold= 1.00E-08)
 Ratio eigmin/eigmax               8.37E-07  (threshold= 1.00E-09)
 Smallest eigenvalue of S kept     8.37E-07  (threshold= 8.37E-07, 0 functions deleted, 396 kept)
 
 CPU time for CABS singles                        0.11 sec

 CABS-singles contribution of  -0.00063625 patched into reference energy.
 New reference energy         -40.21612809
 
 AO(A)-basis ORBITAL           loaded. Number of functions:     214
 RI(R)-basis CC-PVTZ-F12/OPTRI loaded. Number of functions:     396
 DF-basis AUG-CC-PVTZ/MP2FIT   loaded. Number of functions:     488

 Screening thresholds:   THRAO=  1.00D-10  THRMO=  1.00D-09  THRPROD=  1.00D-09
                         THRSW=  1.00D-05  THROV=  1.00D-12  THRAOF12=   1.00D-08

 CPU time for 3-index integral evaluation         5.77 sec
 CPU time for first  half transformation          0.39 sec ( 6602.2 MFLOP/sec)
 CPU time for second half transformation          0.03 sec (  974.7 MFLOP/sec)
 CPU time for fitting                             0.04 sec (29768.0 MFLOP/sec)
 CPU time for tilde quantities                    0.04 sec (39722.4 MFLOP/sec)
 CPU time for assembly                            0.23 sec (34678.6 MFLOP/sec)
 CPU time for tranop_f12                          0.26 sec (36852.4 MFLOP/sec)
 CPU time for f12 integrals (total)               7.22 sec, Elapsed time:      7.68 sec
 CPU time for f12 matrices (total)                0.08 sec, Elapsed time:      0.12 sec

 Diagonal F12 approximation with fixed coefficients:  TSING= 0.500,  TTRIP= 0.250 (scaled by -1/beta)

 DF-MP2-F12 energy corrections:
 ==============================
 Approx.                                    Singlet             Triplet             Total
 DF-MP2-F12/3*C(DX,FIX)                -0.016290530755     -0.001140123152     -0.017430653907
 DF-MP2-F12/3*C(FIX)                   -0.015929949530     -0.001150010865     -0.017079960396
 DF-MP2-F12/3C(FIX)                    -0.015861142744     -0.001157117949     -0.017018260693

 DF-MP2-F12 correlation energies:
 ================================
 Approx.                                    Singlet             Triplet             Ecorr            Total Energy
 DF-MP2                                -0.145611568257     -0.055804553814     -0.201416122071    -40.417544208997
 DF-MP2-F12/3*C(DX,FIX)                -0.161902099012     -0.056944676966     -0.218846775977    -40.434974862903
 DF-MP2-F12/3*C(FIX)                   -0.161541517787     -0.056954564679     -0.218496082466    -40.434624169392
 DF-MP2-F12/3C(FIX)                    -0.161472711000     -0.056961671764     -0.218434382764    -40.434562469690

 SCS-DF-MP2 energies (F_SING= 1.20000  F_TRIP= 0.62222  F_PARALLEL= 0.33333):
 ============================================================================
 SCS-DF-MP2                            -0.209456715392    -40.425584802318
 SCS-DF-MP2-F12/3*C(DX,FIX)            -0.229714762259    -40.445842849185
 SCS-DF-MP2-F12/3*C(FIX)               -0.229288217145    -40.445416304071
 SCS-DF-MP2-F12/3C(FIX)                -0.229210071187    -40.445338158113
 Symmetry transformation completed.

 Number of N-1 electron functions:               4
 Number of N-2 electron functions:              10
 Number of singly external CSFs:               836
 Number of doubly external CSFs:            349866
 Total number of CSFs:                      350703

 Length of J-op  integral file:              53.89 MB
 Length of K-op  integral file:              87.81 MB
 Length of 3-ext integral record:             0.00 MB

 Memory could be reduced to 60.96 Mwords without degradation in triples

 Integral transformation finished. Total CPU:   5.62 sec, npass=  1  Memory used:  26.32 MW

 Reference energy:                    -40.21612809

 Adding F12 terms to K(Cij), methodcc=6,  factor= 1.0

 ITER.      SQ.NORM     CORR.ENERGY   TOTAL ENERGY   ENERGY CHANGE        DEN1      VAR(S)    VAR(P)  DIIS     TIME  TIME/IT
   1      1.06960459    -0.21651932   -40.43264741    -0.01506841    -0.00954312  0.62D-03  0.94D-03  1  1    19.58     3.86
   2      1.07445932    -0.21733524   -40.43346333    -0.00081592    -0.00516262  0.14D-04  0.90D-04  2  2    23.45     4.02
   3      1.07598069    -0.21744662   -40.43357471    -0.00011138    -0.00108940  0.20D-05  0.57D-05  3  3    27.31     4.07
   4      1.07634997    -0.21746116   -40.43358925    -0.00001454    -0.00020083  0.12D-06  0.31D-06  4  4    31.15     4.10
   5      1.07640183    -0.21746079   -40.43358888     0.00000037    -0.00000932  0.77D-08  0.15D-07  5  5    35.01     4.11
   6      1.07640813    -0.21745953   -40.43358762     0.00000126    -0.00000296  0.31D-09  0.83D-09  6  6    38.88     4.13
   7      1.07640887    -0.21745947   -40.43358756     0.00000006    -0.00000041  0.19D-10  0.60D-10  6  1    42.75     4.14
   8      1.07640889    -0.21745949   -40.43358758    -0.00000002     0.00000004  0.25D-11  0.53D-11  6  4    46.60     4.14
   9      1.07640891    -0.21745950   -40.43358759    -0.00000001     0.00000003  0.22D-12  0.28D-12  6  2    50.45     4.15
  10      1.07640893    -0.21745950   -40.43358759     0.00000000    -0.00000001  0.24D-13  0.29D-13  6  3    54.34     4.15
  11      1.07640893    -0.21745950   -40.43358758     0.00000000    -0.00000000  0.20D-14  0.28D-14  6  5    58.18     4.15

 Norm of t1 vector:      0.03260957      S-energy:     0.00000000      T1 diagnostic:  0.00815239
                                                                       D1 diagnostic:  0.01307001

 Adding energy correction from Wij-K(Fij), methodcc=6  factor= 1.0
 
  CCSD correlation energy              -0.217459497503
  MP2-F12 correction (uncoupled)       -0.016719377875
  C*T doubles correction               -0.000290648998
  f12b correction                       0.003526047631


 Total CPU time for triples:     21.73 sec

  Ecorr(MP2)                           -0.201450909590
  Ecorr(MP2-F12)                       -0.218469170283
  Scale factor for triples energy       1.084478450496


 RESULTS
 =======

  Reference energy                    -40.215491837346
  F12 singles correction               -0.000636249580

 F12 singles corrections added to reference energy

  New reference energy                -40.216128086926

  F12a singlet correction              -0.015865404328
  F12a triplet correction              -0.001144622546
  F12a total correction                -0.017010026873

 F12a corrections for ansatz F12/3C(FIX) added to CCSD energy
 
  CCSD-F12a singlet pair energy        -0.179253507732
  CCSD-F12a triplet pair energy        -0.055216018502
  CCSD-F12a correlation energy         -0.234469524377

  Triples (T) contribution (scaled)    -0.006988231865
  Total correlation energy             -0.241457756241

  CCSD-F12a total energy              -40.450597611303
  CCSD[T]-F12a energy                 -40.457827307532
  CCSD-T-F12a energy                  -40.457512466485
 !CCSD(T)-F12a total energy           -40.457585843167

 F12b corrections for ansatz F12/3C(FIX) added to CCSD(T)-F12a energy

  CCSD-F12b singlet pair energy        -0.175882317419
  CCSD-F12b triplet pair energy        -0.055061161184
  CCSD-F12b correlation energy         -0.230943476746

  Triples (T) contribution (scaled)    -0.006988231865
  Total correlation energy             -0.237931708610

  CCSD-F12b total energy              -40.447071563672
  CCSD[T]-F12b energy                 -40.454301259901
  CCSD-T-F12b energy                  -40.453986418854
 !CCSD(T)-F12b total energy           -40.454059795536

 Timing summary (sec):

 STEP                 CPU(USER)    SYS     CPU(TOT)    WALL
 Transformation          5.66      0.60      6.26     12.76
 CCSD iterations        42.26      3.43     45.69     45.79
 Triples                21.73      0.36     22.09     22.09
 MP2-F12                10.27      0.41     10.68     11.18
 F12b energy             3.38      0.25      3.63      3.64

 Program statistics:

 Available memory in ccsd:              2999999786
 Min. memory needed in ccsd:               1609972
 Max. memory used in ccsd:                 1864434
 Max. memory used in cckext:               1252381 (12 integral passes)



 **********************************************************************************************************************************
 DATASETS  * FILE   NREC   LENGTH (MB)   RECORD NAMES
              1      20     1943.37       500      610      700      900      950      970     1000      129      960     1100   
                                          VAR    BASINP    GEOM    SYMINP    ZMAT    AOBASIS   BASIS     P2S    ABASIS      S 
                                         1400     1410     1200     1210     1080     1600     1650     1300     1700     1380   
                                           T        V       H0       H01     AOSYM     SMH    MOLCAS    ERIS     OPER     JKOP   

              2       7        8.14       700     1000      520     2100     7360     7350     2101   
                                         GEOM     BASIS   MCVARS     RHF    F12ABS    EF12      RHF  

 PROGRAMS   *        TOTAL   CCSD(T)        HF       INT   CCSD(T)        HF       INT
 CPU TIMES  *       431.21     83.34     20.68      0.06    285.99     25.37     15.64
 REAL TIME  *       508.28 SEC
 DISK USED  *         4.99 GB      
 **********************************************************************************************************************************
 SETTING E_F12_A(1)     =       -40.45758584  AU                              
 SETTING E_F12_A(2)     =       -40.45405980  AU                              

 Dummy atoms: C1  H1  H2  H3  H4


 Recomputing one-electron integrals since nuclear charges changed


 PROGRAM * SEWARD (Integral evaluation for generally contracted gaussian basis sets)     Author: Roland Lindh, 1990

 Geometry written to block  1 of record 700


 Point group  C1  



 ATOMIC COORDINATES

 NR  ATOM    CHARGE       X              Y              Z

   1  C1      0.00   -6.193010455    2.801518980    2.403542658
   2  H1      0.00   -4.656285171    1.699997622    3.119937832
   3  H2      0.00   -5.973046335    4.726205038    2.982932688
   4  H3      0.00   -7.940251230    2.077186956    3.118237078
   5  H4      0.00   -6.176569838    2.685300823    0.384937212
   6  O1      8.00  -11.361600379   -2.507477595    1.791460366
   7  H5      1.00   -9.723585774   -3.405286476    1.799586188
   8  H6      1.00  -12.627338937   -3.816112936    1.666171524

 Bond lengths in Bohr (Angstrom)

 1-2  2.021904040  1-3  2.022002335  1-4  2.021953343  1-5  2.022015060  6-7  1.867945037
     ( 1.069945541)     ( 1.069997556)     ( 1.069971630)     ( 1.070004290)     ( 0.988473945)

 6-8  1.824915847
     ( 0.965703878)

 Bond angles

  2-1-3  109.53398059   2-1-4  109.65604535   2-1-5  108.43490854   3-1-4  109.49436728

  3-1-5  109.86987750   4-1-5  109.83468330   7-6-8  105.29843553

 NUCLEAR CHARGE:                   10
 NUMBER OF PRIMITIVE AOS:         270
 NUMBER OF SYMMETRY AOS:          246
 NUMBER OF CONTRACTIONS:          214   ( 214A   )
 NUMBER OF CORE ORBITALS:           1   (   1A   )
 NUMBER OF VALENCE ORBITALS:        6   (   6A   )

 MOLECULE CHANGED: INITIALIZING OCCUPATION AND DUMP RECORDS


 NUCLEAR REPULSION ENERGY    9.00717880


 Eigenvalues of metric

         1 0.737E-04 0.171E-03 0.304E-03 0.323E-03 0.338E-03 0.402E-03 0.544E-03 0.563E-03


 Contracted 2-electron integrals neglected if value below      1.0D-19

 OPERATOR DM      FOR CENTER  0  COORDINATES:    0.000000    0.000000    0.000000


 **********************************************************************************************************************************
 DATASETS  * FILE   NREC   LENGTH (MB)   RECORD NAMES
              1      19     1790.36       500      610      700      900      950      970     1000      129      960     1100   
                                          VAR    BASINP    GEOM    SYMINP    ZMAT    AOBASIS   BASIS     P2S    ABASIS      S 
                                         1400     1410     1200     1210     1080     1600     1650     1300     1700   
                                           T        V       H0       H01     AOSYM     SMH    MOLCAS    ERIS     OPER   

              2       7        8.14       700     1000      520     2100     7360     7350     2101   
                                         GEOM     BASIS   MCVARS     RHF    F12ABS    EF12      RHF  

 PROGRAMS   *        TOTAL       INT   CCSD(T)        HF       INT   CCSD(T)        HF       INT
 CPU TIMES  *       431.28      0.07     83.34     20.68      0.06    285.99     25.37     15.64
 REAL TIME  *       508.69 SEC
 DISK USED  *         4.99 GB      
 **********************************************************************************************************************************


 PROGRAM * RHF-SCF (CLOSED SHELL)       Authors: W. Meyer, H.-J. Werner


 NUMBER OF ELECTRONS:       5+    5-    SPACE SYMMETRY=1    SPIN SYMMETRY: Singlet 
 CONVERGENCE THRESHOLDS:    1.00E-04 (Density)    1.00E-09 (Energy)
 MAX. NUMBER OF ITERATIONS:       60
 INTERPOLATION TYPE:            DIIS
 INTERPOLATION STEPS:              2 (START)      1 (STEP)
 LEVEL SHIFTS:                  0.00 (CLOSED)  0.00 (OPEN) 



 Orbital guess generated from atomic densities. Full valence occupancy:    7

 Molecular orbital dump at record        2102.2

 Initial occupancy:   5

 ITERATION    DDIFF          GRAD             ENERGY        2-EL.EN.            DIPOLE MOMENTS         DIIS   ORB.
    1      0.000D+00      0.000D+00       -76.02440199     77.417920    0.19882   -1.13143   -0.05969    0    start
    2      0.000D+00      0.672D-02       -76.05122131     73.770635    0.10986   -0.66345   -0.03526    1    diag
    3      0.462D-02      0.426D-02       -76.06272955     75.389099    0.13042   -0.77986   -0.04140    2    diag
    4      0.162D-02      0.401D-03       -76.06292464     75.296762    0.12826   -0.77540   -0.04121    3    diag
    5      0.231D-03      0.112D-03       -76.06294563     75.311251    0.12738   -0.77374   -0.04114    4    diag
    6      0.807D-04      0.223D-04       -76.06294699     75.310182    0.12711   -0.77332   -0.04113    5    diag
    7      0.230D-04      0.451D-05       -76.06294706     75.310335    0.12703   -0.77318   -0.04112    6    diag
    8      0.528D-05      0.868D-06       -76.06294706     75.310322    0.12701   -0.77314   -0.04112    7    diag
    9      0.985D-06      0.115D-06       -76.06294706     75.310313    0.12701   -0.77313   -0.04112    8    diag
   10      0.165D-06      0.259D-07       -76.06294706     75.310318    0.12701   -0.77313   -0.04112    0    orth

 Final occupancy:   5

 !RHF STATE 1.1 Energy                -76.062947059211
 Nuclear energy                         9.00717880
 One-electron energy                 -122.72528473
 Two-electron energy                   37.65515888
 Virial quotient                       -1.00190007
 !RHF STATE 1.1 Dipole moment           0.12701145    -0.77313205    -0.04111664
 Dipole moment /Debye                   0.32280977    -1.96497696    -0.10450122

 Orbital energies:

         1.1          2.1          3.1          4.1          5.1          6.1          7.1
    -20.567954    -1.342520    -0.708661    -0.579649    -0.508699     0.044239     0.060876

 HOMO      5.1    -0.508699 =     -13.8424eV
 LUMO      6.1     0.044239 =       1.2038eV
 LUMO-HOMO         0.552938 =      15.0462eV


 **********************************************************************************************************************************
 DATASETS  * FILE   NREC   LENGTH (MB)   RECORD NAMES
              1      19     1790.36       500      610      700      900      950      970     1000      129      960     1100   
                                          VAR    BASINP    GEOM    SYMINP    ZMAT    AOBASIS   BASIS     P2S    ABASIS      S 
                                         1400     1410     1200     1210     1080     1600     1650     1300     1700   
                                           T        V       H0       H01     AOSYM     SMH    MOLCAS    ERIS     OPER   

              2       8       12.47       700     1000      520     2100     7360     7350     2101     2102   
                                         GEOM     BASIS   MCVARS     RHF    F12ABS    EF12      RHF      RHF  

 PROGRAMS   *        TOTAL        HF       INT   CCSD(T)        HF       INT   CCSD(T)        HF       INT
 CPU TIMES  *       456.52     25.24      0.07     83.34     20.68      0.06    285.99     25.37     15.64
 REAL TIME  *       550.09 SEC
 DISK USED  *         4.99 GB      
 **********************************************************************************************************************************
 SETTING E_HF_B         =       -76.06294706  AU                              


 PROGRAM * CCSD (Closed-shell coupled cluster)     Authors: C. Hampel, H.-J. Werner, 1991, M. Deegan, P.J. Knowles, 1992

                                  CCSD-F12 implementation by  H.-J. Werner, 2007

                   Density fitting integral evaluation by F.R. Manby, 2003,2007, G. Knizia, 2010

 Basis set CC-PVTZ/JKFIT generated.      Number of basis functions:   338 
 Basis set CC-PVTZ-F12/OPTRI generated.  Number of basis functions:   396 
 Basis set AUG-CC-PVTZ/MP2FIT generated. Number of basis functions:   488 

 Convergence thresholds:  THRVAR = 1.00D-08  THRDEN = 1.00D-08

 CCSD(T)     terms to be evaluated (factor= 1.000)


 Number of core orbitals:           1 (   1 )
 Number of closed-shell orbitals:   4 (   4 )
 Number of external orbitals:     209 ( 209 )

 Molecular orbitals read from record     2102.2  Type=RHF/CANONICAL (state 1.1)

 MP2-F12 correlation treatment (H.-J. Werner, 2006)
 ==================================================

 Using MP2-F12 with ansatz 3C(FIX)

 Using projected zeroth-order Hamiltonian (+Z)

 FOCKRIB=T FOCKRIC=T FOCKRIP=T CABSP=T CABSA=T CABSK=T CABSF=T GBC=F EBC=F DMAT=T NOFIK=T NOPAO=1 SOLVE=-1  USEPAO=0
 EXCH_A= T EXCH_B= F EXCH_C= F EXCH_P= F
 
 Geminal basis:    OPTFULL  GEM_TYPE=SLATER  BETA=1.0  NGEM=6

 Optimizing Gaussian exponents for each gem_beta

 Geminal optimization for beta= 1.0000
 Weight function:   m=0, omega= 1.4646

 Augmented Hessian optimization of geminal fit. Trust ratio= 0.40000
 Convergence reached after   2 iterations. Final gradient= 8.26D-16, Step= 4.26D-06, Delta= 1.28D-09
 
 Alpha:                 0.19532     0.81920     2.85917     9.50073    35.69989   197.79328
 Coeff:                 0.27070     0.30552     0.18297     0.10986     0.06810     0.04224
 

 All pairs explicitly correlated. Number of r12-pairs:           10

 Excluding core orbitals from MO domains
 
 AO(A)-basis ORBITAL           loaded. Number of functions:     214
 RI(R)-basis CC-PVTZ-F12/OPTRI loaded. Number of functions:     396
 DF-basis CC-PVTZ/JKFIT        loaded. Number of functions:     338

 Screening thresholds:   THRAO=  1.00D-10  THRMO=  1.00D-09  THRPROD=  1.00D-09
                         THRSW=  1.00D-05  THROV=  1.00D-12  THRAOF12=   1.00D-08

 CPU time for Fock operators                      2.67 sec
 
 Construction of ABS:
 Smallest eigenvalue of S          3.91E-04  (threshold= 1.00E-08)
 Ratio eigmin/eigmax               5.03E-05  (threshold= 1.00E-09)
 Smallest eigenvalue of S kept     3.91E-04  (threshold= 3.91E-04, 0 functions deleted, 396 kept)
 
 Construction of CABS:
 Smallest eigenvalue of S          8.37E-07  (threshold= 1.00E-08)
 Ratio eigmin/eigmax               8.37E-07  (threshold= 1.00E-09)
 Smallest eigenvalue of S kept     8.37E-07  (threshold= 8.37E-07, 0 functions deleted, 396 kept)
 
 CPU time for CABS singles                        0.11 sec

 CABS-singles contribution of  -0.00096962 patched into reference energy.
 New reference energy         -76.06391668
 
 AO(A)-basis ORBITAL           loaded. Number of functions:     214
 RI(R)-basis CC-PVTZ-F12/OPTRI loaded. Number of functions:     396
 DF-basis AUG-CC-PVTZ/MP2FIT   loaded. Number of functions:     488

 Screening thresholds:   THRAO=  1.00D-10  THRMO=  1.00D-09  THRPROD=  1.00D-09
                         THRSW=  1.00D-05  THROV=  1.00D-12  THRAOF12=   1.00D-08

 CPU time for 3-index integral evaluation         5.68 sec
 CPU time for first  half transformation          0.48 sec ( 5364.3 MFLOP/sec)
 CPU time for second half transformation          0.02 sec ( 1462.0 MFLOP/sec)
 CPU time for fitting                             0.03 sec (39690.7 MFLOP/sec)
 CPU time for tilde quantities                    0.05 sec (31777.9 MFLOP/sec)
 CPU time for assembly                            0.23 sec (34678.6 MFLOP/sec)
 CPU time for tranop_f12                          0.26 sec (36852.4 MFLOP/sec)
 CPU time for f12 integrals (total)               7.21 sec, Elapsed time:      7.71 sec
 CPU time for f12 matrices (total)                0.09 sec, Elapsed time:      0.09 sec

 Diagonal F12 approximation with fixed coefficients:  TSING= 0.500,  TTRIP= 0.250 (scaled by -1/beta)

 DF-MP2-F12 energy corrections:
 ==============================
 Approx.                                    Singlet             Triplet             Total
 DF-MP2-F12/3*C(DX,FIX)                -0.025138614916     -0.003000326742     -0.028138941658
 DF-MP2-F12/3*C(FIX)                   -0.023365273331     -0.002714120459     -0.026079393790
 DF-MP2-F12/3C(FIX)                    -0.023291076355     -0.002810744946     -0.026101821300

 DF-MP2-F12 correlation energies:
 ================================
 Approx.                                    Singlet             Triplet             Ecorr            Total Energy
 DF-MP2                                -0.174838300646     -0.099707490190     -0.274545790837    -76.338462473147
 DF-MP2-F12/3*C(DX,FIX)                -0.199976915563     -0.102707816933     -0.302684732495    -76.366601414805
 DF-MP2-F12/3*C(FIX)                   -0.198203573977     -0.102421610650     -0.300625184627    -76.364541866937
 DF-MP2-F12/3C(FIX)                    -0.198129377001     -0.102518235136     -0.300647612137    -76.364564294447

 SCS-DF-MP2 energies (F_SING= 1.20000  F_TRIP= 0.62222  F_PARALLEL= 0.33333):
 ============================================================================
 SCS-DF-MP2                            -0.271846176894    -76.335762859204
 SCS-DF-MP2-F12/3*C(DX,FIX)            -0.303879384766    -76.367796067076
 SCS-DF-MP2-F12/3*C(FIX)               -0.301573290954    -76.365489973264
 SCS-DF-MP2-F12/3C(FIX)                -0.301544376486    -76.365461058796
 Symmetry transformation completed.

 Number of N-1 electron functions:               4
 Number of N-2 electron functions:              10
 Number of singly external CSFs:               836
 Number of doubly external CSFs:            349866
 Total number of CSFs:                      350703

 Length of J-op  integral file:              53.89 MB
 Length of K-op  integral file:              87.81 MB
 Length of 3-ext integral record:             0.00 MB

 Memory could be reduced to 60.96 Mwords without degradation in triples

 Integral transformation finished. Total CPU:   5.57 sec, npass=  1  Memory used:  26.32 MW

 Reference energy:                    -76.06391668

 Adding F12 terms to K(Cij), methodcc=6,  factor= 1.0

 ITER.      SQ.NORM     CORR.ENERGY   TOTAL ENERGY   ENERGY CHANGE        DEN1      VAR(S)    VAR(P)  DIIS     TIME  TIME/IT
   1      1.06259291    -0.27469073   -76.33860741    -0.00010274     0.00587473  0.76D-03  0.10D-02  1  1    19.47     3.86
   2      1.06597894    -0.27444097   -76.33835766     0.00024975    -0.00467172  0.14D-04  0.11D-03  2  2    23.31     4.01
   3      1.06719171    -0.27457559   -76.33849228    -0.00013462    -0.00082092  0.92D-05  0.72D-05  3  3    27.17     4.06
   4      1.06774743    -0.27459790   -76.33851459    -0.00002231    -0.00036202  0.45D-06  0.57D-06  4  4    31.03     4.09
   5      1.06784239    -0.27459633   -76.33851301     0.00000158    -0.00002092  0.13D-06  0.36D-07  5  5    34.89     4.11
   6      1.06786835    -0.27459498   -76.33851167     0.00000134    -0.00000433  0.12D-07  0.37D-08  6  6    38.73     4.12
   7      1.06787506    -0.27459459   -76.33851128     0.00000039    -0.00000152  0.10D-08  0.31D-09  6  1    42.59     4.13
   8      1.06787656    -0.27459465   -76.33851133    -0.00000005    -0.00000002  0.97D-10  0.40D-10  6  2    46.47     4.13
   9      1.06787692    -0.27459465   -76.33851133    -0.00000000     0.00000005  0.77D-11  0.70D-11  6  4    50.35     4.14
  10      1.06787703    -0.27459465   -76.33851133     0.00000000    -0.00000000  0.14D-11  0.51D-12  6  3    54.23     4.14

 Norm of t1 vector:      0.03621700      S-energy:     0.00000001      T1 diagnostic:  0.00905425
                                                                       D1 diagnostic:  0.01816655

 Adding energy correction from Wij-K(Fij), methodcc=6  factor= 1.0
 
  CCSD correlation energy              -0.274594647802
  MP2-F12 correction (uncoupled)       -0.024986802931
  C*T doubles correction               -0.000832406252
  f12b correction                       0.004280102920

 Total CPU time for triples:     21.73 sec

  Ecorr(MP2)                           -0.274587986519
  Ecorr(MP2-F12)                       -0.300689807819
  Scale factor for triples energy       1.095058132845


 RESULTS
 =======

  Reference energy                    -76.062947059212
  F12 singles correction               -0.000969623098

 F12 singles corrections added to reference energy

  New reference energy                -76.063916682310

  F12a singlet correction              -0.023114838826
  F12a triplet correction              -0.002704370357
  F12a total correction                -0.025819209183

 F12a corrections for ansatz F12/3C(FIX) added to CCSD energy
 
  CCSD-F12a singlet pair energy        -0.209575607502
  CCSD-F12a triplet pair energy        -0.090838256479
  CCSD-F12a correlation energy         -0.300413856985

  Triples (T) contribution (scaled)    -0.009756113714
  Total correlation energy             -0.310169970699

  CCSD-F12a total energy              -76.364330539295
  CCSD[T]-F12a energy                 -76.374423031064
  CCSD-T-F12a energy                  -76.373939574459
 !CCSD(T)-F12a total energy           -76.374086653009

 F12b corrections for ansatz F12/3C(FIX) added to CCSD(T)-F12a energy

  CCSD-F12b singlet pair energy        -0.205605937341
  CCSD-F12b triplet pair energy        -0.090527823719
  CCSD-F12b correlation energy         -0.296133754065

  Triples (T) contribution (scaled)    -0.009756113714
  Total correlation energy             -0.305889867779

  CCSD-F12b total energy              -76.360050436375
  CCSD[T]-F12b energy                 -76.370142928143
  CCSD-T-F12b energy                  -76.369659471539
 !CCSD(T)-F12b total energy           -76.369806550089

 Timing summary (sec):

 STEP                 CPU(USER)    SYS     CPU(TOT)    WALL
 Transformation          5.60      0.64      6.24      6.28
 CCSD iterations        38.41      3.07     41.48     41.76
 Triples                21.73      0.35     22.08     22.09
 MP2-F12                10.23      0.44     10.67     24.85
 F12b energy             3.37      0.27      3.64      3.63

 Program statistics:

 Available memory in ccsd:              2999999786
 Min. memory needed in ccsd:               1609972
 Max. memory used in ccsd:                 1864434
 Max. memory used in cckext:               1252381 (11 integral passes)



 **********************************************************************************************************************************
 DATASETS  * FILE   NREC   LENGTH (MB)   RECORD NAMES
              1      20     1943.37       500      610      700      900      950      970     1000      129      960     1100   
                                          VAR    BASINP    GEOM    SYMINP    ZMAT    AOBASIS   BASIS     P2S    ABASIS      S 
                                         1400     1410     1200     1210     1080     1600     1650     1300     1700     1380   
                                           T        V       H0       H01     AOSYM     SMH    MOLCAS    ERIS     OPER     JKOP   

              2       8       12.47       700     1000      520     2100     7360     7350     2101     2102   
                                         GEOM     BASIS   MCVARS     RHF    F12ABS    EF12      RHF      RHF  

 PROGRAMS   *        TOTAL   CCSD(T)        HF       INT   CCSD(T)        HF       INT   CCSD(T)        HF       INT
 CPU TIMES  *       535.90     79.38     25.24      0.07     83.34     20.68      0.06    285.99     25.37     15.64
 REAL TIME  *       648.82 SEC
 DISK USED  *         4.99 GB      
 **********************************************************************************************************************************
 SETTING E_F12_B(1)     =       -76.37408665  AU                              
 SETTING E_F12_B(2)     =       -76.36980655  AU                              
 SETTING E_INT_HF       =    -9.18486150D-05  AU                              
 SETTING E_INT_F12(1)   =        -0.00071342  AU                              
 SETTING E_INT_F12(2)   =        -0.00070750  AU                              
 E_INT_HF         =        -0.00009185 AU
 E_INT_F12(1:2)   = [      -0.00071342    -0.00070750] AU

 CCSD(T)-F12/cc-pVTZ-F12 energy=    -76.369806550089

     CCSD(T)-F12        HF-SCF       CCSD(T)-F12        HF-SCF       CCSD(T)-F12        HF-SCF  
    -76.36980655    -76.06294706    -40.45405980    -40.21549184   -116.82457385   -116.27853075
 **********************************************************************************************************************************
 Molpro calculation terminated
 Variable memory released
