
 Primary working directories    : /net/scratch/people/plgsirous
 Secondary working directories  : /net/scratch/people/plgsirous
 Wavefunction directory         : /net/people/plgsirous/wfu/
 Main file repository           : /net/scratch/people/plgsirous/

 SHA1      : 
 NAME      : 
 ARCHNAME  : linux/x86_64
 FC        : /net/software/local/intel/impi/2018.1.163/bin64/mpiifort
 BLASLIB   : -L/net/software/local/intel/compilers_and_libraries_2018.1.163/linux/mkl/lib/intel64 -lmkl_scalapack_ilp64 -lmkl_intel_ilp64 -lmkl_intel_thread -lmkl_core -lmkl_blacs_intelmpi_ilp64 -liomp5 -lpthread -lm -ldl
 id        : pl

 Nodes     nprocs
 p1396        1

 Using customized tuning parameters: mindgm=7; mindgv=20; mindgc=1; mindgr=1; noblas=0; minvec=7
 default implementation of scratch files=df  

 memory,3000,m
 zsymel=nosym
 angstrom
 geometry={
 C1        -3.2772    1.4825     1.2719
 H1        -2.4640    0.8996     1.6510
 H2        -3.1608    2.5010     1.5785
 H3        -4.2018    1.0992     1.6501
 H4        -3.2685    1.4210     0.2037
 O1        -6.0313    0.5675     -1.1627
 H5        -6.2390    1.4455     -0.7834
 H6        -6.0657    -0.0575     -0.4122
 }
 basis=vtz-f12
 gthresh,orbital=1d-8,energy=1d-8,twoint=1.d-19
 
 
 nkerna=1
 nkernb=1
 nkernab=$nkerna+$nkernb
 
                                                                                 ! AB Dimer
 {hf,accu=1.d-8}
 E_HF_AB=energy
 core,$nkernab
 {ccsd(t)-f12,scale_trip=1,THRF12=1.d-12}
 E_F12_AB=energy
 
                                                                                 ! Monomer A Part
 
 dummy,6,7,8;
 {hf,accu=1.d-8}
 E_HF_A=energy
 core,$nkerna
 {ccsd(t)-f12,scale_trip=1,THRF12=1.d-12}
 E_F12_A=energy
 
                                                                                 ! Monomer B Part
 
 dummy,1,2,3,4,5;
 {hf,accu=1.d-8}
 E_HF_B=energy
 core,$nkernb
 {ccsd(t)-f12,scale_trip=1,THRF12=1.d-12}
 E_F12_B=energy
 
 E_int_HF = E_HF_AB-(E_HF_A+E_HF_B)
 E_int_F12 = E_F12_AB-(E_F12_A+E_F12_B)
 
 
 show,E_int_HF,E_int_F12

 Variables initialized (889), CPU time= 0.01 sec
 Commands  initialized (702), CPU time= 0.00 sec, 572 directives.
 Default parameters read. Elapsed time= 0.09 sec

 Checking input...
 Passed
1


                                         ***  PROGRAM SYSTEM MOLPRO  ***
                                       Copyright, TTI GmbH Stuttgart, 2015
                                    Version 2015.1 linked Jul  2 2018 15:03:07


 **********************************************************************************************************************************
 LABEL *                                                                                 
  64 bit serial version                                                                  DATE: 17-Jan-19          TIME: 14:53:02  
 **********************************************************************************************************************************

 SHA1:             
 **********************************************************************************************************************************
 SETTING ZSYMEL         =    NOSYM
 ZSYMEL=NOSYM
 ZUNIT=ANG
 

Geometry recognized as XYZ


 Variable memory set to 3000000000 words,  buffer space   230000 words

 SETTING BASIS          =    VTZ-F12

 THRESHOLDS:

 ZERO    =  1.00D-12  ONEINT  =  1.00D-12  TWOINT  =  1.00D-19  PREFAC  =  1.00D-14  LOCALI  =  1.00D-09  EORDER  =  1.00D-04
 ENERGY  =  1.00D-08  ETEST   =  0.00D+00  EDENS   =  0.00D+00  THRDEDEF=  1.00D-06  GRADIENT=  1.00D-02  STEP    =  1.00D-03
 ORBITAL =  1.00D-08  CIVEC   =  1.00D-05  COEFF   =  1.00D-04  PRINTCI =  5.00D-02  PUNCHCI =  9.90D+01  OPTGRAD =  3.00D-04
 OPTENERG=  1.00D-06  OPTSTEP =  3.00D-04  THRGRAD =  1.00D-10  COMPRESS=  1.00D-11  VARMIN  =  1.00D-07  VARMAX  =  1.00D-03
 THRDOUB =  0.00D+00  THRDIV  =  1.00D-05  THRRED  =  1.00D-07  THRPSP  =  1.00D+00  THRDC   =  1.00D-10  THRCS   =  1.00D-10
 THRNRM  =  1.00D-08  THREQ   =  0.00D+00  THRDE   =  1.00D+00  THRREF  =  1.00D-05  SPARFAC =  1.00D+00  THRDLP  =  1.00D-07
 THRDIA  =  1.00D-10  THRDLS  =  1.00D-07  THRGPS  =  0.00D+00  THRKEX  =  0.00D+00  THRDIS  =  2.00D-01  THRVAR  =  1.00D-10
 THRLOC  =  1.00D-06  THRGAP  =  1.00D-06  THRLOCT = -1.00D+00  THRGAPT = -1.00D+00  THRORB  =  1.00D-06  THRMLTP =  0.00D+00
 THRCPQCI=  1.00D-10  KEXTA   =  0.00D+00  THRCOARS=  0.00D+00  SYMTOL  =  1.00D-06  GRADTOL =  1.00D-06  THROVL  =  1.00D-08
 THRORTH =  1.00D-08  GRID    =  1.00D-06  GRIDMAX =  1.00D-03  DTMAX   =  0.00D+00  THROCCDE=  1.00D-01  THROCCDE=  1.00D-01


 SETTING NKERNA         =         1.00000000                                  
 SETTING NKERNB         =         1.00000000                                  
 SETTING NKERNAB        =         2.00000000                                  


 Recomputing integrals since basis changed


 Using spherical harmonics

 Library entry C      S cc-pVTZ-F12          selected for orbital group  1
 Library entry C      P cc-pVTZ-F12          selected for orbital group  1
 Library entry C      D cc-pVTZ-F12          selected for orbital group  1
 Library entry C      F cc-pVTZ-F12          selected for orbital group  1
 Library entry H      S cc-pVTZ-F12          selected for orbital group  2
 Library entry H      P cc-pVTZ-F12          selected for orbital group  2
 Library entry H      D cc-pVTZ-F12          selected for orbital group  2
 Library entry O      S cc-pVTZ-F12          selected for orbital group  3
 Library entry O      P cc-pVTZ-F12          selected for orbital group  3
 Library entry O      D cc-pVTZ-F12          selected for orbital group  3
 Library entry O      F cc-pVTZ-F12          selected for orbital group  3


 PROGRAM * SEWARD (Integral evaluation for generally contracted gaussian basis sets)     Author: Roland Lindh, 1990

 Geometry written to block  1 of record 700


 Point group  C1  



 ATOMIC COORDINATES

 NR  ATOM    CHARGE       X              Y              Z

   1  C1      6.00   -6.193010455    2.801518980    2.403542658
   2  H1      1.00   -4.656285171    1.699997622    3.119937832
   3  H2      1.00   -5.973046335    4.726205038    2.982932688
   4  H3      1.00   -7.940251230    2.077186956    3.118237078
   5  H4      1.00   -6.176569838    2.685300823    0.384937212
   6  O1      8.00  -11.397505175    1.072419576   -2.197184565
   7  H5      1.00  -11.790001291    2.731599113   -1.480411446
   8  H6      1.00  -11.462511754   -0.108659252   -0.778945109

 Bond lengths in Bohr (Angstrom)

 1-2  2.021904040  1-3  2.022002335  1-4  2.021953343  1-5  2.022015060  6-7  1.849511731
     ( 1.069945541)     ( 1.069997556)     ( 1.069971630)     ( 1.070004290)     ( 0.978719459)

 6-8  1.846774542
     ( 0.977271001)

 Bond angles

  2-1-3  109.53398059   2-1-4  109.65604535   2-1-5  108.43490854   3-1-4  109.49436728

  3-1-5  109.86987750   4-1-5  109.83468330   7-6-8  105.58293551

 NUCLEAR CHARGE:                   20
 NUMBER OF PRIMITIVE AOS:         270
 NUMBER OF SYMMETRY AOS:          246
 NUMBER OF CONTRACTIONS:          214   ( 214A   )
 NUMBER OF CORE ORBITALS:           2   (   2A   )
 NUMBER OF VALENCE ORBITALS:       14   (  14A   )


 NUCLEAR REPULSION ENERGY   36.77810311


 Eigenvalues of metric

         1 0.743E-04 0.202E-03 0.315E-03 0.331E-03 0.333E-03 0.454E-03 0.536E-03 0.563E-03


 Contracted 2-electron integrals neglected if value below      1.0D-19
 AO integral compression algorithm  1   Integral accuracy      1.0D-19

     2159.280 MB (compressed) written to integral file ( 88.6%)


 NUMBER OF SORTED TWO-ELECTRON INTEGRALS:  264626515.     BUFFER LENGTH:  32768
 NUMBER OF SEGMENTS:  17  SEGMENT LENGTH:   15999762      RECORD LENGTH: 524288

 Memory used in sort:      16.56 MW

 SORT1 READ   304636334. AND WROTE   251182541. INTEGRALS IN    726 RECORDS. CPU TIME:     3.29 SEC, REAL TIME:    10.66 SEC
 SORT2 READ   251182541. AND WROTE   264626515. INTEGRALS IN   8237 RECORDS. CPU TIME:     3.11 SEC, REAL TIME:     8.37 SEC

 FILE SIZES:   FILE 1:  2181.0 MBYTE,  FILE 4:  3045.1 MBYTE,   TOTAL:   5226.1 MBYTE

 OPERATOR DM      FOR CENTER  0  COORDINATES:    0.000000    0.000000    0.000000


 **********************************************************************************************************************************
 DATASETS  * FILE   NREC   LENGTH (MB)   RECORD NAMES
              1      19     1919.77       500      610      700      900      950      970     1000      129      960     1100   
                                          VAR    BASINP    GEOM    SYMINP    ZMAT    AOBASIS   BASIS     P2S    ABASIS      S 
                                         1400     1410     1200     1210     1080     1600     1650     1300     1700   
                                           T        V       H0       H01     AOSYM     SMH    MOLCAS    ERIS     OPER   

 PROGRAMS   *        TOTAL       INT
 CPU TIMES  *        15.78     15.66
 REAL TIME  *        33.31 SEC
 DISK USED  *         5.23 GB      
 **********************************************************************************************************************************


 PROGRAM * RHF-SCF (CLOSED SHELL)       Authors: W. Meyer, H.-J. Werner


 NUMBER OF ELECTRONS:      10+   10-    SPACE SYMMETRY=1    SPIN SYMMETRY: Singlet 
 CONVERGENCE THRESHOLDS:    1.00E-04 (Density)    1.00E-09 (Energy)
 MAX. NUMBER OF ITERATIONS:       60
 INTERPOLATION TYPE:            DIIS
 INTERPOLATION STEPS:              2 (START)      1 (STEP)
 LEVEL SHIFTS:                  0.00 (CLOSED)  0.00 (OPEN) 



 Orbital guess generated from atomic densities. Full valence occupancy:   16

 Molecular orbital dump at record        2100.2

 Initial occupancy:  10

 ITERATION    DDIFF          GRAD             ENERGY        2-EL.EN.            DIPOLE MOMENTS         DIIS   ORB.
    1      0.000D+00      0.000D+00      -116.22013528    158.971883   -0.23097    0.24288    1.09333    0    start
    2      0.000D+00      0.547D-02      -116.26407000    154.156473   -0.09709    0.14330    0.61480    1    diag
    3      0.562D-02      0.319D-02      -116.27748254    156.170176   -0.13249    0.16853    0.73385    2    diag
    4      0.182D-02      0.477D-03      -116.27814008    156.057057   -0.13121    0.16595    0.72266    3    diag
    5      0.420D-03      0.140D-03      -116.27820869    156.051675   -0.13071    0.16592    0.72197    4    diag
    6      0.157D-03      0.339D-04      -116.27821254    156.057344   -0.13041    0.16573    0.72111    5    diag
    7      0.415D-04      0.682D-05      -116.27821277    156.055623   -0.13039    0.16572    0.72110    6    diag
    8      0.111D-04      0.172D-05      -116.27821278    156.055805   -0.13036    0.16570    0.72103    7    diag
    9      0.316D-05      0.405D-06      -116.27821278    156.055778   -0.13036    0.16570    0.72101    8    diag
   10      0.668D-06      0.487D-07      -116.27821278    156.055780   -0.13036    0.16570    0.72101    0    orth

 Final occupancy:  10

 !RHF STATE 1.1 Energy               -116.278212784141
 Nuclear energy                        36.77810311
 One-electron energy                 -231.08420607
 Two-electron energy                   78.02789018
 Virial quotient                       -1.00066281
 !RHF STATE 1.1 Dipole moment          -0.13035843     0.16569767     0.72101031
 Dipole moment /Debye                  -0.33131639     0.42113390     1.83250538

 Orbital energies:

         1.1          2.1          3.1          4.1          5.1          6.1          7.1          8.1          9.1         10.1
    -20.566996   -11.199063    -1.341046    -0.953841    -0.707924    -0.578820    -0.555083    -0.553808    -0.550634    -0.506996

        11.1         12.1
      0.055893     0.070377

 HOMO     10.1    -0.506996 =     -13.7961eV
 LUMO     11.1     0.055893 =       1.5209eV
 LUMO-HOMO         0.562889 =      15.3170eV


 **********************************************************************************************************************************
 DATASETS  * FILE   NREC   LENGTH (MB)   RECORD NAMES
              1      19     1919.77       500      610      700      900      950      970     1000      129      960     1100   
                                          VAR    BASINP    GEOM    SYMINP    ZMAT    AOBASIS   BASIS     P2S    ABASIS      S 
                                         1400     1410     1200     1210     1080     1600     1650     1300     1700   
                                           T        V       H0       H01     AOSYM     SMH    MOLCAS    ERIS     OPER   

              2       4        3.81       700     1000      520     2100   
                                         GEOM     BASIS   MCVARS     RHF  

 PROGRAMS   *        TOTAL        HF       INT
 CPU TIMES  *        40.79     25.00     15.66
 REAL TIME  *        62.21 SEC
 DISK USED  *         5.23 GB      
 **********************************************************************************************************************************
 SETTING E_HF_AB        =      -116.27821278  AU                              


 PROGRAM * CCSD (Closed-shell coupled cluster)     Authors: C. Hampel, H.-J. Werner, 1991, M. Deegan, P.J. Knowles, 1992

                                  CCSD-F12 implementation by  H.-J. Werner, 2007

                   Density fitting integral evaluation by F.R. Manby, 2003,2007, G. Knizia, 2010

 Basis set CC-PVTZ/JKFIT generated.      Number of basis functions:   338 
 Basis set CC-PVTZ-F12/OPTRI generated.  Number of basis functions:   396 
 Basis set AUG-CC-PVTZ/MP2FIT generated. Number of basis functions:   488 

 Convergence thresholds:  THRVAR = 1.00D-08  THRDEN = 1.00D-08

 CCSD(T)     terms to be evaluated (factor= 1.000)


 Number of core orbitals:           2 (   2 )
 Number of closed-shell orbitals:   8 (   8 )
 Number of external orbitals:     204 ( 204 )

 Molecular orbitals read from record     2100.2  Type=RHF/CANONICAL (state 1.1)

 MP2-F12 correlation treatment (H.-J. Werner, 2006)
 ==================================================

 Using MP2-F12 with ansatz 3C(FIX)

 Using projected zeroth-order Hamiltonian (+Z)

 FOCKRIB=T FOCKRIC=T FOCKRIP=T CABSP=T CABSA=T CABSK=T CABSF=T GBC=F EBC=F DMAT=T NOFIK=T NOPAO=1 SOLVE=-1  USEPAO=0
 EXCH_A= T EXCH_B= F EXCH_C= F EXCH_P= F
 
 Geminal basis:    OPTFULL  GEM_TYPE=SLATER  BETA=1.0  NGEM=6

 Optimizing Gaussian exponents for each gem_beta

 Geminal optimization for beta= 1.0000
 Weight function:   m=0, omega= 1.4646

 Augmented Hessian optimization of geminal fit. Trust ratio= 0.40000
 Convergence reached after   2 iterations. Final gradient= 8.26D-16, Step= 4.26D-06, Delta= 1.28D-09
 
 Alpha:                 0.19532     0.81920     2.85917     9.50073    35.69989   197.79328
 Coeff:                 0.27070     0.30552     0.18297     0.10986     0.06810     0.04224
 

 All pairs explicitly correlated. Number of r12-pairs:           36

 Excluding core orbitals from MO domains
 
 AO(A)-basis ORBITAL           loaded. Number of functions:     214
 RI(R)-basis CC-PVTZ-F12/OPTRI loaded. Number of functions:     396
 DF-basis CC-PVTZ/JKFIT        loaded. Number of functions:     338

 Screening thresholds:   THRAO=  1.00D-10  THRMO=  1.00D-09  THRPROD=  1.00D-09
                         THRSW=  1.00D-05  THROV=  1.00D-12  THRAOF12=   1.00D-08

 CPU time for Fock operators                      2.80 sec
 
 Construction of ABS:
 Smallest eigenvalue of S          4.11E-04  (threshold= 1.00E-08)
 Ratio eigmin/eigmax               5.28E-05  (threshold= 1.00E-09)
 Smallest eigenvalue of S kept     4.11E-04  (threshold= 4.11E-04, 0 functions deleted, 396 kept)
 
 Construction of CABS:
 Smallest eigenvalue of S          8.20E-07  (threshold= 1.00E-08)
 Ratio eigmin/eigmax               8.20E-07  (threshold= 1.00E-09)
 Smallest eigenvalue of S kept     8.20E-07  (threshold= 8.20E-07, 0 functions deleted, 396 kept)
 
 CPU time for CABS singles                        0.11 sec

 CABS-singles contribution of  -0.00161170 patched into reference energy.
 New reference energy        -116.27982449
 
 AO(A)-basis ORBITAL           loaded. Number of functions:     214
 RI(R)-basis CC-PVTZ-F12/OPTRI loaded. Number of functions:     396
 DF-basis AUG-CC-PVTZ/MP2FIT   loaded. Number of functions:     488

 Screening thresholds:   THRAO=  1.00D-10  THRMO=  1.00D-09  THRPROD=  1.00D-09
                         THRSW=  1.00D-05  THROV=  1.00D-12  THRAOF12=   1.00D-08

 CPU time for 3-index integral evaluation         5.96 sec
 CPU time for first  half transformation          0.41 sec (12560.4 MFLOP/sec)
 CPU time for second half transformation          0.03 sec ( 3898.8 MFLOP/sec)
 CPU time for sorting                             0.03 sec
 CPU time for fitting                             0.07 sec (34837.1 MFLOP/sec)
 CPU time for tilde quantities                    0.08 sec (40198.7 MFLOP/sec)
 CPU time for assembly                            0.83 sec (36070.5 MFLOP/sec)
 CPU time for tranop_f12                          1.09 sec (35533.7 MFLOP/sec)
 CPU time for f12 integrals (total)               9.89 sec, Elapsed time:     12.16 sec
 CPU time for f12 matrices (total)                0.34 sec, Elapsed time:      0.48 sec

 Diagonal F12 approximation with fixed coefficients:  TSING= 0.500,  TTRIP= 0.250 (scaled by -1/beta)

 DF-MP2-F12 energy corrections:
 ==============================
 Approx.                                    Singlet             Triplet             Total
 DF-MP2-F12/3*C(DX,FIX)                -0.041446758350     -0.004157642486     -0.045604400836
 DF-MP2-F12/3*C(FIX)                   -0.039314408848     -0.003889149882     -0.043203558729
 DF-MP2-F12/3C(FIX)                    -0.039177678133     -0.003998110518     -0.043175788651

 DF-MP2-F12 correlation energies:
 ================================
 Approx.                                    Singlet             Triplet             Ecorr            Total Energy
 DF-MP2                                -0.320661585436     -0.156093834174     -0.476755419610   -116.756579904651
 DF-MP2-F12/3*C(DX,FIX)                -0.362108343786     -0.160251476660     -0.522359820446   -116.802184305487
 DF-MP2-F12/3*C(FIX)                   -0.359975994284     -0.159982984055     -0.519958978339   -116.799783463380
 DF-MP2-F12/3C(FIX)                    -0.359839263569     -0.160091944692     -0.519931208261   -116.799755693302

 SCS-DF-MP2 energies (F_SING= 1.20000  F_TRIP= 0.62222  F_PARALLEL= 0.33333):
 ============================================================================
 SCS-DF-MP2                            -0.481918954898   -116.761743439939
 SCS-DF-MP2-F12/3*C(DX,FIX)            -0.534242042465   -116.814066527506
 SCS-DF-MP2-F12/3*C(FIX)               -0.531516160997   -116.811340646038
 SCS-DF-MP2-F12/3C(FIX)                -0.531419881869   -116.811244366910
 Symmetry transformation completed.

 Number of N-1 electron functions:               8
 Number of N-2 electron functions:              36
 Number of singly external CSFs:              1632
 Number of doubly external CSFs:           1332528
 Total number of CSFs:                     1334161

 Length of J-op  integral file:             205.73 MB
 Length of K-op  integral file:             258.78 MB
 Length of 3-ext integral record:             0.00 MB

 Memory could be reduced to 93.27 Mwords without degradation in triples

 Integral transformation finished. Total CPU:   9.34 sec, npass=  1  Memory used:  48.07 MW

 Reference energy:                   -116.27982449

 Adding F12 terms to K(Cij), methodcc=6,  factor= 1.0

 ITER.      SQ.NORM     CORR.ENERGY   TOTAL ENERGY   ENERGY CHANGE        DEN1      VAR(S)    VAR(P)  DIIS     TIME  TIME/IT
   1      1.13250459    -0.49198062  -116.77180510    -0.01515017    -0.00362820  0.14D-02  0.19D-02  1  1    31.34     9.62
   2      1.14048670    -0.49254477  -116.77236926    -0.00056415    -0.00958644  0.30D-04  0.23D-03  2  2    39.97    17.35
   3      1.14349965    -0.49279861  -116.77262309    -0.00025384    -0.00213612  0.12D-04  0.13D-04  3  3    48.63    14.61
   4      1.14447407    -0.49283052  -116.77265501    -0.00003191    -0.00060524  0.60D-06  0.11D-05  4  4    57.29    15.51
   5      1.14463237    -0.49282966  -116.77265415     0.00000086    -0.00003032  0.18D-06  0.67D-07  5  5    65.94    14.33
   6      1.14466758    -0.49282739  -116.77265188     0.00000227    -0.00000674  0.15D-07  0.73D-08  6  6    74.59    13.82
   7      1.14467687    -0.49282645  -116.77265094     0.00000094    -0.00000302  0.18D-08  0.61D-09  6  1    83.26    13.17
   8      1.14467856    -0.49282657  -116.77265106    -0.00000012     0.00000020  0.27D-09  0.81D-10  6  3    91.89    12.69
   9      1.14467957    -0.49282653  -116.77265101     0.00000004    -0.00000033  0.22D-10  0.15D-10  6  2   100.56    12.32
  10      1.14467972    -0.49282653  -116.77265102    -0.00000000     0.00000005  0.26D-11  0.14D-11  6  4   109.27    12.02
  11      1.14467972    -0.49282653  -116.77265102     0.00000000     0.00000004  0.38D-12  0.19D-12  6  5   117.92    11.76

 Norm of t1 vector:      0.04942237      S-energy:     0.00000000      T1 diagnostic:  0.00873672
                                                                       D1 diagnostic:  0.01884534

 Adding energy correction from Wij-K(Fij), methodcc=6  factor= 1.0
 
  CCSD correlation energy              -0.492826531476
  MP2-F12 correction (uncoupled)       -0.041740803046
  C*T doubles correction               -0.001135058402
  f12b correction                       0.007814148797


 Total CPU time for triples:    153.32 sec

  Ecorr(MP2)                           -0.476830451527
  Ecorr(MP2-F12)                       -0.520006240178
  Scale factor for triples energy       1.090547465064


 RESULTS
 =======

  Reference energy                   -116.278212784141
  F12 singles correction               -0.001611700901

 F12 singles corrections added to reference energy

  New reference energy               -116.279824485041

  F12a singlet correction              -0.038999888432
  F12a triplet correction              -0.003875973016
  F12a total correction                -0.042875861448

 F12a corrections for ansatz F12/3C(FIX) added to CCSD energy
 
  CCSD-F12a singlet pair energy        -0.389000247419
  CCSD-F12a triplet pair energy        -0.146702148711
  CCSD-F12a correlation energy         -0.535702392924

  Triples (T) contribution (scaled)    -0.016900144824
  Total correlation energy             -0.552602537748

  CCSD-F12a total energy             -116.815526877965
  CCSD[T]-F12a energy                -116.833011000686
  CCSD-T-F12a energy                 -116.832203513784
 !CCSD(T)-F12a total energy          -116.832427022789

 F12b corrections for ansatz F12/3C(FIX) added to CCSD(T)-F12a energy

  CCSD-F12b singlet pair energy        -0.381652841691
  CCSD-F12b triplet pair energy        -0.146235405642
  CCSD-F12b correlation energy         -0.527888244127

  Triples (T) contribution (scaled)    -0.016900144824
  Total correlation energy             -0.544788388951

  CCSD-F12b total energy             -116.807712729168
  CCSD[T]-F12b energy                -116.825196851889
  CCSD-T-F12b energy                 -116.824389364987
 !CCSD(T)-F12b total energy          -116.824612873992

 Timing summary (sec):

 STEP                 CPU(USER)    SYS     CPU(TOT)    WALL
 Transformation          9.45      1.09     10.54     16.43
 CCSD iterations        95.12      6.63    101.75    129.55
 Triples               153.32      2.53    155.85    155.87
 MP2-F12                13.35      1.78     15.13     17.82
 F12b energy             6.91      0.29      7.20      7.21

 Program statistics:

 Available memory in ccsd:              2999999464
 Min. memory needed in ccsd:               3963025
 Max. memory used in ccsd:                 5096465
 Max. memory used in cckext:               3666031 (12 integral passes)



 **********************************************************************************************************************************
 DATASETS  * FILE   NREC   LENGTH (MB)   RECORD NAMES
              1      20     2213.32       500      610      700      900      950      970     1000      129      960     1100   
                                          VAR    BASINP    GEOM    SYMINP    ZMAT    AOBASIS   BASIS     P2S    ABASIS      S 
                                         1400     1410     1200     1210     1080     1600     1650     1300     1700     1380   
                                           T        V       H0       H01     AOSYM     SMH    MOLCAS    ERIS     OPER     JKOP   

              2       6        4.74       700     1000      520     2100     7360     7350   
                                         GEOM     BASIS   MCVARS     RHF    F12ABS    EF12   

 PROGRAMS   *        TOTAL   CCSD(T)        HF       INT
 CPU TIMES  *       318.99    278.21     25.00     15.66
 REAL TIME  *       389.25 SEC
 DISK USED  *         5.23 GB      
 **********************************************************************************************************************************
 SETTING E_F12_AB(1)    =      -116.83242702  AU                              
 SETTING E_F12_AB(2)    =      -116.82461287  AU                              

 Dummy atoms: O1  H5  H6


 Recomputing one-electron integrals since nuclear charges changed


 PROGRAM * SEWARD (Integral evaluation for generally contracted gaussian basis sets)     Author: Roland Lindh, 1990

 Geometry written to block  1 of record 700


 Point group  C1  



 ATOMIC COORDINATES

 NR  ATOM    CHARGE       X              Y              Z

   1  C1      6.00   -6.193010455    2.801518980    2.403542658
   2  H1      1.00   -4.656285171    1.699997622    3.119937832
   3  H2      1.00   -5.973046335    4.726205038    2.982932688
   4  H3      1.00   -7.940251230    2.077186956    3.118237078
   5  H4      1.00   -6.176569838    2.685300823    0.384937212
   6  O1      0.00  -11.397505175    1.072419576   -2.197184565
   7  H5      0.00  -11.790001291    2.731599113   -1.480411446
   8  H6      0.00  -11.462511754   -0.108659252   -0.778945109

 Bond lengths in Bohr (Angstrom)

 1-2  2.021904040  1-3  2.022002335  1-4  2.021953343  1-5  2.022015060  6-7  1.849511731
     ( 1.069945541)     ( 1.069997556)     ( 1.069971630)     ( 1.070004290)     ( 0.978719459)

 6-8  1.846774542
     ( 0.977271001)

 Bond angles

  2-1-3  109.53398059   2-1-4  109.65604535   2-1-5  108.43490854   3-1-4  109.49436728

  3-1-5  109.86987750   4-1-5  109.83468330   7-6-8  105.58293551

 NUCLEAR CHARGE:                   10
 NUMBER OF PRIMITIVE AOS:         270
 NUMBER OF SYMMETRY AOS:          246
 NUMBER OF CONTRACTIONS:          214   ( 214A   )
 NUMBER OF CORE ORBITALS:           1   (   1A   )
 NUMBER OF VALENCE ORBITALS:        8   (   8A   )

 MOLECULE CHANGED: INITIALIZING OCCUPATION AND DUMP RECORDS


 NUCLEAR REPULSION ENERGY   13.68681606


 Eigenvalues of metric

         1 0.743E-04 0.202E-03 0.315E-03 0.331E-03 0.333E-03 0.454E-03 0.536E-03 0.563E-03


 Contracted 2-electron integrals neglected if value below      1.0D-19

 OPERATOR DM      FOR CENTER  0  COORDINATES:    0.000000    0.000000    0.000000


 **********************************************************************************************************************************
 DATASETS  * FILE   NREC   LENGTH (MB)   RECORD NAMES
              1      19     1919.77       500      610      700      900      950      970     1000      129      960     1100   
                                          VAR    BASINP    GEOM    SYMINP    ZMAT    AOBASIS   BASIS     P2S    ABASIS      S 
                                         1400     1410     1200     1210     1080     1600     1650     1300     1700   
                                           T        V       H0       H01     AOSYM     SMH    MOLCAS    ERIS     OPER   

              2       6        4.74       700     1000      520     2100     7360     7350   
                                         GEOM     BASIS   MCVARS     RHF    F12ABS    EF12   

 PROGRAMS   *        TOTAL       INT   CCSD(T)        HF       INT
 CPU TIMES  *       319.05      0.06    278.21     25.00     15.66
 REAL TIME  *       389.64 SEC
 DISK USED  *         5.23 GB      
 **********************************************************************************************************************************


 PROGRAM * RHF-SCF (CLOSED SHELL)       Authors: W. Meyer, H.-J. Werner


 NUMBER OF ELECTRONS:       5+    5-    SPACE SYMMETRY=1    SPIN SYMMETRY: Singlet 
 CONVERGENCE THRESHOLDS:    1.00E-04 (Density)    1.00E-09 (Energy)
 MAX. NUMBER OF ITERATIONS:       60
 INTERPOLATION TYPE:            DIIS
 INTERPOLATION STEPS:              2 (START)      1 (STEP)
 LEVEL SHIFTS:                  0.00 (CLOSED)  0.00 (OPEN) 



 Orbital guess generated from atomic densities. Full valence occupancy:    9

 Molecular orbital dump at record        2101.2

 Initial occupancy:   5

 ITERATION    DDIFF          GRAD             ENERGY        2-EL.EN.            DIPOLE MOMENTS         DIIS   ORB.
    1      0.000D+00      0.000D+00       -40.19565359     53.501361    0.00403   -0.00283   -0.00134    0    start
    2      0.000D+00      0.368D-02       -40.21289836     52.216647    0.00124   -0.00095   -0.00039    1    diag
    3      0.318D-02      0.143D-02       -40.21516717     52.670306    0.00178   -0.00131   -0.00055    2    diag
    4      0.856D-03      0.357D-03       -40.21548539     52.615358    0.00158   -0.00117   -0.00047    3    diag
    5      0.328D-03      0.463D-04       -40.21549086     52.617512    0.00155   -0.00116   -0.00046    4    diag
    6      0.574D-04      0.375D-05       -40.21549090     52.617657    0.00155   -0.00116   -0.00046    5    diag
    7      0.879D-05      0.302D-06       -40.21549090     52.617617    0.00154   -0.00116   -0.00046    6    diag
    8      0.992D-06      0.226D-07       -40.21549090     52.617619    0.00154   -0.00116   -0.00046    0    orth

 Final occupancy:   5

 !RHF STATE 1.1 Energy                -40.215490899106
 Nuclear energy                        13.68681606
 One-electron energy                  -80.21111624
 Two-electron energy                   26.30880928
 Virial quotient                       -0.99832324
 !RHF STATE 1.1 Dipole moment           0.00154360    -0.00115605    -0.00045843
 Dipole moment /Debye                   0.00392317    -0.00293820    -0.00116515

 Orbital energies:

         1.1          2.1          3.1          4.1          5.1          6.1          7.1
    -11.196270    -0.950712    -0.551937    -0.550004    -0.547825     0.056167     0.068937

 HOMO      5.1    -0.547825 =     -14.9071eV
 LUMO      6.1     0.056167 =       1.5284eV
 LUMO-HOMO         0.603992 =      16.4355eV


 **********************************************************************************************************************************
 DATASETS  * FILE   NREC   LENGTH (MB)   RECORD NAMES
              1      19     1919.77       500      610      700      900      950      970     1000      129      960     1100   
                                          VAR    BASINP    GEOM    SYMINP    ZMAT    AOBASIS   BASIS     P2S    ABASIS      S 
                                         1400     1410     1200     1210     1080     1600     1650     1300     1700   
                                           T        V       H0       H01     AOSYM     SMH    MOLCAS    ERIS     OPER   

              2       7        8.14       700     1000      520     2100     7360     7350     2101   
                                         GEOM     BASIS   MCVARS     RHF    F12ABS    EF12      RHF  

 PROGRAMS   *        TOTAL        HF       INT   CCSD(T)        HF       INT
 CPU TIMES  *       339.41     20.36      0.06    278.21     25.00     15.66
 REAL TIME  *       413.48 SEC
 DISK USED  *         5.23 GB      
 **********************************************************************************************************************************
 SETTING E_HF_A         =       -40.21549090  AU                              


 PROGRAM * CCSD (Closed-shell coupled cluster)     Authors: C. Hampel, H.-J. Werner, 1991, M. Deegan, P.J. Knowles, 1992

                                  CCSD-F12 implementation by  H.-J. Werner, 2007

                   Density fitting integral evaluation by F.R. Manby, 2003,2007, G. Knizia, 2010

 Basis set CC-PVTZ/JKFIT generated.      Number of basis functions:   338 
 Basis set CC-PVTZ-F12/OPTRI generated.  Number of basis functions:   396 
 Basis set AUG-CC-PVTZ/MP2FIT generated. Number of basis functions:   488 

 Convergence thresholds:  THRVAR = 1.00D-08  THRDEN = 1.00D-08

 CCSD(T)     terms to be evaluated (factor= 1.000)


 Number of core orbitals:           1 (   1 )
 Number of closed-shell orbitals:   4 (   4 )
 Number of external orbitals:     209 ( 209 )

 Molecular orbitals read from record     2101.2  Type=RHF/CANONICAL (state 1.1)

 MP2-F12 correlation treatment (H.-J. Werner, 2006)
 ==================================================

 Using MP2-F12 with ansatz 3C(FIX)

 Using projected zeroth-order Hamiltonian (+Z)

 FOCKRIB=T FOCKRIC=T FOCKRIP=T CABSP=T CABSA=T CABSK=T CABSF=T GBC=F EBC=F DMAT=T NOFIK=T NOPAO=1 SOLVE=-1  USEPAO=0
 EXCH_A= T EXCH_B= F EXCH_C= F EXCH_P= F
 
 Geminal basis:    OPTFULL  GEM_TYPE=SLATER  BETA=1.0  NGEM=6

 Optimizing Gaussian exponents for each gem_beta

 Geminal optimization for beta= 1.0000
 Weight function:   m=0, omega= 1.4646

 Augmented Hessian optimization of geminal fit. Trust ratio= 0.40000
 Convergence reached after   2 iterations. Final gradient= 8.26D-16, Step= 4.26D-06, Delta= 1.28D-09
 
 Alpha:                 0.19532     0.81920     2.85917     9.50073    35.69989   197.79328
 Coeff:                 0.27070     0.30552     0.18297     0.10986     0.06810     0.04224
 

 All pairs explicitly correlated. Number of r12-pairs:           10

 Excluding core orbitals from MO domains
 
 AO(A)-basis ORBITAL           loaded. Number of functions:     214
 RI(R)-basis CC-PVTZ-F12/OPTRI loaded. Number of functions:     396
 DF-basis CC-PVTZ/JKFIT        loaded. Number of functions:     338

 Screening thresholds:   THRAO=  1.00D-10  THRMO=  1.00D-09  THRPROD=  1.00D-09
                         THRSW=  1.00D-05  THROV=  1.00D-12  THRAOF12=   1.00D-08

 CPU time for Fock operators                      2.68 sec
 
 Construction of ABS:
 Smallest eigenvalue of S          4.11E-04  (threshold= 1.00E-08)
 Ratio eigmin/eigmax               5.28E-05  (threshold= 1.00E-09)
 Smallest eigenvalue of S kept     4.11E-04  (threshold= 4.11E-04, 0 functions deleted, 396 kept)
 
 Construction of CABS:
 Smallest eigenvalue of S          8.20E-07  (threshold= 1.00E-08)
 Ratio eigmin/eigmax               8.20E-07  (threshold= 1.00E-09)
 Smallest eigenvalue of S kept     8.20E-07  (threshold= 8.20E-07, 0 functions deleted, 396 kept)
 
 CPU time for CABS singles                        0.11 sec

 CABS-singles contribution of  -0.00063710 patched into reference energy.
 New reference energy         -40.21612800
 
 AO(A)-basis ORBITAL           loaded. Number of functions:     214
 RI(R)-basis CC-PVTZ-F12/OPTRI loaded. Number of functions:     396
 DF-basis AUG-CC-PVTZ/MP2FIT   loaded. Number of functions:     488

 Screening thresholds:   THRAO=  1.00D-10  THRMO=  1.00D-09  THRPROD=  1.00D-09
                         THRSW=  1.00D-05  THROV=  1.00D-12  THRAOF12=   1.00D-08

 CPU time for 3-index integral evaluation         5.94 sec
 CPU time for first  half transformation          0.40 sec ( 6437.2 MFLOP/sec)
 CPU time for second half transformation          0.02 sec ( 1462.0 MFLOP/sec)
 CPU time for fitting                             0.02 sec (59536.0 MFLOP/sec)
 CPU time for tilde quantities                    0.03 sec (52963.2 MFLOP/sec)
 CPU time for assembly                            0.20 sec (39880.4 MFLOP/sec)
 CPU time for tranop_f12                          0.27 sec (35487.5 MFLOP/sec)
 CPU time for f12 integrals (total)               7.39 sec, Elapsed time:      8.10 sec
 CPU time for f12 matrices (total)                0.08 sec, Elapsed time:      0.09 sec

 Diagonal F12 approximation with fixed coefficients:  TSING= 0.500,  TTRIP= 0.250 (scaled by -1/beta)

 DF-MP2-F12 energy corrections:
 ==============================
 Approx.                                    Singlet             Triplet             Total
 DF-MP2-F12/3*C(DX,FIX)                -0.016287845376     -0.001140034711     -0.017427880086
 DF-MP2-F12/3*C(FIX)                   -0.015926957803     -0.001149942887     -0.017076900690
 DF-MP2-F12/3C(FIX)                    -0.015859000478     -0.001157170218     -0.017016170696

 DF-MP2-F12 correlation energies:
 ================================
 Approx.                                    Singlet             Triplet             Ecorr            Total Energy
 DF-MP2                                -0.145614600165     -0.055805352313     -0.201419952478    -40.417547949330
 DF-MP2-F12/3*C(DX,FIX)                -0.161902445541     -0.056945387024     -0.218847832564    -40.434975829417
 DF-MP2-F12/3*C(FIX)                   -0.161541557968     -0.056955295200     -0.218496853168    -40.434624850020
 DF-MP2-F12/3C(FIX)                    -0.161473600642     -0.056962522531     -0.218436123174    -40.434564120026

 SCS-DF-MP2 energies (F_SING= 1.20000  F_TRIP= 0.62222  F_PARALLEL= 0.33333):
 ============================================================================
 SCS-DF-MP2                            -0.209460850526    -40.425588847378
 SCS-DF-MP2-F12/3*C(DX,FIX)            -0.229715619908    -40.445843616760
 SCS-DF-MP2-F12/3*C(FIX)               -0.229288719908    -40.445416716760
 SCS-DF-MP2-F12/3C(FIX)                -0.229211668124    -40.445339664976
 Symmetry transformation completed.

 Number of N-1 electron functions:               4
 Number of N-2 electron functions:              10
 Number of singly external CSFs:               836
 Number of doubly external CSFs:            349866
 Total number of CSFs:                      350703

 Length of J-op  integral file:              53.89 MB
 Length of K-op  integral file:              87.81 MB
 Length of 3-ext integral record:             0.00 MB

 Memory could be reduced to 60.96 Mwords without degradation in triples

 Integral transformation finished. Total CPU:   5.60 sec, npass=  1  Memory used:  26.32 MW

 Reference energy:                    -40.21612800

 Adding F12 terms to K(Cij), methodcc=6,  factor= 1.0

 ITER.      SQ.NORM     CORR.ENERGY   TOTAL ENERGY   ENERGY CHANGE        DEN1      VAR(S)    VAR(P)  DIIS     TIME  TIME/IT
   1      1.06960673    -0.21652329   -40.43265129    -0.01506866    -0.00954321  0.62D-03  0.94D-03  1  1    19.72     3.87
   2      1.07446171    -0.21733933   -40.43346733    -0.00081605    -0.00516271  0.14D-04  0.90D-04  2  2    23.58     4.03
   3      1.07598328    -0.21745073   -40.43357872    -0.00011139    -0.00108955  0.20D-05  0.57D-05  3  3    27.41     4.08
   4      1.07635265    -0.21746526   -40.43359326    -0.00001454    -0.00020086  0.13D-06  0.31D-06  4  4    31.25     4.10
   5      1.07640453    -0.21746489   -40.43359289     0.00000037    -0.00000933  0.77D-08  0.15D-07  5  5    35.07     4.37
   6      1.07641083    -0.21746364   -40.43359164     0.00000125    -0.00000294  0.32D-09  0.87D-09  6  6    38.89     4.34
   7      1.07641158    -0.21746356   -40.43359156     0.00000008    -0.00000042  0.21D-10  0.71D-10  6  1    42.73     4.31
   8      1.07641166    -0.21746359   -40.43359159    -0.00000003     0.00000001  0.28D-11  0.62D-11  6  2    46.60     4.30
   9      1.07641167    -0.21746360   -40.43359159    -0.00000001     0.00000003  0.21D-12  0.36D-12  6  3    50.43     4.28
  10      1.07641166    -0.21746360   -40.43359160    -0.00000000     0.00000001  0.24D-13  0.34D-13  6  4    54.28     4.27

 Norm of t1 vector:      0.03261107      S-energy:    -0.00000000      T1 diagnostic:  0.00815277
                                                                       D1 diagnostic:  0.01307316

 Adding energy correction from Wij-K(Fij), methodcc=6  factor= 1.0
 
  CCSD correlation energy              -0.217463598197
  MP2-F12 correction (uncoupled)       -0.016715889685
  C*T doubles correction               -0.000291198109
  f12b correction                       0.003525664125


 Total CPU time for triples:     21.73 sec

  Ecorr(MP2)                           -0.201454626468
  Ecorr(MP2-F12)                       -0.218470797164
  Scale factor for triples energy       1.084466517321


 RESULTS
 =======

  Reference energy                    -40.215490899106
  F12 singles correction               -0.000637097746

 F12 singles corrections added to reference energy

  New reference energy                -40.216127996852

  F12a singlet correction              -0.015862503463
  F12a triplet correction              -0.001144584331
  F12a total correction                -0.017007087795

 F12a corrections for ansatz F12/3C(FIX) added to CCSD energy
 
  CCSD-F12a singlet pair energy        -0.179253670294
  CCSD-F12a triplet pair energy        -0.055217015267
  CCSD-F12a correlation energy         -0.234470685992

  Triples (T) contribution (scaled)    -0.006988933181
  Total correlation energy             -0.241459619173

  CCSD-F12a total energy              -40.450598682844
  CCSD[T]-F12a energy                 -40.457829074758
  CCSD-T-F12a energy                  -40.457514243124
 !CCSD(T)-F12a total energy           -40.457587616025

 F12b corrections for ansatz F12/3C(FIX) added to CCSD(T)-F12a energy

  CCSD-F12b singlet pair energy        -0.175882832298
  CCSD-F12b triplet pair energy        -0.055062189138
  CCSD-F12b correlation energy         -0.230945021867

  Triples (T) contribution (scaled)    -0.006988933181
  Total correlation energy             -0.237933955048

  CCSD-F12b total energy              -40.447073018719
  CCSD[T]-F12b energy                 -40.454303410633
  CCSD-T-F12b energy                  -40.453988578999
 !CCSD(T)-F12b total energy           -40.454061951900

 Timing summary (sec):

 STEP                 CPU(USER)    SYS     CPU(TOT)    WALL
 Transformation          5.64      0.63      6.27      6.39
 CCSD iterations        38.22      3.33     41.55     42.84
 Triples                21.73      0.35     22.08     22.07
 MP2-F12                10.43      0.44     10.87     12.70
 F12b energy             3.32      0.31      3.63      3.68

 Program statistics:

 Available memory in ccsd:              2999999786
 Min. memory needed in ccsd:               1609972
 Max. memory used in ccsd:                 1864434
 Max. memory used in cckext:               1252381 (11 integral passes)



 **********************************************************************************************************************************
 DATASETS  * FILE   NREC   LENGTH (MB)   RECORD NAMES
              1      20     2072.78       500      610      700      900      950      970     1000      129      960     1100   
                                          VAR    BASINP    GEOM    SYMINP    ZMAT    AOBASIS   BASIS     P2S    ABASIS      S 
                                         1400     1410     1200     1210     1080     1600     1650     1300     1700     1380   
                                           T        V       H0       H01     AOSYM     SMH    MOLCAS    ERIS     OPER     JKOP   

              2       7        8.14       700     1000      520     2100     7360     7350     2101   
                                         GEOM     BASIS   MCVARS     RHF    F12ABS    EF12      RHF  

 PROGRAMS   *        TOTAL   CCSD(T)        HF       INT   CCSD(T)        HF       INT
 CPU TIMES  *       418.79     79.38     20.36      0.06    278.21     25.00     15.66
 REAL TIME  *       524.07 SEC
 DISK USED  *         5.23 GB      
 **********************************************************************************************************************************
 SETTING E_F12_A(1)     =       -40.45758762  AU                              
 SETTING E_F12_A(2)     =       -40.45406195  AU                              

 Dummy atoms: C1  H1  H2  H3  H4


 Recomputing one-electron integrals since nuclear charges changed


 PROGRAM * SEWARD (Integral evaluation for generally contracted gaussian basis sets)     Author: Roland Lindh, 1990

 Geometry written to block  1 of record 700


 Point group  C1  



 ATOMIC COORDINATES

 NR  ATOM    CHARGE       X              Y              Z

   1  C1      0.00   -6.193010455    2.801518980    2.403542658
   2  H1      0.00   -4.656285171    1.699997622    3.119937832
   3  H2      0.00   -5.973046335    4.726205038    2.982932688
   4  H3      0.00   -7.940251230    2.077186956    3.118237078
   5  H4      0.00   -6.176569838    2.685300823    0.384937212
   6  O1      8.00  -11.397505175    1.072419576   -2.197184565
   7  H5      1.00  -11.790001291    2.731599113   -1.480411446
   8  H6      1.00  -11.462511754   -0.108659252   -0.778945109

 Bond lengths in Bohr (Angstrom)

 1-2  2.021904040  1-3  2.022002335  1-4  2.021953343  1-5  2.022015060  6-7  1.849511731
     ( 1.069945541)     ( 1.069997556)     ( 1.069971630)     ( 1.070004290)     ( 0.978719459)

 6-8  1.846774542
     ( 0.977271001)

 Bond angles

  2-1-3  109.53398059   2-1-4  109.65604535   2-1-5  108.43490854   3-1-4  109.49436728

  3-1-5  109.86987750   4-1-5  109.83468330   7-6-8  105.58293551

 NUCLEAR CHARGE:                   10
 NUMBER OF PRIMITIVE AOS:         270
 NUMBER OF SYMMETRY AOS:          246
 NUMBER OF CONTRACTIONS:          214   ( 214A   )
 NUMBER OF CORE ORBITALS:           1   (   1A   )
 NUMBER OF VALENCE ORBITALS:        6   (   6A   )

 MOLECULE CHANGED: INITIALIZING OCCUPATION AND DUMP RECORDS


 NUCLEAR REPULSION ENERGY    8.99703174


 Eigenvalues of metric

         1 0.743E-04 0.202E-03 0.315E-03 0.331E-03 0.333E-03 0.454E-03 0.536E-03 0.563E-03


 Contracted 2-electron integrals neglected if value below      1.0D-19

 OPERATOR DM      FOR CENTER  0  COORDINATES:    0.000000    0.000000    0.000000


 **********************************************************************************************************************************
 DATASETS  * FILE   NREC   LENGTH (MB)   RECORD NAMES
              1      19     1919.77       500      610      700      900      950      970     1000      129      960     1100   
                                          VAR    BASINP    GEOM    SYMINP    ZMAT    AOBASIS   BASIS     P2S    ABASIS      S 
                                         1400     1410     1200     1210     1080     1600     1650     1300     1700   
                                           T        V       H0       H01     AOSYM     SMH    MOLCAS    ERIS     OPER   

              2       7        8.14       700     1000      520     2100     7360     7350     2101   
                                         GEOM     BASIS   MCVARS     RHF    F12ABS    EF12      RHF  

 PROGRAMS   *        TOTAL       INT   CCSD(T)        HF       INT   CCSD(T)        HF       INT
 CPU TIMES  *       418.86      0.07     79.38     20.36      0.06    278.21     25.00     15.66
 REAL TIME  *       529.05 SEC
 DISK USED  *         5.23 GB      
 **********************************************************************************************************************************


 PROGRAM * RHF-SCF (CLOSED SHELL)       Authors: W. Meyer, H.-J. Werner


 NUMBER OF ELECTRONS:       5+    5-    SPACE SYMMETRY=1    SPIN SYMMETRY: Singlet 
 CONVERGENCE THRESHOLDS:    1.00E-04 (Density)    1.00E-09 (Energy)
 MAX. NUMBER OF ITERATIONS:       60
 INTERPOLATION TYPE:            DIIS
 INTERPOLATION STEPS:              2 (START)      1 (STEP)
 LEVEL SHIFTS:                  0.00 (CLOSED)  0.00 (OPEN) 



 Orbital guess generated from atomic densities. Full valence occupancy:    7

 Molecular orbital dump at record        2102.2

 Initial occupancy:   5

 ITERATION    DDIFF          GRAD             ENERGY        2-EL.EN.            DIPOLE MOMENTS         DIIS   ORB.
    1      0.000D+00      0.000D+00       -76.02454648     77.404101   -0.23470    0.24602    1.09624    0    start
    2      0.000D+00      0.671D-02       -76.05131039     73.755441   -0.13742    0.14308    0.64022    1    diag
    3      0.463D-02      0.426D-02       -76.06282436     75.375129   -0.16149    0.16859    0.75357    2    diag
    4      0.162D-02      0.400D-03       -76.06301897     75.282727   -0.16051    0.16748    0.74901    3    diag
    5      0.232D-03      0.112D-03       -76.06303982     75.297197   -0.16014    0.16707    0.74733    4    diag
    6      0.824D-04      0.222D-04       -76.06304117     75.296135   -0.16005    0.16696    0.74692    5    diag
    7      0.244D-04      0.450D-05       -76.06304124     75.296288   -0.16002    0.16693    0.74679    6    diag
    8      0.568D-05      0.871D-06       -76.06304124     75.296276   -0.16001    0.16692    0.74674    7    diag
    9      0.995D-06      0.116D-06       -76.06304124     75.296267   -0.16001    0.16692    0.74674    8    diag
   10      0.190D-06      0.257D-07       -76.06304124     75.296271   -0.16001    0.16692    0.74674    0    orth

 Final occupancy:   5

 !RHF STATE 1.1 Energy                -76.063041238456
 Nuclear energy                         8.99703174
 One-electron energy                 -122.70820864
 Two-electron energy                   37.64813566
 Virial quotient                       -1.00196366
 !RHF STATE 1.1 Dipole moment          -0.16000605     0.16691974     0.74673809
 Dipole moment /Debye                  -0.40666818     0.42423988     1.89789460

 Orbital energies:

         1.1          2.1          3.1          4.1          5.1          6.1          7.1
    -20.568022    -1.341768    -0.708656    -0.578989    -0.508534     0.037461     0.062792

 HOMO      5.1    -0.508534 =     -13.8379eV
 LUMO      6.1     0.037461 =       1.0194eV
 LUMO-HOMO         0.545995 =      14.8573eV


 **********************************************************************************************************************************
 DATASETS  * FILE   NREC   LENGTH (MB)   RECORD NAMES
              1      19     1919.77       500      610      700      900      950      970     1000      129      960     1100   
                                          VAR    BASINP    GEOM    SYMINP    ZMAT    AOBASIS   BASIS     P2S    ABASIS      S 
                                         1400     1410     1200     1210     1080     1600     1650     1300     1700   
                                           T        V       H0       H01     AOSYM     SMH    MOLCAS    ERIS     OPER   

              2       8       12.47       700     1000      520     2100     7360     7350     2101     2102   
                                         GEOM     BASIS   MCVARS     RHF    F12ABS    EF12      RHF      RHF  

 PROGRAMS   *        TOTAL        HF       INT   CCSD(T)        HF       INT   CCSD(T)        HF       INT
 CPU TIMES  *       443.82     24.96      0.07     79.38     20.36      0.06    278.21     25.00     15.66
 REAL TIME  *       590.12 SEC
 DISK USED  *         5.23 GB      
 **********************************************************************************************************************************
 SETTING E_HF_B         =       -76.06304124  AU                              


 PROGRAM * CCSD (Closed-shell coupled cluster)     Authors: C. Hampel, H.-J. Werner, 1991, M. Deegan, P.J. Knowles, 1992

                                  CCSD-F12 implementation by  H.-J. Werner, 2007

                   Density fitting integral evaluation by F.R. Manby, 2003,2007, G. Knizia, 2010

 Basis set CC-PVTZ/JKFIT generated.      Number of basis functions:   338 
 Basis set CC-PVTZ-F12/OPTRI generated.  Number of basis functions:   396 
 Basis set AUG-CC-PVTZ/MP2FIT generated. Number of basis functions:   488 

 Convergence thresholds:  THRVAR = 1.00D-08  THRDEN = 1.00D-08

 CCSD(T)     terms to be evaluated (factor= 1.000)


 Number of core orbitals:           1 (   1 )
 Number of closed-shell orbitals:   4 (   4 )
 Number of external orbitals:     209 ( 209 )

 Molecular orbitals read from record     2102.2  Type=RHF/CANONICAL (state 1.1)

 MP2-F12 correlation treatment (H.-J. Werner, 2006)
 ==================================================

 Using MP2-F12 with ansatz 3C(FIX)

 Using projected zeroth-order Hamiltonian (+Z)

 FOCKRIB=T FOCKRIC=T FOCKRIP=T CABSP=T CABSA=T CABSK=T CABSF=T GBC=F EBC=F DMAT=T NOFIK=T NOPAO=1 SOLVE=-1  USEPAO=0
 EXCH_A= T EXCH_B= F EXCH_C= F EXCH_P= F
 
 Geminal basis:    OPTFULL  GEM_TYPE=SLATER  BETA=1.0  NGEM=6

 Optimizing Gaussian exponents for each gem_beta

 Geminal optimization for beta= 1.0000
 Weight function:   m=0, omega= 1.4646

 Augmented Hessian optimization of geminal fit. Trust ratio= 0.40000
 Convergence reached after   2 iterations. Final gradient= 8.26D-16, Step= 4.26D-06, Delta= 1.28D-09
 
 Alpha:                 0.19532     0.81920     2.85917     9.50073    35.69989   197.79328
 Coeff:                 0.27070     0.30552     0.18297     0.10986     0.06810     0.04224
 

 All pairs explicitly correlated. Number of r12-pairs:           10

 Excluding core orbitals from MO domains
 
 AO(A)-basis ORBITAL           loaded. Number of functions:     214
 RI(R)-basis CC-PVTZ-F12/OPTRI loaded. Number of functions:     396
 DF-basis CC-PVTZ/JKFIT        loaded. Number of functions:     338

 Screening thresholds:   THRAO=  1.00D-10  THRMO=  1.00D-09  THRPROD=  1.00D-09
                         THRSW=  1.00D-05  THROV=  1.00D-12  THRAOF12=   1.00D-08

 CPU time for Fock operators                      2.67 sec
 
 Construction of ABS:
 Smallest eigenvalue of S          4.11E-04  (threshold= 1.00E-08)
 Ratio eigmin/eigmax               5.28E-05  (threshold= 1.00E-09)
 Smallest eigenvalue of S kept     4.11E-04  (threshold= 4.11E-04, 0 functions deleted, 396 kept)
 
 Construction of CABS:
 Smallest eigenvalue of S          8.20E-07  (threshold= 1.00E-08)
 Ratio eigmin/eigmax               8.20E-07  (threshold= 1.00E-09)
 Smallest eigenvalue of S kept     8.20E-07  (threshold= 8.20E-07, 0 functions deleted, 396 kept)
 
 CPU time for CABS singles                        0.11 sec

 CABS-singles contribution of  -0.00097299 patched into reference energy.
 New reference energy         -76.06401423
 
 AO(A)-basis ORBITAL           loaded. Number of functions:     214
 RI(R)-basis CC-PVTZ-F12/OPTRI loaded. Number of functions:     396
 DF-basis AUG-CC-PVTZ/MP2FIT   loaded. Number of functions:     488

 Screening thresholds:   THRAO=  1.00D-10  THRMO=  1.00D-09  THRPROD=  1.00D-09
                         THRSW=  1.00D-05  THROV=  1.00D-12  THRAOF12=   1.00D-08

 CPU time for 3-index integral evaluation         5.93 sec
 CPU time for first  half transformation          0.42 sec ( 6130.7 MFLOP/sec)
 CPU time for second half transformation          0.02 sec ( 1462.0 MFLOP/sec)
 CPU time for sorting                             0.02 sec
 CPU time for fitting                             0.03 sec (39690.7 MFLOP/sec)
 CPU time for tilde quantities                    0.04 sec (39722.4 MFLOP/sec)
 CPU time for assembly                            0.23 sec (34678.6 MFLOP/sec)
 CPU time for tranop_f12                          0.26 sec (36852.4 MFLOP/sec)
 CPU time for f12 integrals (total)               7.41 sec, Elapsed time:      7.91 sec
 CPU time for f12 matrices (total)                0.08 sec, Elapsed time:      0.24 sec

 Diagonal F12 approximation with fixed coefficients:  TSING= 0.500,  TTRIP= 0.250 (scaled by -1/beta)

 DF-MP2-F12 energy corrections:
 ==============================
 Approx.                                    Singlet             Triplet             Total
 DF-MP2-F12/3*C(DX,FIX)                -0.025125568137     -0.002997984603     -0.028123552740
 DF-MP2-F12/3*C(FIX)                   -0.023353435140     -0.002711913584     -0.026065348724
 DF-MP2-F12/3C(FIX)                    -0.023281705789     -0.002808961560     -0.026090667350

 DF-MP2-F12 correlation energies:
 ================================
 Approx.                                    Singlet             Triplet             Ecorr            Total Energy
 DF-MP2                                -0.174888425497     -0.099737450699     -0.274625876196    -76.338640102208
 DF-MP2-F12/3*C(DX,FIX)                -0.200013993634     -0.102735435302     -0.302749428936    -76.366763654948
 DF-MP2-F12/3*C(FIX)                   -0.198241860637     -0.102449364283     -0.300691224920    -76.364705450932
 DF-MP2-F12/3C(FIX)                    -0.198170131286     -0.102546412259     -0.300716543546    -76.364730769557

 SCS-DF-MP2 energies (F_SING= 1.20000  F_TRIP= 0.62222  F_PARALLEL= 0.33333):
 ============================================================================
 SCS-DF-MP2                            -0.271924968809    -76.335939194821
 SCS-DF-MP2-F12/3*C(DX,FIX)            -0.303941063215    -76.367955289227
 SCS-DF-MP2-F12/3*C(FIX)               -0.301636503874    -76.365650729886
 SCS-DF-MP2-F12/3C(FIX)                -0.301610814060    -76.365625040072
 Symmetry transformation completed.

 Number of N-1 electron functions:               4
 Number of N-2 electron functions:              10
 Number of singly external CSFs:               836
 Number of doubly external CSFs:            349866
 Total number of CSFs:                      350703

 Length of J-op  integral file:              53.89 MB
 Length of K-op  integral file:              87.81 MB
 Length of 3-ext integral record:             0.00 MB

 Memory could be reduced to 60.96 Mwords without degradation in triples

 Integral transformation finished. Total CPU:   5.56 sec, npass=  1  Memory used:  26.32 MW

 Reference energy:                    -76.06401423

 Adding F12 terms to K(Cij), methodcc=6,  factor= 1.0

 ITER.      SQ.NORM     CORR.ENERGY   TOTAL ENERGY   ENERGY CHANGE        DEN1      VAR(S)    VAR(P)  DIIS     TIME  TIME/IT
   1      1.06265035    -0.27475971   -76.33877393    -0.00009320     0.00589777  0.77D-03  0.10D-02  1  1    19.63     8.11
   2      1.06604843    -0.27450882   -76.33852305     0.00025089    -0.00468125  0.14D-04  0.11D-03  2  2    23.47     6.15
   3      1.06726635    -0.27464394   -76.33865817    -0.00013512    -0.00082151  0.95D-05  0.73D-05  3  3    27.30     8.70
   4      1.06782639    -0.27466632   -76.33868054    -0.00002238    -0.00036353  0.47D-06  0.61D-06  4  4    31.14     8.96
   5      1.06792305    -0.27466481   -76.33867904     0.00000150    -0.00002201  0.15D-06  0.44D-07  5  5    34.96     9.46
   6      1.06795034    -0.27466342   -76.33867765     0.00000139    -0.00000420  0.15D-07  0.44D-08  6  6    38.79    10.99
   7      1.06795812    -0.27466300   -76.33867723     0.00000042    -0.00000170  0.13D-08  0.62D-09  6  1    42.66    10.52
   8      1.06795980    -0.27466300   -76.33867723     0.00000000    -0.00000014  0.21D-09  0.74D-10  6  2    46.48    10.18
   9      1.06796038    -0.27466301   -76.33867723    -0.00000001     0.00000005  0.18D-10  0.95D-11  6  3    50.35    10.78

 Norm of t1 vector:      0.03642622      S-energy:    -0.00000005      T1 diagnostic:  0.00910655
                                                                       D1 diagnostic:  0.01836457

 Adding energy correction from Wij-K(Fij), methodcc=6  factor= 1.0
 
  CCSD correlation energy              -0.274663008599
  MP2-F12 correction (uncoupled)       -0.024969346894
  C*T doubles correction               -0.000835696488
  f12b correction                       0.004279985283

 Total CPU time for triples:     21.73 sec

  Ecorr(MP2)                           -0.274666507071
  Ecorr(MP2-F12)                       -0.300757174420
  Scale factor for triples energy       1.094990348943


 RESULTS
 =======

  Reference energy                    -76.063041238456
  F12 singles correction               -0.000972987556

 F12 singles corrections added to reference energy

  New reference energy                -76.064014226012

  F12a singlet correction              -0.023102803350
  F12a triplet correction              -0.002702240031
  F12a total correction                -0.025805043381

 F12a corrections for ansatz F12/3C(FIX) added to CCSD energy
 
  CCSD-F12a singlet pair energy        -0.209618816768
  CCSD-F12a triplet pair energy        -0.090849183051
  CCSD-F12a correlation energy         -0.300468051980

  Triples (T) contribution (scaled)    -0.009770419755
  Total correlation energy             -0.310238471735

  CCSD-F12a total energy              -76.364482277992
  CCSD[T]-F12a energy                 -76.374591154465
  CCSD-T-F12a energy                  -76.374105076351
 !CCSD(T)-F12a total energy           -76.374252697747

 F12b corrections for ansatz F12/3C(FIX) added to CCSD(T)-F12a energy

  CCSD-F12b singlet pair energy        -0.205649130703
  CCSD-F12b triplet pair energy        -0.090538883833
  CCSD-F12b correlation energy         -0.296188066696

  Triples (T) contribution (scaled)    -0.009770419755
  Total correlation energy             -0.305958486452

  CCSD-F12b total energy              -76.360202292708
  CCSD[T]-F12b energy                 -76.370311169181
  CCSD-T-F12b energy                  -76.369825091068
 !CCSD(T)-F12b total energy           -76.369972712464

 Timing summary (sec):

 STEP                 CPU(USER)    SYS     CPU(TOT)    WALL
 Transformation          5.59      0.66      6.25      6.37
 CCSD iterations        34.35      3.04     37.39    116.99
 Triples                21.73      0.35     22.08     22.08
 MP2-F12                10.42      0.43     10.85     31.39
 F12b energy             3.36      0.27      3.63      5.46

 Program statistics:

 Available memory in ccsd:              2999999786
 Min. memory needed in ccsd:               1609972
 Max. memory used in ccsd:                 1864434
 Max. memory used in cckext:               1252381 (10 integral passes)



 **********************************************************************************************************************************
 DATASETS  * FILE   NREC   LENGTH (MB)   RECORD NAMES
              1      20     2072.78       500      610      700      900      950      970     1000      129      960     1100   
                                          VAR    BASINP    GEOM    SYMINP    ZMAT    AOBASIS   BASIS     P2S    ABASIS      S 
                                         1400     1410     1200     1210     1080     1600     1650     1300     1700     1380   
                                           T        V       H0       H01     AOSYM     SMH    MOLCAS    ERIS     OPER     JKOP   

              2       8       12.47       700     1000      520     2100     7360     7350     2101     2102   
                                         GEOM     BASIS   MCVARS     RHF    F12ABS    EF12      RHF      RHF  

 PROGRAMS   *        TOTAL   CCSD(T)        HF       INT   CCSD(T)        HF       INT   CCSD(T)        HF       INT
 CPU TIMES  *       519.31     75.48     24.96      0.07     79.38     20.36      0.06    278.21     25.00     15.66
 REAL TIME  *       779.62 SEC
 DISK USED  *         5.23 GB      
 **********************************************************************************************************************************
 SETTING E_F12_B(1)     =       -76.37425270  AU                              
 SETTING E_F12_B(2)     =       -76.36997271  AU                              
 SETTING E_INT_HF       =         0.00031935  AU                              
 SETTING E_INT_F12(1)   =        -0.00058671  AU                              
 SETTING E_INT_F12(2)   =        -0.00057821  AU                              
 E_INT_HF         =         0.00031935 AU
 E_INT_F12(1:2)   = [      -0.00058671    -0.00057821] AU

 CCSD(T)-F12/cc-pVTZ-F12 energy=    -76.369972712464

     CCSD(T)-F12        HF-SCF       CCSD(T)-F12        HF-SCF       CCSD(T)-F12        HF-SCF  
    -76.36997271    -76.06304124    -40.45406195    -40.21549090   -116.82461287   -116.27821278
 **********************************************************************************************************************************
 Molpro calculation terminated
 Variable memory released
