
 Primary working directories    : /net/scratch/people/plgsirous
 Secondary working directories  : /net/scratch/people/plgsirous
 Wavefunction directory         : /net/people/plgsirous/wfu/
 Main file repository           : /net/scratch/people/plgsirous/

 SHA1      : 
 NAME      : 
 ARCHNAME  : linux/x86_64
 FC        : /net/software/local/intel/impi/2018.1.163/bin64/mpiifort
 BLASLIB   : -L/net/software/local/intel/compilers_and_libraries_2018.1.163/linux/mkl/lib/intel64 -lmkl_scalapack_ilp64 -lmkl_intel_ilp64 -lmkl_intel_thread -lmkl_core -lmkl_blacs_intelmpi_ilp64 -liomp5 -lpthread -lm -ldl
 id        : pl

 Nodes     nprocs
 p1390        1

 Using customized tuning parameters: mindgm=7; mindgv=20; mindgc=1; mindgr=1; noblas=0; minvec=7
 default implementation of scratch files=df  

 memory,3000,m
 zsymel=nosym
 angstrom
 geometry={
 C1        -3.2772    1.4825     1.2719
 H1        -2.4640    0.8996     1.6510
 H2        -3.1608    2.5010     1.5785
 H3        -4.2018    1.0992     1.6501
 H4        -3.2685    1.4210     0.2037
 O1        -4.4148    4.4364     3.5758
 H5        -3.8890    4.7809     2.7934
 H6        -4.6266    5.2197     4.0992
 }
 basis=vtz-f12
 gthresh,orbital=1d-8,energy=1d-8,twoint=1.d-19
 
 
 nkerna=1
 nkernb=1
 nkernab=$nkerna+$nkernb
 
                                                                                 ! AB Dimer
 {hf,accu=1.d-8}
 E_HF_AB=energy
 core,$nkernab
 {ccsd(t)-f12,scale_trip=1,THRF12=1.d-12}
 E_F12_AB=energy
 
                                                                                 ! Monomer A Part
 
 dummy,6,7,8;
 {hf,accu=1.d-8}
 E_HF_A=energy
 core,$nkerna
 {ccsd(t)-f12,scale_trip=1,THRF12=1.d-12}
 E_F12_A=energy
 
                                                                                 ! Monomer B Part
 
 dummy,1,2,3,4,5;
 {hf,accu=1.d-8}
 E_HF_B=energy
 core,$nkernb
 {ccsd(t)-f12,scale_trip=1,THRF12=1.d-12}
 E_F12_B=energy
 
 E_int_HF = E_HF_AB-(E_HF_A+E_HF_B)
 E_int_F12 = E_F12_AB-(E_F12_A+E_F12_B)
 
 
 show,E_int_HF,E_int_F12

 Variables initialized (889), CPU time= 0.01 sec
 Commands  initialized (702), CPU time= 0.00 sec, 572 directives.
 Default parameters read. Elapsed time= 0.08 sec

 Checking input...
 Passed
1


                                         ***  PROGRAM SYSTEM MOLPRO  ***
                                       Copyright, TTI GmbH Stuttgart, 2015
                                    Version 2015.1 linked Jul  2 2018 15:03:07


 **********************************************************************************************************************************
 LABEL *                                                                                 
  64 bit serial version                                                                  DATE: 17-Jan-19          TIME: 14:52:53  
 **********************************************************************************************************************************

 SHA1:             
 **********************************************************************************************************************************
 SETTING ZSYMEL         =    NOSYM
 ZSYMEL=NOSYM
 ZUNIT=ANG
 

Geometry recognized as XYZ


 Variable memory set to 3000000000 words,  buffer space   230000 words

 SETTING BASIS          =    VTZ-F12

 THRESHOLDS:

 ZERO    =  1.00D-12  ONEINT  =  1.00D-12  TWOINT  =  1.00D-19  PREFAC  =  1.00D-14  LOCALI  =  1.00D-09  EORDER  =  1.00D-04
 ENERGY  =  1.00D-08  ETEST   =  0.00D+00  EDENS   =  0.00D+00  THRDEDEF=  1.00D-06  GRADIENT=  1.00D-02  STEP    =  1.00D-03
 ORBITAL =  1.00D-08  CIVEC   =  1.00D-05  COEFF   =  1.00D-04  PRINTCI =  5.00D-02  PUNCHCI =  9.90D+01  OPTGRAD =  3.00D-04
 OPTENERG=  1.00D-06  OPTSTEP =  3.00D-04  THRGRAD =  1.00D-10  COMPRESS=  1.00D-11  VARMIN  =  1.00D-07  VARMAX  =  1.00D-03
 THRDOUB =  0.00D+00  THRDIV  =  1.00D-05  THRRED  =  1.00D-07  THRPSP  =  1.00D+00  THRDC   =  1.00D-10  THRCS   =  1.00D-10
 THRNRM  =  1.00D-08  THREQ   =  0.00D+00  THRDE   =  1.00D+00  THRREF  =  1.00D-05  SPARFAC =  1.00D+00  THRDLP  =  1.00D-07
 THRDIA  =  1.00D-10  THRDLS  =  1.00D-07  THRGPS  =  0.00D+00  THRKEX  =  0.00D+00  THRDIS  =  2.00D-01  THRVAR  =  1.00D-10
 THRLOC  =  1.00D-06  THRGAP  =  1.00D-06  THRLOCT = -1.00D+00  THRGAPT = -1.00D+00  THRORB  =  1.00D-06  THRMLTP =  0.00D+00
 THRCPQCI=  1.00D-10  KEXTA   =  0.00D+00  THRCOARS=  0.00D+00  SYMTOL  =  1.00D-06  GRADTOL =  1.00D-06  THROVL  =  1.00D-08
 THRORTH =  1.00D-08  GRID    =  1.00D-06  GRIDMAX =  1.00D-03  DTMAX   =  0.00D+00  THROCCDE=  1.00D-01  THROCCDE=  1.00D-01


 SETTING NKERNA         =         1.00000000                                  
 SETTING NKERNB         =         1.00000000                                  
 SETTING NKERNAB        =         2.00000000                                  


 Recomputing integrals since basis changed


 Using spherical harmonics

 Library entry C      S cc-pVTZ-F12          selected for orbital group  1
 Library entry C      P cc-pVTZ-F12          selected for orbital group  1
 Library entry C      D cc-pVTZ-F12          selected for orbital group  1
 Library entry C      F cc-pVTZ-F12          selected for orbital group  1
 Library entry H      S cc-pVTZ-F12          selected for orbital group  2
 Library entry H      P cc-pVTZ-F12          selected for orbital group  2
 Library entry H      D cc-pVTZ-F12          selected for orbital group  2
 Library entry O      S cc-pVTZ-F12          selected for orbital group  3
 Library entry O      P cc-pVTZ-F12          selected for orbital group  3
 Library entry O      D cc-pVTZ-F12          selected for orbital group  3
 Library entry O      F cc-pVTZ-F12          selected for orbital group  3


 PROGRAM * SEWARD (Integral evaluation for generally contracted gaussian basis sets)     Author: Roland Lindh, 1990

 Geometry written to block  1 of record 700


 Point group  C1  



 ATOMIC COORDINATES

 NR  ATOM    CHARGE       X              Y              Z

   1  C1      6.00   -6.193010455    2.801518980    2.403542658
   2  H1      1.00   -4.656285171    1.699997622    3.119937832
   3  H2      1.00   -5.973046335    4.726205038    2.982932688
   4  H3      1.00   -7.940251230    2.077186956    3.118237078
   5  H4      1.00   -6.176569838    2.685300823    0.384937212
   6  O1      8.00   -8.342762895    8.383580979    6.757282676
   7  H5      1.00   -7.349144898    9.034591629    5.278760956
   8  H6      1.00   -8.743006888    9.863803452    7.746365330

 Bond lengths in Bohr (Angstrom)

 1-2  2.021904040  1-3  2.022002335  1-4  2.021953343  1-5  2.022015060  6-7  1.896606987
     ( 1.069945541)     ( 1.069997556)     ( 1.069971630)     ( 1.070004290)     ( 1.003641196)

 6-8  1.824702255
     ( 0.965590850)

 Bond angles

  2-1-3  109.53398059   2-1-4  109.65604535   2-1-5  108.43490854   3-1-4  109.49436728

  3-1-5  109.86987750   4-1-5  109.83468330   7-6-8  105.01239280

 NUCLEAR CHARGE:                   20
 NUMBER OF PRIMITIVE AOS:         270
 NUMBER OF SYMMETRY AOS:          246
 NUMBER OF CONTRACTIONS:          214   ( 214A   )
 NUMBER OF CORE ORBITALS:           2   (   2A   )
 NUMBER OF VALENCE ORBITALS:       14   (  14A   )


 NUCLEAR REPULSION ENERGY   35.98231600


 Eigenvalues of metric

         1 0.744E-04 0.179E-03 0.296E-03 0.328E-03 0.335E-03 0.429E-03 0.542E-03 0.556E-03


 Contracted 2-electron integrals neglected if value below      1.0D-19
 AO integral compression algorithm  1   Integral accuracy      1.0D-19

     2045.247 MB (compressed) written to integral file ( 83.9%)


 NUMBER OF SORTED TWO-ELECTRON INTEGRALS:  264626515.     BUFFER LENGTH:  32768
 NUMBER OF SEGMENTS:  17  SEGMENT LENGTH:   15999762      RECORD LENGTH: 524288

 Memory used in sort:      16.56 MW

 SORT1 READ   304636334. AND WROTE   244857398. INTEGRALS IN    709 RECORDS. CPU TIME:     3.30 SEC, REAL TIME:     7.29 SEC
 SORT2 READ   244857398. AND WROTE   264626515. INTEGRALS IN   7802 RECORDS. CPU TIME:     3.21 SEC, REAL TIME:     8.10 SEC

 FILE SIZES:   FILE 1:  2067.0 MBYTE,  FILE 4:  2973.8 MBYTE,   TOTAL:   5040.7 MBYTE

 OPERATOR DM      FOR CENTER  0  COORDINATES:    0.000000    0.000000    0.000000


 **********************************************************************************************************************************
 DATASETS  * FILE   NREC   LENGTH (MB)   RECORD NAMES
              1      19     1813.96       500      610      700      900      950      970     1000      129      960     1100   
                                          VAR    BASINP    GEOM    SYMINP    ZMAT    AOBASIS   BASIS     P2S    ABASIS      S 
                                         1400     1410     1200     1210     1080     1600     1650     1300     1700   
                                           T        V       H0       H01     AOSYM     SMH    MOLCAS    ERIS     OPER   

 PROGRAMS   *        TOTAL       INT
 CPU TIMES  *        16.08     15.96
 REAL TIME  *        35.17 SEC
 DISK USED  *         5.04 GB      
 **********************************************************************************************************************************


 PROGRAM * RHF-SCF (CLOSED SHELL)       Authors: W. Meyer, H.-J. Werner


 NUMBER OF ELECTRONS:      10+   10-    SPACE SYMMETRY=1    SPIN SYMMETRY: Singlet 
 CONVERGENCE THRESHOLDS:    1.00E-04 (Density)    1.00E-09 (Energy)
 MAX. NUMBER OF ITERATIONS:       60
 INTERPOLATION TYPE:            DIIS
 INTERPOLATION STEPS:              2 (START)      1 (STEP)
 LEVEL SHIFTS:                  0.00 (CLOSED)  0.00 (OPEN) 



 Orbital guess generated from atomic densities. Full valence occupancy:   16

 Molecular orbital dump at record        2100.2

 Initial occupancy:  10

 ITERATION    DDIFF          GRAD             ENERGY        2-EL.EN.            DIPOLE MOMENTS         DIIS   ORB.
    1      0.000D+00      0.000D+00      -116.21737929    157.681568    0.31371    1.08668   -0.26201    0    start
    2      0.000D+00      0.549D-02      -116.26179258    152.634060    0.14643    0.62790   -0.10057    1    diag
    3      0.564D-02      0.325D-02      -116.27567654    154.734778    0.18802    0.74490   -0.14064    2    diag
    4      0.184D-02      0.481D-03      -116.27634575    154.620033    0.18452    0.73448   -0.13731    3    diag
    5      0.420D-03      0.142D-03      -116.27641647    154.615817    0.18384    0.73417   -0.13644    4    diag
    6      0.157D-03      0.343D-04      -116.27642039    154.621425    0.18353    0.73340   -0.13610    5    diag
    7      0.401D-04      0.694D-05      -116.27642063    154.619776    0.18351    0.73339   -0.13606    6    diag
    8      0.104D-04      0.179D-05      -116.27642065    154.619963    0.18347    0.73333   -0.13601    7    diag
    9      0.286D-05      0.423D-06      -116.27642065    154.619935    0.18346    0.73330   -0.13600    8    diag
   10      0.630D-06      0.489D-07      -116.27642065    154.619935    0.18346    0.73330   -0.13600    9    orth
   11      0.124D-06      0.112D-07      -116.27642065    154.619938    0.18346    0.73330   -0.13600    0    orth

 Final occupancy:  10

 !RHF STATE 1.1 Energy               -116.276420650041
 Nuclear energy                        35.98231600
 One-electron energy                 -229.56870549
 Two-electron energy                   77.30996884
 Virial quotient                       -1.00084266
 !RHF STATE 1.1 Dipole moment           0.18346270     0.73330394    -0.13599873
 Dipole moment /Debye                   0.46628512     1.86375063    -0.34565165

 Orbital energies:

         1.1          2.1          3.1          4.1          5.1          6.1          7.1          8.1          9.1         10.1
    -20.569776   -11.191415    -1.339831    -0.945672    -0.705069    -0.579356    -0.546477    -0.544945    -0.543118    -0.508724

        11.1         12.1
      0.058760     0.069616

 HOMO     10.1    -0.508724 =     -13.8431eV
 LUMO     11.1     0.058760 =       1.5989eV
 LUMO-HOMO         0.567484 =      15.4420eV


 **********************************************************************************************************************************
 DATASETS  * FILE   NREC   LENGTH (MB)   RECORD NAMES
              1      19     1813.96       500      610      700      900      950      970     1000      129      960     1100   
                                          VAR    BASINP    GEOM    SYMINP    ZMAT    AOBASIS   BASIS     P2S    ABASIS      S 
                                         1400     1410     1200     1210     1080     1600     1650     1300     1700   
                                           T        V       H0       H01     AOSYM     SMH    MOLCAS    ERIS     OPER   

              2       4        3.81       700     1000      520     2100   
                                         GEOM     BASIS   MCVARS     RHF  

 PROGRAMS   *        TOTAL        HF       INT
 CPU TIMES  *        42.93     26.84     15.96
 REAL TIME  *        67.42 SEC
 DISK USED  *         5.04 GB      
 **********************************************************************************************************************************
 SETTING E_HF_AB        =      -116.27642065  AU                              


 PROGRAM * CCSD (Closed-shell coupled cluster)     Authors: C. Hampel, H.-J. Werner, 1991, M. Deegan, P.J. Knowles, 1992

                                  CCSD-F12 implementation by  H.-J. Werner, 2007

                   Density fitting integral evaluation by F.R. Manby, 2003,2007, G. Knizia, 2010

 Basis set CC-PVTZ/JKFIT generated.      Number of basis functions:   338 
 Basis set CC-PVTZ-F12/OPTRI generated.  Number of basis functions:   396 
 Basis set AUG-CC-PVTZ/MP2FIT generated. Number of basis functions:   488 

 Convergence thresholds:  THRVAR = 1.00D-08  THRDEN = 1.00D-08

 CCSD(T)     terms to be evaluated (factor= 1.000)


 Number of core orbitals:           2 (   2 )
 Number of closed-shell orbitals:   8 (   8 )
 Number of external orbitals:     204 ( 204 )

 Molecular orbitals read from record     2100.2  Type=RHF/CANONICAL (state 1.1)

 MP2-F12 correlation treatment (H.-J. Werner, 2006)
 ==================================================

 Using MP2-F12 with ansatz 3C(FIX)

 Using projected zeroth-order Hamiltonian (+Z)

 FOCKRIB=T FOCKRIC=T FOCKRIP=T CABSP=T CABSA=T CABSK=T CABSF=T GBC=F EBC=F DMAT=T NOFIK=T NOPAO=1 SOLVE=-1  USEPAO=0
 EXCH_A= T EXCH_B= F EXCH_C= F EXCH_P= F
 
 Geminal basis:    OPTFULL  GEM_TYPE=SLATER  BETA=1.0  NGEM=6

 Optimizing Gaussian exponents for each gem_beta

 Geminal optimization for beta= 1.0000
 Weight function:   m=0, omega= 1.4646

 Augmented Hessian optimization of geminal fit. Trust ratio= 0.40000
 Convergence reached after   2 iterations. Final gradient= 8.26D-16, Step= 4.26D-06, Delta= 1.28D-09
 
 Alpha:                 0.19532     0.81920     2.85917     9.50073    35.69989   197.79328
 Coeff:                 0.27070     0.30552     0.18297     0.10986     0.06810     0.04224
 

 All pairs explicitly correlated. Number of r12-pairs:           36

 Excluding core orbitals from MO domains
 
 AO(A)-basis ORBITAL           loaded. Number of functions:     214
 RI(R)-basis CC-PVTZ-F12/OPTRI loaded. Number of functions:     396
 DF-basis CC-PVTZ/JKFIT        loaded. Number of functions:     338

 Screening thresholds:   THRAO=  1.00D-10  THRMO=  1.00D-09  THRPROD=  1.00D-09
                         THRSW=  1.00D-05  THROV=  1.00D-12  THRAOF12=   1.00D-08

 CPU time for Fock operators                      2.98 sec
 
 Construction of ABS:
 Smallest eigenvalue of S          3.58E-04  (threshold= 1.00E-08)
 Ratio eigmin/eigmax               4.60E-05  (threshold= 1.00E-09)
 Smallest eigenvalue of S kept     3.58E-04  (threshold= 3.58E-04, 0 functions deleted, 396 kept)
 
 Construction of CABS:
 Smallest eigenvalue of S          8.21E-07  (threshold= 1.00E-08)
 Ratio eigmin/eigmax               8.21E-07  (threshold= 1.00E-09)
 Smallest eigenvalue of S kept     8.21E-07  (threshold= 8.21E-07, 0 functions deleted, 396 kept)
 
 CPU time for CABS singles                        0.11 sec

 CABS-singles contribution of  -0.00159485 patched into reference energy.
 New reference energy        -116.27801550
 
 AO(A)-basis ORBITAL           loaded. Number of functions:     214
 RI(R)-basis CC-PVTZ-F12/OPTRI loaded. Number of functions:     396
 DF-basis AUG-CC-PVTZ/MP2FIT   loaded. Number of functions:     488

 Screening thresholds:   THRAO=  1.00D-10  THRMO=  1.00D-09  THRPROD=  1.00D-09
                         THRSW=  1.00D-05  THROV=  1.00D-12  THRAOF12=   1.00D-08

 CPU time for 3-index integral evaluation         6.40 sec
 CPU time for first  half transformation          0.74 sec ( 6959.1 MFLOP/sec)
 CPU time for second half transformation          0.01 sec (11696.4 MFLOP/sec)
 CPU time for sorting                             0.04 sec
 CPU time for fitting                             0.09 sec (27095.5 MFLOP/sec)
 CPU time for tilde quantities                    0.08 sec (40198.7 MFLOP/sec)
 CPU time for assembly                            0.84 sec (35641.1 MFLOP/sec)
 CPU time for tranop_f12                          1.08 sec (35862.7 MFLOP/sec)
 CPU time for f12 integrals (total)              10.80 sec, Elapsed time:     85.43 sec
 CPU time for f12 matrices (total)                0.36 sec, Elapsed time:     16.96 sec

 Diagonal F12 approximation with fixed coefficients:  TSING= 0.500,  TTRIP= 0.250 (scaled by -1/beta)

 DF-MP2-F12 energy corrections:
 ==============================
 Approx.                                    Singlet             Triplet             Total
 DF-MP2-F12/3*C(DX,FIX)                -0.041393249207     -0.004143098290     -0.045536347497
 DF-MP2-F12/3*C(FIX)                   -0.039269999332     -0.003873573351     -0.043143572683
 DF-MP2-F12/3C(FIX)                    -0.039130084418     -0.003980270802     -0.043110355219

 DF-MP2-F12 correlation energies:
 ================================
 Approx.                                    Singlet             Triplet             Ecorr            Total Energy
 DF-MP2                                -0.321062235467     -0.156161820085     -0.477224055552   -116.755239560299
 DF-MP2-F12/3*C(DX,FIX)                -0.362455484674     -0.160304918376     -0.522760403050   -116.800775907797
 DF-MP2-F12/3*C(FIX)                   -0.360332234799     -0.160035393437     -0.520367628235   -116.798383132982
 DF-MP2-F12/3C(FIX)                    -0.360192319885     -0.160142090887     -0.520334410772   -116.798349915519

 SCS-DF-MP2 energies (F_SING= 1.20000  F_TRIP= 0.62222  F_PARALLEL= 0.33333):
 ============================================================================
 SCS-DF-MP2                            -0.482442037280   -116.760457542027
 SCS-DF-MP2-F12/3*C(DX,FIX)            -0.534691864154   -116.812707368901
 SCS-DF-MP2-F12/3*C(FIX)               -0.531976259897   -116.809991764644
 SCS-DF-MP2-F12/3C(FIX)                -0.531874751525   -116.809890256272
 Symmetry transformation completed.

 Number of N-1 electron functions:               8
 Number of N-2 electron functions:              36
 Number of singly external CSFs:              1632
 Number of doubly external CSFs:           1332528
 Total number of CSFs:                     1334161

 Length of J-op  integral file:             205.73 MB
 Length of K-op  integral file:             258.78 MB
 Length of 3-ext integral record:             0.00 MB

 Memory could be reduced to 93.27 Mwords without degradation in triples

 Integral transformation finished. Total CPU:   9.73 sec, npass=  1  Memory used:  48.07 MW

 Reference energy:                   -116.27801550

 Adding F12 terms to K(Cij), methodcc=6,  factor= 1.0

 ITER.      SQ.NORM     CORR.ENERGY   TOTAL ENERGY   ENERGY CHANGE        DEN1      VAR(S)    VAR(P)  DIIS     TIME  TIME/IT
   1      1.13293826    -0.49235393  -116.77036944    -0.01505334    -0.00344616  0.14D-02  0.20D-02  1  1    33.13     9.15
   2      1.14098385    -0.49292022  -116.77093573    -0.00056629    -0.00964877  0.30D-04  0.23D-03  2  2    42.18    13.97
   3      1.14403076    -0.49317783  -116.77119334    -0.00025761    -0.00215849  0.12D-04  0.14D-04  3  3    51.17    12.84
   4      1.14501999    -0.49321116  -116.77122667    -0.00003333    -0.00061337  0.61D-06  0.11D-05  4  4    60.22    12.03
   5      1.14517984    -0.49321038  -116.77122588     0.00000079    -0.00003045  0.16D-06  0.64D-07  5  5    69.27    11.56
   6      1.14521445    -0.49320820  -116.77122370     0.00000218    -0.00000682  0.14D-07  0.69D-08  6  6    78.32    11.24
   7      1.14522246    -0.49320753  -116.77122303     0.00000067    -0.00000238  0.21D-08  0.60D-09  6  2    87.36    11.00
   8      1.14522531    -0.49320740  -116.77122291     0.00000013    -0.00000057  0.19D-09  0.61D-10  6  1    96.36    10.82
   9      1.14522592    -0.49320741  -116.77122292    -0.00000001    -0.00000002  0.16D-10  0.12D-10  6  3   105.39    10.69
  10      1.14522600    -0.49320742  -116.77122293    -0.00000001     0.00000009  0.22D-11  0.13D-11  6  4   114.47    10.58
  11      1.14522598    -0.49320743  -116.77122293    -0.00000000     0.00000006  0.34D-12  0.16D-12  6  5   123.52    10.49
  12      1.14522595    -0.49320743  -116.77122293    -0.00000000     0.00000002  0.69D-13  0.20D-13  6  6   132.54    10.42

 Norm of t1 vector:      0.04936789      S-energy:     0.00000001      T1 diagnostic:  0.00872709
                                                                       D1 diagnostic:  0.01868807

 Adding energy correction from Wij-K(Fij), methodcc=6  factor= 1.0
 
  CCSD correlation energy              -0.493207426849
  MP2-F12 correction (uncoupled)       -0.041685819702
  C*T doubles correction               -0.001127992935
  f12b correction                       0.007815158823


 Total CPU time for triples:    160.48 sec

  Ecorr(MP2)                           -0.477300593277
  Ecorr(MP2-F12)                       -0.520410948496
  Scale factor for triples energy       1.090321185070


 RESULTS
 =======

  Reference energy                   -116.276420650042
  F12 singles correction               -0.001594854705

 F12 singles corrections added to reference energy

  New reference energy               -116.278015504747

  F12a singlet correction              -0.038954380486
  F12a triplet correction              -0.003859432152
  F12a total correction                -0.042813812637

 F12a corrections for ansatz F12/3C(FIX) added to CCSD energy
 
  CCSD-F12a singlet pair energy        -0.389460149124
  CCSD-F12a triplet pair energy        -0.146561096676
  CCSD-F12a correlation energy         -0.536021239486

  Triples (T) contribution (scaled)    -0.016939094298
  Total correlation energy             -0.552960333784

  CCSD-F12a total energy             -116.814036744233
  CCSD[T]-F12a energy                -116.831563634192
  CCSD-T-F12a energy                 -116.830749963914
 !CCSD(T)-F12a total energy          -116.830975838531

 F12b corrections for ansatz F12/3C(FIX) added to CCSD(T)-F12a energy

  CCSD-F12b singlet pair energy        -0.382110888051
  CCSD-F12b triplet pair energy        -0.146095198925
  CCSD-F12b correlation energy         -0.528206080663

  Triples (T) contribution (scaled)    -0.016939094298
  Total correlation energy             -0.545145174961

  CCSD-F12b total energy             -116.806221585410
  CCSD[T]-F12b energy                -116.823748475369
  CCSD-T-F12b energy                 -116.822934805091
 !CCSD(T)-F12b total energy          -116.823160679708

 Timing summary (sec):

 STEP                 CPU(USER)    SYS     CPU(TOT)    WALL
 Transformation          9.85      1.20     11.05     11.35
 CCSD iterations       108.22      6.58    114.80    125.78
 Triples               160.48      2.69    163.17    163.22
 MP2-F12                14.47      1.43     15.90    106.12
 F12b energy             7.20      0.35      7.55      7.55

 Program statistics:

 Available memory in ccsd:              2999999464
 Min. memory needed in ccsd:               3963025
 Max. memory used in ccsd:                 5096465
 Max. memory used in cckext:               3666031 (13 integral passes)



 **********************************************************************************************************************************
 DATASETS  * FILE   NREC   LENGTH (MB)   RECORD NAMES
              1      20     2107.51       500      610      700      900      950      970     1000      129      960     1100   
                                          VAR    BASINP    GEOM    SYMINP    ZMAT    AOBASIS   BASIS     P2S    ABASIS      S 
                                         1400     1410     1200     1210     1080     1600     1650     1300     1700     1380   
                                           T        V       H0       H01     AOSYM     SMH    MOLCAS    ERIS     OPER     JKOP   

              2       6        4.74       700     1000      520     2100     7360     7350   
                                         GEOM     BASIS   MCVARS     RHF    F12ABS    EF12   

 PROGRAMS   *        TOTAL   CCSD(T)        HF       INT
 CPU TIMES  *       343.20    300.27     26.84     15.96
 REAL TIME  *       482.03 SEC
 DISK USED  *         5.04 GB      
 **********************************************************************************************************************************
 SETTING E_F12_AB(1)    =      -116.83097584  AU                              
 SETTING E_F12_AB(2)    =      -116.82316068  AU                              

 Dummy atoms: O1  H5  H6


 Recomputing one-electron integrals since nuclear charges changed


 PROGRAM * SEWARD (Integral evaluation for generally contracted gaussian basis sets)     Author: Roland Lindh, 1990

 Geometry written to block  1 of record 700


 Point group  C1  



 ATOMIC COORDINATES

 NR  ATOM    CHARGE       X              Y              Z

   1  C1      6.00   -6.193010455    2.801518980    2.403542658
   2  H1      1.00   -4.656285171    1.699997622    3.119937832
   3  H2      1.00   -5.973046335    4.726205038    2.982932688
   4  H3      1.00   -7.940251230    2.077186956    3.118237078
   5  H4      1.00   -6.176569838    2.685300823    0.384937212
   6  O1      0.00   -8.342762895    8.383580979    6.757282676
   7  H5      0.00   -7.349144898    9.034591629    5.278760956
   8  H6      0.00   -8.743006888    9.863803452    7.746365330

 Bond lengths in Bohr (Angstrom)

 1-2  2.021904040  1-3  2.022002335  1-4  2.021953343  1-5  2.022015060  6-7  1.896606987
     ( 1.069945541)     ( 1.069997556)     ( 1.069971630)     ( 1.070004290)     ( 1.003641196)

 6-8  1.824702255
     ( 0.965590850)

 Bond angles

  2-1-3  109.53398059   2-1-4  109.65604535   2-1-5  108.43490854   3-1-4  109.49436728

  3-1-5  109.86987750   4-1-5  109.83468330   7-6-8  105.01239280

 NUCLEAR CHARGE:                   10
 NUMBER OF PRIMITIVE AOS:         270
 NUMBER OF SYMMETRY AOS:          246
 NUMBER OF CONTRACTIONS:          214   ( 214A   )
 NUMBER OF CORE ORBITALS:           1   (   1A   )
 NUMBER OF VALENCE ORBITALS:        8   (   8A   )

 MOLECULE CHANGED: INITIALIZING OCCUPATION AND DUMP RECORDS


 NUCLEAR REPULSION ENERGY   13.68681606


 Eigenvalues of metric

         1 0.744E-04 0.179E-03 0.296E-03 0.328E-03 0.335E-03 0.429E-03 0.542E-03 0.556E-03


 Contracted 2-electron integrals neglected if value below      1.0D-19

 OPERATOR DM      FOR CENTER  0  COORDINATES:    0.000000    0.000000    0.000000


 **********************************************************************************************************************************
 DATASETS  * FILE   NREC   LENGTH (MB)   RECORD NAMES
              1      19     1813.96       500      610      700      900      950      970     1000      129      960     1100   
                                          VAR    BASINP    GEOM    SYMINP    ZMAT    AOBASIS   BASIS     P2S    ABASIS      S 
                                         1400     1410     1200     1210     1080     1600     1650     1300     1700   
                                           T        V       H0       H01     AOSYM     SMH    MOLCAS    ERIS     OPER   

              2       6        4.74       700     1000      520     2100     7360     7350   
                                         GEOM     BASIS   MCVARS     RHF    F12ABS    EF12   

 PROGRAMS   *        TOTAL       INT   CCSD(T)        HF       INT
 CPU TIMES  *       343.26      0.06    300.27     26.84     15.96
 REAL TIME  *       491.87 SEC
 DISK USED  *         5.04 GB      
 **********************************************************************************************************************************


 PROGRAM * RHF-SCF (CLOSED SHELL)       Authors: W. Meyer, H.-J. Werner


 NUMBER OF ELECTRONS:       5+    5-    SPACE SYMMETRY=1    SPIN SYMMETRY: Singlet 
 CONVERGENCE THRESHOLDS:    1.00E-04 (Density)    1.00E-09 (Energy)
 MAX. NUMBER OF ITERATIONS:       60
 INTERPOLATION TYPE:            DIIS
 INTERPOLATION STEPS:              2 (START)      1 (STEP)
 LEVEL SHIFTS:                  0.00 (CLOSED)  0.00 (OPEN) 



 Orbital guess generated from atomic densities. Full valence occupancy:    9

 Molecular orbital dump at record        2101.2

 Initial occupancy:   5

 ITERATION    DDIFF          GRAD             ENERGY        2-EL.EN.            DIPOLE MOMENTS         DIIS   ORB.
    1      0.000D+00      0.000D+00       -40.19565385     53.501367    0.00403   -0.00277   -0.00131    0    start
    2      0.000D+00      0.368D-02       -40.21289859     52.216644    0.00119   -0.00091   -0.00040    1    diag
    3      0.318D-02      0.143D-02       -40.21516742     52.670307    0.00171   -0.00127   -0.00057    2    diag
    4      0.857D-03      0.357D-03       -40.21548563     52.615358    0.00150   -0.00113   -0.00050    3    diag
    5      0.330D-03      0.463D-04       -40.21549110     52.617512    0.00147   -0.00111   -0.00049    4    diag
    6      0.581D-04      0.375D-05       -40.21549114     52.617657    0.00147   -0.00111   -0.00049    5    diag
    7      0.874D-05      0.302D-06       -40.21549114     52.617617    0.00146   -0.00111   -0.00049    6    diag
    8      0.958D-06      0.227D-07       -40.21549114     52.617619    0.00146   -0.00111   -0.00049    0    orth

 Final occupancy:   5

 !RHF STATE 1.1 Energy                -40.215491142928
 Nuclear energy                        13.68681606
 One-electron energy                  -80.21111653
 Two-electron energy                   26.30880933
 Virial quotient                       -0.99832324
 !RHF STATE 1.1 Dipole moment           0.00146414    -0.00110911    -0.00048585
 Dipole moment /Debye                   0.00372123    -0.00281889    -0.00123483

 Orbital energies:

         1.1          2.1          3.1          4.1          5.1          6.1          7.1
    -11.196270    -0.950713    -0.551939    -0.550003    -0.547824     0.052480     0.066631

 HOMO      5.1    -0.547824 =     -14.9071eV
 LUMO      6.1     0.052480 =       1.4281eV
 LUMO-HOMO         0.600305 =      16.3351eV


 **********************************************************************************************************************************
 DATASETS  * FILE   NREC   LENGTH (MB)   RECORD NAMES
              1      19     1813.96       500      610      700      900      950      970     1000      129      960     1100   
                                          VAR    BASINP    GEOM    SYMINP    ZMAT    AOBASIS   BASIS     P2S    ABASIS      S 
                                         1400     1410     1200     1210     1080     1600     1650     1300     1700   
                                           T        V       H0       H01     AOSYM     SMH    MOLCAS    ERIS     OPER   

              2       7        8.14       700     1000      520     2100     7360     7350     2101   
                                         GEOM     BASIS   MCVARS     RHF    F12ABS    EF12      RHF  

 PROGRAMS   *        TOTAL        HF       INT   CCSD(T)        HF       INT
 CPU TIMES  *       363.32     20.06      0.06    300.27     26.84     15.96
 REAL TIME  *       517.96 SEC
 DISK USED  *         5.04 GB      
 **********************************************************************************************************************************
 SETTING E_HF_A         =       -40.21549114  AU                              


 PROGRAM * CCSD (Closed-shell coupled cluster)     Authors: C. Hampel, H.-J. Werner, 1991, M. Deegan, P.J. Knowles, 1992

                                  CCSD-F12 implementation by  H.-J. Werner, 2007

                   Density fitting integral evaluation by F.R. Manby, 2003,2007, G. Knizia, 2010

 Basis set CC-PVTZ/JKFIT generated.      Number of basis functions:   338 
 Basis set CC-PVTZ-F12/OPTRI generated.  Number of basis functions:   396 
 Basis set AUG-CC-PVTZ/MP2FIT generated. Number of basis functions:   488 

 Convergence thresholds:  THRVAR = 1.00D-08  THRDEN = 1.00D-08

 CCSD(T)     terms to be evaluated (factor= 1.000)


 Number of core orbitals:           1 (   1 )
 Number of closed-shell orbitals:   4 (   4 )
 Number of external orbitals:     209 ( 209 )

 Molecular orbitals read from record     2101.2  Type=RHF/CANONICAL (state 1.1)

 MP2-F12 correlation treatment (H.-J. Werner, 2006)
 ==================================================

 Using MP2-F12 with ansatz 3C(FIX)

 Using projected zeroth-order Hamiltonian (+Z)

 FOCKRIB=T FOCKRIC=T FOCKRIP=T CABSP=T CABSA=T CABSK=T CABSF=T GBC=F EBC=F DMAT=T NOFIK=T NOPAO=1 SOLVE=-1  USEPAO=0
 EXCH_A= T EXCH_B= F EXCH_C= F EXCH_P= F
 
 Geminal basis:    OPTFULL  GEM_TYPE=SLATER  BETA=1.0  NGEM=6

 Optimizing Gaussian exponents for each gem_beta

 Geminal optimization for beta= 1.0000
 Weight function:   m=0, omega= 1.4646

 Augmented Hessian optimization of geminal fit. Trust ratio= 0.40000
 Convergence reached after   2 iterations. Final gradient= 8.26D-16, Step= 4.26D-06, Delta= 1.28D-09
 
 Alpha:                 0.19532     0.81920     2.85917     9.50073    35.69989   197.79328
 Coeff:                 0.27070     0.30552     0.18297     0.10986     0.06810     0.04224
 

 All pairs explicitly correlated. Number of r12-pairs:           10

 Excluding core orbitals from MO domains
 
 AO(A)-basis ORBITAL           loaded. Number of functions:     214
 RI(R)-basis CC-PVTZ-F12/OPTRI loaded. Number of functions:     396
 DF-basis CC-PVTZ/JKFIT        loaded. Number of functions:     338

 Screening thresholds:   THRAO=  1.00D-10  THRMO=  1.00D-09  THRPROD=  1.00D-09
                         THRSW=  1.00D-05  THROV=  1.00D-12  THRAOF12=   1.00D-08

 CPU time for Fock operators                      2.86 sec
 
 Construction of ABS:
 Smallest eigenvalue of S          3.58E-04  (threshold= 1.00E-08)
 Ratio eigmin/eigmax               4.60E-05  (threshold= 1.00E-09)
 Smallest eigenvalue of S kept     3.58E-04  (threshold= 3.58E-04, 0 functions deleted, 396 kept)
 
 Construction of CABS:
 Smallest eigenvalue of S          8.21E-07  (threshold= 1.00E-08)
 Ratio eigmin/eigmax               8.21E-07  (threshold= 1.00E-09)
 Smallest eigenvalue of S kept     8.21E-07  (threshold= 8.21E-07, 0 functions deleted, 396 kept)
 
 CPU time for CABS singles                        0.12 sec

 CABS-singles contribution of  -0.00063671 patched into reference energy.
 New reference energy         -40.21612785
 
 AO(A)-basis ORBITAL           loaded. Number of functions:     214
 RI(R)-basis CC-PVTZ-F12/OPTRI loaded. Number of functions:     396
 DF-basis AUG-CC-PVTZ/MP2FIT   loaded. Number of functions:     488

 Screening thresholds:   THRAO=  1.00D-10  THRMO=  1.00D-09  THRPROD=  1.00D-09
                         THRSW=  1.00D-05  THROV=  1.00D-12  THRAOF12=   1.00D-08

 CPU time for 3-index integral evaluation         6.41 sec
 CPU time for first  half transformation          0.71 sec ( 3626.6 MFLOP/sec)
 CPU time for second half transformation          0.04 sec (  731.0 MFLOP/sec)
 CPU time for fitting                             0.04 sec (29768.0 MFLOP/sec)
 CPU time for tilde quantities                    0.05 sec (31777.9 MFLOP/sec)
 CPU time for assembly                            0.21 sec (37981.3 MFLOP/sec)
 CPU time for tranop_f12                          0.27 sec (35487.5 MFLOP/sec)
 CPU time for f12 integrals (total)               8.19 sec, Elapsed time:      8.66 sec
 CPU time for f12 matrices (total)                0.08 sec, Elapsed time:      0.12 sec

 Diagonal F12 approximation with fixed coefficients:  TSING= 0.500,  TTRIP= 0.250 (scaled by -1/beta)

 DF-MP2-F12 energy corrections:
 ==============================
 Approx.                                    Singlet             Triplet             Total
 DF-MP2-F12/3*C(DX,FIX)                -0.016289153554     -0.001139991332     -0.017429144886
 DF-MP2-F12/3*C(FIX)                   -0.015928264723     -0.001149889637     -0.017078154360
 DF-MP2-F12/3C(FIX)                    -0.015859329362     -0.001156976226     -0.017016305588

 DF-MP2-F12 correlation energies:
 ================================
 Approx.                                    Singlet             Triplet             Ecorr            Total Energy
 DF-MP2                                -0.145613784910     -0.055805093513     -0.201418878423    -40.417546727013
 DF-MP2-F12/3*C(DX,FIX)                -0.161902938465     -0.056945084844     -0.218848023309    -40.434975871899
 DF-MP2-F12/3*C(FIX)                   -0.161542049634     -0.056954983150     -0.218497032784    -40.434624881374
 DF-MP2-F12/3C(FIX)                    -0.161473114272     -0.056962069739     -0.218435184011    -40.434563032601

 SCS-DF-MP2 energies (F_SING= 1.20000  F_TRIP= 0.62222  F_PARALLEL= 0.33333):
 ============================================================================
 SCS-DF-MP2                            -0.209459711189    -40.425587559779
 SCS-DF-MP2-F12/3*C(DX,FIX)            -0.229716023394    -40.445843871984
 SCS-DF-MP2-F12/3*C(FIX)               -0.229289115743    -40.445416964333
 SCS-DF-MP2-F12/3C(FIX)                -0.229210802742    -40.445338651332
 Symmetry transformation completed.

 Number of N-1 electron functions:               4
 Number of N-2 electron functions:              10
 Number of singly external CSFs:               836
 Number of doubly external CSFs:            349866
 Total number of CSFs:                      350703

 Length of J-op  integral file:              53.89 MB
 Length of K-op  integral file:              87.81 MB
 Length of 3-ext integral record:             0.00 MB

 Memory could be reduced to 60.96 Mwords without degradation in triples

 Integral transformation finished. Total CPU:   5.68 sec, npass=  1  Memory used:  26.32 MW

 Reference energy:                    -40.21612785

 Adding F12 terms to K(Cij), methodcc=6,  factor= 1.0

 ITER.      SQ.NORM     CORR.ENERGY   TOTAL ENERGY   ENERGY CHANGE        DEN1      VAR(S)    VAR(P)  DIIS     TIME  TIME/IT
   1      1.06960524    -0.21652117   -40.43264902    -0.01506762    -0.00954219  0.62D-03  0.94D-03  1  1    20.81     3.99
   2      1.07445999    -0.21733712   -40.43346497    -0.00081596    -0.00516259  0.14D-04  0.90D-04  2  2    24.71     4.15
   3      1.07598151    -0.21744849   -40.43357634    -0.00011137    -0.00108955  0.20D-05  0.57D-05  3  3    28.64     4.21
   4      1.07635083    -0.21746303   -40.43359088    -0.00001454    -0.00020087  0.13D-06  0.31D-06  4  4    32.57     4.24
   5      1.07640270    -0.21746266   -40.43359051     0.00000037    -0.00000933  0.77D-08  0.15D-07  5  5    36.50     4.26
   6      1.07640900    -0.21746141   -40.43358926     0.00000126    -0.00000295  0.32D-09  0.85D-09  6  6    40.46     4.27
   7      1.07640975    -0.21746134   -40.43358919     0.00000007    -0.00000042  0.20D-10  0.65D-10  6  1    44.36     4.27
   8      1.07640982    -0.21746136   -40.43358921    -0.00000003     0.00000002  0.27D-11  0.58D-11  6  2    48.26     4.28
   9      1.07640982    -0.21746137   -40.43358922    -0.00000001     0.00000003  0.20D-12  0.34D-12  6  3    52.20     4.28
  10      1.07640982    -0.21746137   -40.43358922     0.00000000     0.00000001  0.23D-13  0.32D-13  6  4    56.14     4.29

 Norm of t1 vector:      0.03260956      S-energy:    -0.00000000      T1 diagnostic:  0.00815239
                                                                       D1 diagnostic:  0.01307061

 Adding energy correction from Wij-K(Fij), methodcc=6  factor= 1.0
 
  CCSD correlation energy              -0.217461368520
  MP2-F12 correction (uncoupled)       -0.016718127875
  C*T doubles correction               -0.000290306452
  f12b correction                       0.003525795095


 Total CPU time for triples:     23.18 sec

  Ecorr(MP2)                           -0.201453545593
  Ecorr(MP2-F12)                       -0.218469851181
  Scale factor for triples energy       1.084467640109


 RESULTS
 =======

  Reference energy                    -40.215491142928
  F12 singles correction               -0.000636705662

 F12 singles corrections added to reference energy

  New reference energy                -40.216127848590

  F12a singlet correction              -0.015863923351
  F12a triplet correction              -0.001144510976
  F12a total correction                -0.017008434327

 F12a corrections for ansatz F12/3C(FIX) added to CCSD energy
 
  CCSD-F12a singlet pair energy        -0.179253396956
  CCSD-F12a triplet pair energy        -0.055216405514
  CCSD-F12a correlation energy         -0.234469802847

  Triples (T) contribution (scaled)    -0.006988533786
  Total correlation energy             -0.241458336633

  CCSD-F12a total energy              -40.450597651437
  CCSD[T]-F12a energy                 -40.457827643512
  CCSD-T-F12a energy                  -40.457512811728
 !CCSD(T)-F12a total energy           -40.457586185223

 F12b corrections for ansatz F12/3C(FIX) added to CCSD(T)-F12a energy

  CCSD-F12b singlet pair energy        -0.175882433443
  CCSD-F12b triplet pair energy        -0.055061573932
  CCSD-F12b correlation energy         -0.230944007752

  Triples (T) contribution (scaled)    -0.006988533786
  Total correlation energy             -0.237932541538

  CCSD-F12b total energy              -40.447071856342
  CCSD[T]-F12b energy                 -40.454301848417
  CCSD-T-F12b energy                  -40.453987016633
 !CCSD(T)-F12b total energy           -40.454060390128

 Timing summary (sec):

 STEP                 CPU(USER)    SYS     CPU(TOT)    WALL
 Transformation          5.72      0.73      6.45      6.50
 CCSD iterations        39.02      3.85     42.87     42.99
 Triples                23.18      0.38     23.56     23.56
 MP2-F12                11.41      0.52     11.93     12.12
 F12b energy             3.37      0.33      3.70      3.71

 Program statistics:

 Available memory in ccsd:              2999999786
 Min. memory needed in ccsd:               1609972
 Max. memory used in ccsd:                 1864434
 Max. memory used in cckext:               1252381 (11 integral passes)



 **********************************************************************************************************************************
 DATASETS  * FILE   NREC   LENGTH (MB)   RECORD NAMES
              1      20     1966.97       500      610      700      900      950      970     1000      129      960     1100   
                                          VAR    BASINP    GEOM    SYMINP    ZMAT    AOBASIS   BASIS     P2S    ABASIS      S 
                                         1400     1410     1200     1210     1080     1600     1650     1300     1700     1380   
                                           T        V       H0       H01     AOSYM     SMH    MOLCAS    ERIS     OPER     JKOP   

              2       7        8.14       700     1000      520     2100     7360     7350     2101   
                                         GEOM     BASIS   MCVARS     RHF    F12ABS    EF12      RHF  

 PROGRAMS   *        TOTAL   CCSD(T)        HF       INT   CCSD(T)        HF       INT
 CPU TIMES  *       446.07     82.75     20.06      0.06    300.27     26.84     15.96
 REAL TIME  *       607.22 SEC
 DISK USED  *         5.04 GB      
 **********************************************************************************************************************************
 SETTING E_F12_A(1)     =       -40.45758619  AU                              
 SETTING E_F12_A(2)     =       -40.45406039  AU                              

 Dummy atoms: C1  H1  H2  H3  H4


 Recomputing one-electron integrals since nuclear charges changed


 PROGRAM * SEWARD (Integral evaluation for generally contracted gaussian basis sets)     Author: Roland Lindh, 1990

 Geometry written to block  1 of record 700


 Point group  C1  



 ATOMIC COORDINATES

 NR  ATOM    CHARGE       X              Y              Z

   1  C1      0.00   -6.193010455    2.801518980    2.403542658
   2  H1      0.00   -4.656285171    1.699997622    3.119937832
   3  H2      0.00   -5.973046335    4.726205038    2.982932688
   4  H3      0.00   -7.940251230    2.077186956    3.118237078
   5  H4      0.00   -6.176569838    2.685300823    0.384937212
   6  O1      8.00   -8.342762895    8.383580979    6.757282676
   7  H5      1.00   -7.349144898    9.034591629    5.278760956
   8  H6      1.00   -8.743006888    9.863803452    7.746365330

 Bond lengths in Bohr (Angstrom)

 1-2  2.021904040  1-3  2.022002335  1-4  2.021953343  1-5  2.022015060  6-7  1.896606987
     ( 1.069945541)     ( 1.069997556)     ( 1.069971630)     ( 1.070004290)     ( 1.003641196)

 6-8  1.824702255
     ( 0.965590850)

 Bond angles

  2-1-3  109.53398059   2-1-4  109.65604535   2-1-5  108.43490854   3-1-4  109.49436728

  3-1-5  109.86987750   4-1-5  109.83468330   7-6-8  105.01239280

 NUCLEAR CHARGE:                   10
 NUMBER OF PRIMITIVE AOS:         270
 NUMBER OF SYMMETRY AOS:          246
 NUMBER OF CONTRACTIONS:          214   ( 214A   )
 NUMBER OF CORE ORBITALS:           1   (   1A   )
 NUMBER OF VALENCE ORBITALS:        6   (   6A   )

 MOLECULE CHANGED: INITIALIZING OCCUPATION AND DUMP RECORDS


 NUCLEAR REPULSION ENERGY    8.94098799


 Eigenvalues of metric

         1 0.744E-04 0.179E-03 0.296E-03 0.328E-03 0.335E-03 0.429E-03 0.542E-03 0.556E-03


 Contracted 2-electron integrals neglected if value below      1.0D-19

 OPERATOR DM      FOR CENTER  0  COORDINATES:    0.000000    0.000000    0.000000


 **********************************************************************************************************************************
 DATASETS  * FILE   NREC   LENGTH (MB)   RECORD NAMES
              1      19     1813.96       500      610      700      900      950      970     1000      129      960     1100   
                                          VAR    BASINP    GEOM    SYMINP    ZMAT    AOBASIS   BASIS     P2S    ABASIS      S 
                                         1400     1410     1200     1210     1080     1600     1650     1300     1700   
                                           T        V       H0       H01     AOSYM     SMH    MOLCAS    ERIS     OPER   

              2       7        8.14       700     1000      520     2100     7360     7350     2101   
                                         GEOM     BASIS   MCVARS     RHF    F12ABS    EF12      RHF  

 PROGRAMS   *        TOTAL       INT   CCSD(T)        HF       INT   CCSD(T)        HF       INT
 CPU TIMES  *       446.14      0.06     82.75     20.06      0.06    300.27     26.84     15.96
 REAL TIME  *       613.57 SEC
 DISK USED  *         5.04 GB      
 **********************************************************************************************************************************


 PROGRAM * RHF-SCF (CLOSED SHELL)       Authors: W. Meyer, H.-J. Werner


 NUMBER OF ELECTRONS:       5+    5-    SPACE SYMMETRY=1    SPIN SYMMETRY: Singlet 
 CONVERGENCE THRESHOLDS:    1.00E-04 (Density)    1.00E-09 (Energy)
 MAX. NUMBER OF ITERATIONS:       60
 INTERPOLATION TYPE:            DIIS
 INTERPOLATION STEPS:              2 (START)      1 (STEP)
 LEVEL SHIFTS:                  0.00 (CLOSED)  0.00 (OPEN) 



 Orbital guess generated from atomic densities. Full valence occupancy:    7

 Molecular orbital dump at record        2102.2

 Initial occupancy:   5

 ITERATION    DDIFF          GRAD             ENERGY        2-EL.EN.            DIPOLE MOMENTS         DIIS   ORB.
    1      0.000D+00      0.000D+00       -76.02251831     77.325415    0.31091    1.09077   -0.26220    0    start
    2      0.000D+00      0.672D-02       -76.04939123     73.647003    0.17523    0.63681   -0.14272    1    diag
    3      0.463D-02      0.431D-02       -76.06117665     75.285146    0.20782    0.75063   -0.17036    2    diag
    4      0.164D-02      0.404D-03       -76.06137764     75.192308    0.20532    0.74638   -0.16722    3    diag
    5      0.227D-03      0.115D-03       -76.06140018     75.207153    0.20432    0.74480   -0.16594    4    diag
    6      0.782D-04      0.233D-04       -76.06140170     75.205998    0.20402    0.74439   -0.16553    5    diag
    7      0.218D-04      0.479D-05       -76.06140178     75.206153    0.20393    0.74426   -0.16542    6    diag
    8      0.487D-05      0.897D-06       -76.06140178     75.206139    0.20391    0.74421   -0.16540    7    diag
    9      0.911D-06      0.122D-06       -76.06140178     75.206129    0.20391    0.74421   -0.16540    8    diag
   10      0.158D-06      0.288D-07       -76.06140178     75.206134    0.20391    0.74421   -0.16540    0    orth

 Final occupancy:   5

 !RHF STATE 1.1 Energy                -76.061401778548
 Nuclear energy                         8.94098799
 One-electron energy                 -122.60545660
 Two-electron energy                   37.60306684
 Virial quotient                       -1.00221288
 !RHF STATE 1.1 Dipole moment           0.20391197     0.74421040    -0.16539601
 Dipole moment /Debye                   0.51825859     1.89147027    -0.42036718

 Orbital energies:

         1.1          2.1          3.1          4.1          5.1          6.1          7.1
    -20.569305    -1.339256    -0.704206    -0.578668    -0.508227     0.043585     0.063114

 HOMO      5.1    -0.508227 =     -13.8296eV
 LUMO      6.1     0.043585 =       1.1860eV
 LUMO-HOMO         0.551812 =      15.0156eV


 **********************************************************************************************************************************
 DATASETS  * FILE   NREC   LENGTH (MB)   RECORD NAMES
              1      19     1813.96       500      610      700      900      950      970     1000      129      960     1100   
                                          VAR    BASINP    GEOM    SYMINP    ZMAT    AOBASIS   BASIS     P2S    ABASIS      S 
                                         1400     1410     1200     1210     1080     1600     1650     1300     1700   
                                           T        V       H0       H01     AOSYM     SMH    MOLCAS    ERIS     OPER   

              2       8       12.47       700     1000      520     2100     7360     7350     2101     2102   
                                         GEOM     BASIS   MCVARS     RHF    F12ABS    EF12      RHF      RHF  

 PROGRAMS   *        TOTAL        HF       INT   CCSD(T)        HF       INT   CCSD(T)        HF       INT
 CPU TIMES  *       470.72     24.58      0.06     82.75     20.06      0.06    300.27     26.84     15.96
 REAL TIME  *       664.77 SEC
 DISK USED  *         5.04 GB      
 **********************************************************************************************************************************
 SETTING E_HF_B         =       -76.06140178  AU                              


 PROGRAM * CCSD (Closed-shell coupled cluster)     Authors: C. Hampel, H.-J. Werner, 1991, M. Deegan, P.J. Knowles, 1992

                                  CCSD-F12 implementation by  H.-J. Werner, 2007

                   Density fitting integral evaluation by F.R. Manby, 2003,2007, G. Knizia, 2010

 Basis set CC-PVTZ/JKFIT generated.      Number of basis functions:   338 
 Basis set CC-PVTZ-F12/OPTRI generated.  Number of basis functions:   396 
 Basis set AUG-CC-PVTZ/MP2FIT generated. Number of basis functions:   488 

 Convergence thresholds:  THRVAR = 1.00D-08  THRDEN = 1.00D-08

 CCSD(T)     terms to be evaluated (factor= 1.000)


 Number of core orbitals:           1 (   1 )
 Number of closed-shell orbitals:   4 (   4 )
 Number of external orbitals:     209 ( 209 )

 Molecular orbitals read from record     2102.2  Type=RHF/CANONICAL (state 1.1)

 MP2-F12 correlation treatment (H.-J. Werner, 2006)
 ==================================================

 Using MP2-F12 with ansatz 3C(FIX)

 Using projected zeroth-order Hamiltonian (+Z)

 FOCKRIB=T FOCKRIC=T FOCKRIP=T CABSP=T CABSA=T CABSK=T CABSF=T GBC=F EBC=F DMAT=T NOFIK=T NOPAO=1 SOLVE=-1  USEPAO=0
 EXCH_A= T EXCH_B= F EXCH_C= F EXCH_P= F
 
 Geminal basis:    OPTFULL  GEM_TYPE=SLATER  BETA=1.0  NGEM=6

 Optimizing Gaussian exponents for each gem_beta

 Geminal optimization for beta= 1.0000
 Weight function:   m=0, omega= 1.4646

 Augmented Hessian optimization of geminal fit. Trust ratio= 0.40000
 Convergence reached after   2 iterations. Final gradient= 8.26D-16, Step= 4.26D-06, Delta= 1.28D-09
 
 Alpha:                 0.19532     0.81920     2.85917     9.50073    35.69989   197.79328
 Coeff:                 0.27070     0.30552     0.18297     0.10986     0.06810     0.04224
 

 All pairs explicitly correlated. Number of r12-pairs:           10

 Excluding core orbitals from MO domains
 
 AO(A)-basis ORBITAL           loaded. Number of functions:     214
 RI(R)-basis CC-PVTZ-F12/OPTRI loaded. Number of functions:     396
 DF-basis CC-PVTZ/JKFIT        loaded. Number of functions:     338

 Screening thresholds:   THRAO=  1.00D-10  THRMO=  1.00D-09  THRPROD=  1.00D-09
                         THRSW=  1.00D-05  THROV=  1.00D-12  THRAOF12=   1.00D-08

 CPU time for Fock operators                      2.79 sec
 
 Construction of ABS:
 Smallest eigenvalue of S          3.58E-04  (threshold= 1.00E-08)
 Ratio eigmin/eigmax               4.60E-05  (threshold= 1.00E-09)
 Smallest eigenvalue of S kept     3.58E-04  (threshold= 3.58E-04, 0 functions deleted, 396 kept)
 
 Construction of CABS:
 Smallest eigenvalue of S          8.21E-07  (threshold= 1.00E-08)
 Ratio eigmin/eigmax               8.21E-07  (threshold= 1.00E-09)
 Smallest eigenvalue of S kept     8.21E-07  (threshold= 8.21E-07, 0 functions deleted, 396 kept)
 
 CPU time for CABS singles                        0.12 sec

 CABS-singles contribution of  -0.00095904 patched into reference energy.
 New reference energy         -76.06236082
 
 AO(A)-basis ORBITAL           loaded. Number of functions:     214
 RI(R)-basis CC-PVTZ-F12/OPTRI loaded. Number of functions:     396
 DF-basis AUG-CC-PVTZ/MP2FIT   loaded. Number of functions:     488

 Screening thresholds:   THRAO=  1.00D-10  THRMO=  1.00D-09  THRPROD=  1.00D-09
                         THRSW=  1.00D-05  THROV=  1.00D-12  THRAOF12=   1.00D-08

 CPU time for 3-index integral evaluation         6.37 sec
 CPU time for first  half transformation          0.63 sec ( 4087.1 MFLOP/sec)
 CPU time for second half transformation          0.04 sec (  731.0 MFLOP/sec)
 CPU time for fitting                             0.03 sec (39690.7 MFLOP/sec)
 CPU time for tilde quantities                    0.04 sec (39722.4 MFLOP/sec)
 CPU time for assembly                            0.22 sec (36254.9 MFLOP/sec)
 CPU time for tranop_f12                          0.27 sec (35487.5 MFLOP/sec)
 CPU time for f12 integrals (total)               8.13 sec, Elapsed time:      8.68 sec
 CPU time for f12 matrices (total)                0.09 sec, Elapsed time:      0.12 sec

 Diagonal F12 approximation with fixed coefficients:  TSING= 0.500,  TTRIP= 0.250 (scaled by -1/beta)

 DF-MP2-F12 energy corrections:
 ==============================
 Approx.                                    Singlet             Triplet             Total
 DF-MP2-F12/3*C(DX,FIX)                -0.025092604076     -0.002992369062     -0.028084973138
 DF-MP2-F12/3*C(FIX)                   -0.023329949284     -0.002708095249     -0.026038044533
 DF-MP2-F12/3C(FIX)                    -0.023257157212     -0.002804853351     -0.026062010562

 DF-MP2-F12 correlation energies:
 ================================
 Approx.                                    Singlet             Triplet             Ecorr            Total Energy
 DF-MP2                                -0.175264134244     -0.099915987787     -0.275180122031    -76.337540937259
 DF-MP2-F12/3*C(DX,FIX)                -0.200356738320     -0.102908356849     -0.303265095169    -76.365625910397
 DF-MP2-F12/3*C(FIX)                   -0.198594083528     -0.102624083036     -0.301218166564    -76.363578981792
 DF-MP2-F12/3C(FIX)                    -0.198521291456     -0.102720841138     -0.301242132594    -76.363602947822

 SCS-DF-MP2 energies (F_SING= 1.20000  F_TRIP= 0.62222  F_PARALLEL= 0.33333):
 ============================================================================
 SCS-DF-MP2                            -0.272486909049    -76.334847724277
 SCS-DF-MP2-F12/3*C(DX,FIX)            -0.304459952468    -76.366820767696
 SCS-DF-MP2-F12/3*C(FIX)               -0.302167885234    -76.364528700462
 SCS-DF-MP2-F12/3C(FIX)                -0.302140739788    -76.364501555016
 Symmetry transformation completed.

 Number of N-1 electron functions:               4
 Number of N-2 electron functions:              10
 Number of singly external CSFs:               836
 Number of doubly external CSFs:            349866
 Total number of CSFs:                      350703

 Length of J-op  integral file:              53.89 MB
 Length of K-op  integral file:              87.81 MB
 Length of 3-ext integral record:             0.00 MB

 Memory could be reduced to 60.96 Mwords without degradation in triples

 Integral transformation finished. Total CPU:   5.78 sec, npass=  1  Memory used:  26.32 MW

 Reference energy:                    -76.06236082

 Adding F12 terms to K(Cij), methodcc=6,  factor= 1.0

 ITER.      SQ.NORM     CORR.ENERGY   TOTAL ENERGY   ENERGY CHANGE        DEN1      VAR(S)    VAR(P)  DIIS     TIME  TIME/IT
   1      1.06309319    -0.27524902   -76.33760983    -0.00002692     0.00604689  0.78D-03  0.10D-02  1  1    20.77     3.98
   2      1.06656327    -0.27500419   -76.33736500     0.00024483    -0.00474518  0.14D-04  0.11D-03  2  2    24.67     4.15
   3      1.06782115    -0.27514364   -76.33750446    -0.00013946    -0.00084130  0.95D-05  0.75D-05  3  3    28.56     4.20
   4      1.06840082    -0.27516661   -76.33752743    -0.00002297    -0.00037367  0.46D-06  0.60D-06  4  4    32.45     5.24
   5      1.06849977    -0.27516503   -76.33752584     0.00000158    -0.00002193  0.14D-06  0.39D-07  5  5    36.37     5.05
   6      1.06852676    -0.27516366   -76.33752447     0.00000137    -0.00000450  0.12D-07  0.39D-08  6  6    40.26     4.92
   7      1.06853371    -0.27516326   -76.33752408     0.00000040    -0.00000157  0.11D-08  0.34D-09  6  1    44.17     4.84
   8      1.06853526    -0.27516332   -76.33752413    -0.00000006    -0.00000002  0.11D-09  0.43D-10  6  2    48.13     4.77
   9      1.06853563    -0.27516332   -76.33752414    -0.00000000     0.00000006  0.88D-11  0.77D-11  6  4    52.06     4.72
  10      1.06853575    -0.27516332   -76.33752413     0.00000000    -0.00000000  0.17D-11  0.58D-12  6  3    55.97     4.68

 Norm of t1 vector:      0.03675342      S-energy:     0.00000001      T1 diagnostic:  0.00918835
                                                                       D1 diagnostic:  0.01845483

 Adding energy correction from Wij-K(Fij), methodcc=6  factor= 1.0
 
  CCSD correlation energy              -0.275163318091
  MP2-F12 correction (uncoupled)       -0.024943513687
  C*T doubles correction               -0.000832959656
  f12b correction                       0.004282979590

 Total CPU time for triples:     23.04 sec

  Ecorr(MP2)                           -0.275222098586
  Ecorr(MP2-F12)                       -0.301284109149
  Scale factor for triples energy       1.094694469290


 RESULTS
 =======

  Reference energy                    -76.061401778548
  F12 singles correction               -0.000959036680

 F12 singles corrections added to reference energy

  New reference energy                -76.062360815228

  F12a singlet correction              -0.023078241514
  F12a triplet correction              -0.002698231829
  F12a total correction                -0.025776473343

 F12a corrections for ansatz F12/3C(FIX) added to CCSD energy
 
  CCSD-F12a singlet pair energy        -0.210059024857
  CCSD-F12a triplet pair energy        -0.090880774329
  CCSD-F12a correlation energy         -0.300939791434

  Triples (T) contribution (scaled)    -0.009841005979
  Total correlation energy             -0.310780797413

  CCSD-F12a total energy              -76.363300606662
  CCSD[T]-F12a energy                 -76.373485485519
  CCSD-T-F12a energy                  -76.372990750323
 !CCSD(T)-F12a total energy           -76.373141612641

 F12b corrections for ansatz F12/3C(FIX) added to CCSD(T)-F12a energy

  CCSD-F12b singlet pair energy        -0.206086030763
  CCSD-F12b triplet pair energy        -0.090570788833
  CCSD-F12b correlation energy         -0.296656811844

  Triples (T) contribution (scaled)    -0.009841005979
  Total correlation energy             -0.306497817823

  CCSD-F12b total energy              -76.359017627072
  CCSD[T]-F12b energy                 -76.369202505929
  CCSD-T-F12b energy                  -76.368707770733
 !CCSD(T)-F12b total energy           -76.368858633051

 Timing summary (sec):

 STEP                 CPU(USER)    SYS     CPU(TOT)    WALL
 Transformation          5.81      0.71      6.52     13.67
 CCSD iterations        38.86      3.96     42.82     46.92
 Triples                23.04      0.37     23.41     23.42
 MP2-F12                11.31      0.53     11.84     12.15
 F12b energy             3.41      0.33      3.74      3.76

 Program statistics:

 Available memory in ccsd:              2999999786
 Min. memory needed in ccsd:               1609972
 Max. memory used in ccsd:                 1864434
 Max. memory used in cckext:               1252381 (11 integral passes)



 **********************************************************************************************************************************
 DATASETS  * FILE   NREC   LENGTH (MB)   RECORD NAMES
              1      20     1966.97       500      610      700      900      950      970     1000      129      960     1100   
                                          VAR    BASINP    GEOM    SYMINP    ZMAT    AOBASIS   BASIS     P2S    ABASIS      S 
                                         1400     1410     1200     1210     1080     1600     1650     1300     1700     1380   
                                           T        V       H0       H01     AOSYM     SMH    MOLCAS    ERIS     OPER     JKOP   

              2       8       12.47       700     1000      520     2100     7360     7350     2101     2102   
                                         GEOM     BASIS   MCVARS     RHF    F12ABS    EF12      RHF      RHF  

 PROGRAMS   *        TOTAL   CCSD(T)        HF       INT   CCSD(T)        HF       INT   CCSD(T)        HF       INT
 CPU TIMES  *       553.20     82.47     24.58      0.06     82.75     20.06      0.06    300.27     26.84     15.96
 REAL TIME  *       766.02 SEC
 DISK USED  *         5.04 GB      
 **********************************************************************************************************************************
 SETTING E_F12_B(1)     =       -76.37314161  AU                              
 SETTING E_F12_B(2)     =       -76.36885863  AU                              
 SETTING E_INT_HF       =         0.00047227  AU                              
 SETTING E_INT_F12(1)   =        -0.00024804  AU                              
 SETTING E_INT_F12(2)   =        -0.00024166  AU                              
 E_INT_HF         =         0.00047227 AU
 E_INT_F12(1:2)   = [      -0.00024804    -0.00024166] AU

 CCSD(T)-F12/cc-pVTZ-F12 energy=    -76.368858633051

     CCSD(T)-F12        HF-SCF       CCSD(T)-F12        HF-SCF       CCSD(T)-F12        HF-SCF  
    -76.36885863    -76.06140178    -40.45406039    -40.21549114   -116.82316068   -116.27642065
 **********************************************************************************************************************************
 Molpro calculation terminated
 Variable memory released
