
 Primary working directories    : /net/scratch/people/plgsirous
 Secondary working directories  : /net/scratch/people/plgsirous
 Wavefunction directory         : /net/people/plgsirous/wfu/
 Main file repository           : /net/scratch/people/plgsirous/

 SHA1      : 
 NAME      : 
 ARCHNAME  : linux/x86_64
 FC        : /net/software/local/intel/impi/2018.1.163/bin64/mpiifort
 BLASLIB   : -L/net/software/local/intel/compilers_and_libraries_2018.1.163/linux/mkl/lib/intel64 -lmkl_scalapack_ilp64 -lmkl_intel_ilp64 -lmkl_intel_thread -lmkl_core -lmkl_blacs_intelmpi_ilp64 -liomp5 -lpthread -lm -ldl
 id        : pl

 Nodes     nprocs
 p1388        1

 Using customized tuning parameters: mindgm=7; mindgv=20; mindgc=1; mindgr=1; noblas=0; minvec=7
 default implementation of scratch files=df  

 memory,3000,m
 zsymel=nosym
 angstrom
 geometry={
 C1        -3.2772    1.4825     1.2719
 H1        -2.4640    0.8996     1.6510
 H2        -3.1608    2.5010     1.5785
 H3        -4.2018    1.0992     1.6501
 H4        -3.2685    1.4210     0.2037
 O1        -6.3562    0.3927     3.2320
 H5        -6.2182    -0.2188     2.4857
 H6        -5.5885    0.2461     3.8191
 }
 basis=vtz-f12
 gthresh,orbital=1d-8,energy=1d-8,twoint=1.d-19
 
 
 nkerna=1
 nkernb=1
 nkernab=$nkerna+$nkernb
 
                                                                                 ! AB Dimer
 {hf,accu=1.d-8}
 E_HF_AB=energy
 core,$nkernab
 {ccsd(t)-f12,scale_trip=1,THRF12=1.d-12}
 E_F12_AB=energy
 
                                                                                 ! Monomer A Part
 
 dummy,6,7,8;
 {hf,accu=1.d-8}
 E_HF_A=energy
 core,$nkerna
 {ccsd(t)-f12,scale_trip=1,THRF12=1.d-12}
 E_F12_A=energy
 
                                                                                 ! Monomer B Part
 
 dummy,1,2,3,4,5;
 {hf,accu=1.d-8}
 E_HF_B=energy
 core,$nkernb
 {ccsd(t)-f12,scale_trip=1,THRF12=1.d-12}
 E_F12_B=energy
 
 E_int_HF = E_HF_AB-(E_HF_A+E_HF_B)
 E_int_F12 = E_F12_AB-(E_F12_A+E_F12_B)
 
 
 show,E_int_HF,E_int_F12

 Variables initialized (889), CPU time= 0.00 sec
 Commands  initialized (702), CPU time= 0.01 sec, 572 directives.
 Default parameters read. Elapsed time= 0.23 sec

 Checking input...
 Passed
1


                                         ***  PROGRAM SYSTEM MOLPRO  ***
                                       Copyright, TTI GmbH Stuttgart, 2015
                                    Version 2015.1 linked Jul  2 2018 15:03:07


 **********************************************************************************************************************************
 LABEL *                                                                                 
  64 bit serial version                                                                  DATE: 17-Jan-19          TIME: 14:52:49  
 **********************************************************************************************************************************

 SHA1:             
 **********************************************************************************************************************************
 SETTING ZSYMEL         =    NOSYM
 ZSYMEL=NOSYM
 ZUNIT=ANG
 

Geometry recognized as XYZ


 Variable memory set to 3000000000 words,  buffer space   230000 words

 SETTING BASIS          =    VTZ-F12

 THRESHOLDS:

 ZERO    =  1.00D-12  ONEINT  =  1.00D-12  TWOINT  =  1.00D-19  PREFAC  =  1.00D-14  LOCALI  =  1.00D-09  EORDER  =  1.00D-04
 ENERGY  =  1.00D-08  ETEST   =  0.00D+00  EDENS   =  0.00D+00  THRDEDEF=  1.00D-06  GRADIENT=  1.00D-02  STEP    =  1.00D-03
 ORBITAL =  1.00D-08  CIVEC   =  1.00D-05  COEFF   =  1.00D-04  PRINTCI =  5.00D-02  PUNCHCI =  9.90D+01  OPTGRAD =  3.00D-04
 OPTENERG=  1.00D-06  OPTSTEP =  3.00D-04  THRGRAD =  1.00D-10  COMPRESS=  1.00D-11  VARMIN  =  1.00D-07  VARMAX  =  1.00D-03
 THRDOUB =  0.00D+00  THRDIV  =  1.00D-05  THRRED  =  1.00D-07  THRPSP  =  1.00D+00  THRDC   =  1.00D-10  THRCS   =  1.00D-10
 THRNRM  =  1.00D-08  THREQ   =  0.00D+00  THRDE   =  1.00D+00  THRREF  =  1.00D-05  SPARFAC =  1.00D+00  THRDLP  =  1.00D-07
 THRDIA  =  1.00D-10  THRDLS  =  1.00D-07  THRGPS  =  0.00D+00  THRKEX  =  0.00D+00  THRDIS  =  2.00D-01  THRVAR  =  1.00D-10
 THRLOC  =  1.00D-06  THRGAP  =  1.00D-06  THRLOCT = -1.00D+00  THRGAPT = -1.00D+00  THRORB  =  1.00D-06  THRMLTP =  0.00D+00
 THRCPQCI=  1.00D-10  KEXTA   =  0.00D+00  THRCOARS=  0.00D+00  SYMTOL  =  1.00D-06  GRADTOL =  1.00D-06  THROVL  =  1.00D-08
 THRORTH =  1.00D-08  GRID    =  1.00D-06  GRIDMAX =  1.00D-03  DTMAX   =  0.00D+00  THROCCDE=  1.00D-01  THROCCDE=  1.00D-01


 SETTING NKERNA         =         1.00000000                                  
 SETTING NKERNB         =         1.00000000                                  
 SETTING NKERNAB        =         2.00000000                                  


 Recomputing integrals since basis changed


 Using spherical harmonics

 Library entry C      S cc-pVTZ-F12          selected for orbital group  1
 Library entry C      P cc-pVTZ-F12          selected for orbital group  1
 Library entry C      D cc-pVTZ-F12          selected for orbital group  1
 Library entry C      F cc-pVTZ-F12          selected for orbital group  1
 Library entry H      S cc-pVTZ-F12          selected for orbital group  2
 Library entry H      P cc-pVTZ-F12          selected for orbital group  2
 Library entry H      D cc-pVTZ-F12          selected for orbital group  2
 Library entry O      S cc-pVTZ-F12          selected for orbital group  3
 Library entry O      P cc-pVTZ-F12          selected for orbital group  3
 Library entry O      D cc-pVTZ-F12          selected for orbital group  3
 Library entry O      F cc-pVTZ-F12          selected for orbital group  3


 PROGRAM * SEWARD (Integral evaluation for generally contracted gaussian basis sets)     Author: Roland Lindh, 1990

 Geometry written to block  1 of record 700


 Point group  C1  



 ATOMIC COORDINATES

 NR  ATOM    CHARGE       X              Y              Z

   1  C1      6.00   -6.193010455    2.801518980    2.403542658
   2  H1      1.00   -4.656285171    1.699997622    3.119937832
   3  H2      1.00   -5.973046335    4.726205038    2.982932688
   4  H3      1.00   -7.940251230    2.077186956    3.118237078
   5  H4      1.00   -6.176569838    2.685300823    0.384937212
   6  O1      8.00  -12.011477193    0.742095449    6.107594835
   7  H5      1.00  -11.750694988   -0.413472076    4.697292228
   8  H6      1.00  -10.560734447    0.465061599    7.217053042

 Bond lengths in Bohr (Angstrom)

 1-2  2.021904040  1-3  2.022002335  1-4  2.021953343  1-5  2.022015060  6-7  1.841818967
     ( 1.069945541)     ( 1.069997556)     ( 1.069971630)     ( 1.070004290)     ( 0.974648624)

 6-8  1.847241128
     ( 0.977517908)

 Bond angles

  2-1-3  109.53398059   2-1-4  109.65604535   2-1-5  108.43490854   3-1-4  109.49436728

  3-1-5  109.86987750   4-1-5  109.83468330   7-6-8  104.74973043

 NUCLEAR CHARGE:                   20
 NUMBER OF PRIMITIVE AOS:         270
 NUMBER OF SYMMETRY AOS:          246
 NUMBER OF CONTRACTIONS:          214   ( 214A   )
 NUMBER OF CORE ORBITALS:           2   (   2A   )
 NUMBER OF VALENCE ORBITALS:       14   (  14A   )


 NUCLEAR REPULSION ENERGY   36.79874832


 Eigenvalues of metric

         1 0.726E-04 0.199E-03 0.268E-03 0.316E-03 0.334E-03 0.450E-03 0.532E-03 0.554E-03


 Contracted 2-electron integrals neglected if value below      1.0D-19
 AO integral compression algorithm  1   Integral accuracy      1.0D-19

     2151.154 MB (compressed) written to integral file ( 88.3%)


 NUMBER OF SORTED TWO-ELECTRON INTEGRALS:  264626515.     BUFFER LENGTH:  32768
 NUMBER OF SEGMENTS:  17  SEGMENT LENGTH:   15999762      RECORD LENGTH: 524288

 Memory used in sort:      16.56 MW

 SORT1 READ   304636334. AND WROTE   250363982. INTEGRALS IN    725 RECORDS. CPU TIME:     3.17 SEC, REAL TIME:     7.04 SEC
 SORT2 READ   250363982. AND WROTE   264626515. INTEGRALS IN   8206 RECORDS. CPU TIME:     2.99 SEC, REAL TIME:     7.93 SEC

 FILE SIZES:   FILE 1:  2172.9 MBYTE,  FILE 4:  3040.9 MBYTE,   TOTAL:   5213.8 MBYTE

 OPERATOR DM      FOR CENTER  0  COORDINATES:    0.000000    0.000000    0.000000


 **********************************************************************************************************************************
 DATASETS  * FILE   NREC   LENGTH (MB)   RECORD NAMES
              1      19     1912.71       500      610      700      900      950      970     1000      129      960     1100   
                                          VAR    BASINP    GEOM    SYMINP    ZMAT    AOBASIS   BASIS     P2S    ABASIS      S 
                                         1400     1410     1200     1210     1080     1600     1650     1300     1700   
                                           T        V       H0       H01     AOSYM     SMH    MOLCAS    ERIS     OPER   

 PROGRAMS   *        TOTAL       INT
 CPU TIMES  *        15.88     15.76
 REAL TIME  *        47.34 SEC
 DISK USED  *         5.21 GB      
 **********************************************************************************************************************************


 PROGRAM * RHF-SCF (CLOSED SHELL)       Authors: W. Meyer, H.-J. Werner


 NUMBER OF ELECTRONS:      10+   10-    SPACE SYMMETRY=1    SPIN SYMMETRY: Singlet 
 CONVERGENCE THRESHOLDS:    1.00E-04 (Density)    1.00E-09 (Energy)
 MAX. NUMBER OF ITERATIONS:       60
 INTERPOLATION TYPE:            DIIS
 INTERPOLATION STEPS:              2 (START)      1 (STEP)
 LEVEL SHIFTS:                  0.00 (CLOSED)  0.00 (OPEN) 



 Orbital guess generated from atomic densities. Full valence occupancy:   16

 Molecular orbital dump at record        2100.2

 Initial occupancy:  10

 ITERATION    DDIFF          GRAD             ENERGY        2-EL.EN.            DIPOLE MOMENTS         DIIS   ORB.
    1      0.000D+00      0.000D+00      -116.21999499    158.938241    0.87333   -0.73764   -0.14853    0    start
    2      0.000D+00      0.547D-02      -116.26405830    154.176713    0.49587   -0.39301   -0.08931    1    diag
    3      0.564D-02      0.318D-02      -116.27732683    156.177261    0.59029   -0.48184   -0.10390    2    diag
    4      0.182D-02      0.480D-03      -116.27798400    156.062071    0.58112   -0.47602   -0.10230    3    diag
    5      0.421D-03      0.140D-03      -116.27805334    156.057788    0.58082   -0.47534   -0.10265    4    diag
    6      0.158D-03      0.342D-04      -116.27805733    156.063364    0.58030   -0.47472   -0.10277    5    diag
    7      0.415D-04      0.712D-05      -116.27805758    156.061652    0.58035   -0.47468   -0.10284    6    diag
    8      0.112D-04      0.183D-05      -116.27805760    156.061840    0.58032   -0.47461   -0.10287    7    diag
    9      0.318D-05      0.420D-06      -116.27805760    156.061810    0.58032   -0.47459   -0.10287    8    diag
   10      0.669D-06      0.529D-07      -116.27805760    156.061811    0.58032   -0.47459   -0.10287    9    orth
   11      0.125D-06      0.140D-07      -116.27805760    156.061813    0.58032   -0.47459   -0.10287    0    orth

 Final occupancy:  10

 !RHF STATE 1.1 Energy               -116.278057602017
 Nuclear energy                        36.79874832
 One-electron energy                 -231.10771255
 Two-electron energy                   78.03090663
 Virial quotient                       -1.00056029
 !RHF STATE 1.1 Dipole moment           0.58031680    -0.47458832    -0.10287425
 Dipole moment /Debye                   1.47492158    -1.20620419    -0.26146314

 Orbital energies:

         1.1          2.1          3.1          4.1          5.1          6.1          7.1          8.1          9.1         10.1
    -20.568636   -11.198197    -1.344398    -0.953232    -0.709091    -0.582841    -0.555280    -0.552841    -0.550579    -0.507854

        11.1         12.1
      0.055128     0.070659

 HOMO     10.1    -0.507854 =     -13.8194eV
 LUMO     11.1     0.055128 =       1.5001eV
 LUMO-HOMO         0.562982 =      15.3195eV


 **********************************************************************************************************************************
 DATASETS  * FILE   NREC   LENGTH (MB)   RECORD NAMES
              1      19     1912.71       500      610      700      900      950      970     1000      129      960     1100   
                                          VAR    BASINP    GEOM    SYMINP    ZMAT    AOBASIS   BASIS     P2S    ABASIS      S 
                                         1400     1410     1200     1210     1080     1600     1650     1300     1700   
                                           T        V       H0       H01     AOSYM     SMH    MOLCAS    ERIS     OPER   

              2       4        3.81       700     1000      520     2100   
                                         GEOM     BASIS   MCVARS     RHF  

 PROGRAMS   *        TOTAL        HF       INT
 CPU TIMES  *        42.44     26.55     15.76
 REAL TIME  *        80.15 SEC
 DISK USED  *         5.21 GB      
 **********************************************************************************************************************************
 SETTING E_HF_AB        =      -116.27805760  AU                              


 PROGRAM * CCSD (Closed-shell coupled cluster)     Authors: C. Hampel, H.-J. Werner, 1991, M. Deegan, P.J. Knowles, 1992

                                  CCSD-F12 implementation by  H.-J. Werner, 2007

                   Density fitting integral evaluation by F.R. Manby, 2003,2007, G. Knizia, 2010

 Basis set CC-PVTZ/JKFIT generated.      Number of basis functions:   338 
 Basis set CC-PVTZ-F12/OPTRI generated.  Number of basis functions:   396 
 Basis set AUG-CC-PVTZ/MP2FIT generated. Number of basis functions:   488 

 Convergence thresholds:  THRVAR = 1.00D-08  THRDEN = 1.00D-08

 CCSD(T)     terms to be evaluated (factor= 1.000)


 Number of core orbitals:           2 (   2 )
 Number of closed-shell orbitals:   8 (   8 )
 Number of external orbitals:     204 ( 204 )

 Molecular orbitals read from record     2100.2  Type=RHF/CANONICAL (state 1.1)

 MP2-F12 correlation treatment (H.-J. Werner, 2006)
 ==================================================

 Using MP2-F12 with ansatz 3C(FIX)

 Using projected zeroth-order Hamiltonian (+Z)

 FOCKRIB=T FOCKRIC=T FOCKRIP=T CABSP=T CABSA=T CABSK=T CABSF=T GBC=F EBC=F DMAT=T NOFIK=T NOPAO=1 SOLVE=-1  USEPAO=0
 EXCH_A= T EXCH_B= F EXCH_C= F EXCH_P= F
 
 Geminal basis:    OPTFULL  GEM_TYPE=SLATER  BETA=1.0  NGEM=6

 Optimizing Gaussian exponents for each gem_beta

 Geminal optimization for beta= 1.0000
 Weight function:   m=0, omega= 1.4646

 Augmented Hessian optimization of geminal fit. Trust ratio= 0.40000
 Convergence reached after   2 iterations. Final gradient= 8.26D-16, Step= 4.26D-06, Delta= 1.28D-09
 
 Alpha:                 0.19532     0.81920     2.85917     9.50073    35.69989   197.79328
 Coeff:                 0.27070     0.30552     0.18297     0.10986     0.06810     0.04224
 

 All pairs explicitly correlated. Number of r12-pairs:           36

 Excluding core orbitals from MO domains
 
 AO(A)-basis ORBITAL           loaded. Number of functions:     214
 RI(R)-basis CC-PVTZ-F12/OPTRI loaded. Number of functions:     396
 DF-basis CC-PVTZ/JKFIT        loaded. Number of functions:     338

 Screening thresholds:   THRAO=  1.00D-10  THRMO=  1.00D-09  THRPROD=  1.00D-09
                         THRSW=  1.00D-05  THROV=  1.00D-12  THRAOF12=   1.00D-08

 CPU time for Fock operators                      2.84 sec
 
 Construction of ABS:
 Smallest eigenvalue of S          3.31E-04  (threshold= 1.00E-08)
 Ratio eigmin/eigmax               4.24E-05  (threshold= 1.00E-09)
 Smallest eigenvalue of S kept     3.31E-04  (threshold= 3.31E-04, 0 functions deleted, 396 kept)
 
 Construction of CABS:
 Smallest eigenvalue of S          7.56E-07  (threshold= 1.00E-08)
 Ratio eigmin/eigmax               7.56E-07  (threshold= 1.00E-09)
 Smallest eigenvalue of S kept     7.56E-07  (threshold= 7.56E-07, 0 functions deleted, 396 kept)
 
 CPU time for CABS singles                        0.11 sec

 CABS-singles contribution of  -0.00161594 patched into reference energy.
 New reference energy        -116.27967354
 
 AO(A)-basis ORBITAL           loaded. Number of functions:     214
 RI(R)-basis CC-PVTZ-F12/OPTRI loaded. Number of functions:     396
 DF-basis AUG-CC-PVTZ/MP2FIT   loaded. Number of functions:     488

 Screening thresholds:   THRAO=  1.00D-10  THRMO=  1.00D-09  THRPROD=  1.00D-09
                         THRSW=  1.00D-05  THROV=  1.00D-12  THRAOF12=   1.00D-08

 CPU time for 3-index integral evaluation         6.41 sec
 CPU time for first  half transformation          0.57 sec ( 9034.7 MFLOP/sec)
 CPU time for second half transformation          0.01 sec (11696.4 MFLOP/sec)
 CPU time for sorting                             0.02 sec
 CPU time for fitting                             0.07 sec (34837.1 MFLOP/sec)
 CPU time for tilde quantities                    0.09 sec (35732.2 MFLOP/sec)
 CPU time for assembly                            0.83 sec (36070.5 MFLOP/sec)
 CPU time for tranop_f12                          1.08 sec (35862.7 MFLOP/sec)
 CPU time for f12 integrals (total)              10.60 sec, Elapsed time:     52.49 sec
 CPU time for f12 matrices (total)                0.35 sec, Elapsed time:      0.47 sec

 Diagonal F12 approximation with fixed coefficients:  TSING= 0.500,  TTRIP= 0.250 (scaled by -1/beta)

 DF-MP2-F12 energy corrections:
 ==============================
 Approx.                                    Singlet             Triplet             Total
 DF-MP2-F12/3*C(DX,FIX)                -0.041433592085     -0.004154828208     -0.045588420292
 DF-MP2-F12/3*C(FIX)                   -0.039294258673     -0.003882866846     -0.043177125520
 DF-MP2-F12/3C(FIX)                    -0.039158573706     -0.003992299390     -0.043150873096

 DF-MP2-F12 correlation energies:
 ================================
 Approx.                                    Singlet             Triplet             Ecorr            Total Energy
 DF-MP2                                -0.320680841759     -0.156260262515     -0.476941104274   -116.756614641880
 DF-MP2-F12/3*C(DX,FIX)                -0.362114433844     -0.160415090723     -0.522529524567   -116.802203062172
 DF-MP2-F12/3*C(FIX)                   -0.359975100432     -0.160143129362     -0.520118229794   -116.799791767399
 DF-MP2-F12/3C(FIX)                    -0.359839415465     -0.160252561905     -0.520091977371   -116.799765514976

 SCS-DF-MP2 energies (F_SING= 1.20000  F_TRIP= 0.62222  F_PARALLEL= 0.33333):
 ============================================================================
 SCS-DF-MP2                            -0.482045617898   -116.761719155504
 SCS-DF-MP2-F12/3*C(DX,FIX)            -0.534351154840   -116.814024692446
 SCS-DF-MP2-F12/3*C(FIX)               -0.531614734344   -116.811288271949
 SCS-DF-MP2-F12/3C(FIX)                -0.531520003744   -116.811193541349
 Symmetry transformation completed.

 Number of N-1 electron functions:               8
 Number of N-2 electron functions:              36
 Number of singly external CSFs:              1632
 Number of doubly external CSFs:           1332528
 Total number of CSFs:                     1334161

 Length of J-op  integral file:             205.73 MB
 Length of K-op  integral file:             258.78 MB
 Length of 3-ext integral record:             0.00 MB

 Memory could be reduced to 93.27 Mwords without degradation in triples

 Integral transformation finished. Total CPU:   9.84 sec, npass=  1  Memory used:  48.07 MW

 Reference energy:                   -116.27967354

 Adding F12 terms to K(Cij), methodcc=6,  factor= 1.0

 ITER.      SQ.NORM     CORR.ENERGY   TOTAL ENERGY   ENERGY CHANGE        DEN1      VAR(S)    VAR(P)  DIIS     TIME  TIME/IT
   1      1.13247324    -0.49215490  -116.77182844    -0.01514022    -0.00363194  0.14D-02  0.19D-02  1  1    32.95     9.25
   2      1.14045213    -0.49272170  -116.77239524    -0.00056680    -0.00958773  0.29D-04  0.23D-03  2  2    41.97     9.43
   3      1.14345435    -0.49297357  -116.77264711    -0.00025187    -0.00212301  0.13D-04  0.13D-04  3  3    51.09     9.50
   4      1.14442536    -0.49300496  -116.77267850    -0.00003139    -0.00060220  0.60D-06  0.11D-05  4  4    60.11     9.52
   5      1.14458437    -0.49300410  -116.77267764     0.00000087    -0.00003107  0.19D-06  0.71D-07  5  5    69.21     9.55
   6      1.14462158    -0.49300174  -116.77267527     0.00000236    -0.00000684  0.17D-07  0.75D-08  6  6    78.29     9.57
   7      1.14463173    -0.49300074  -116.77267427     0.00000100    -0.00000325  0.18D-08  0.69D-09  6  1    87.30     9.60
   8      1.14463348    -0.49300082  -116.77267435    -0.00000008     0.00000016  0.32D-09  0.87D-10  6  3    96.34     9.60
   9      1.14463462    -0.49300078  -116.77267432     0.00000004    -0.00000036  0.24D-10  0.15D-10  6  2   105.46     9.61
  10      1.14463478    -0.49300078  -116.77267432    -0.00000000     0.00000005  0.26D-11  0.15D-11  6  4   114.51     9.61
  11      1.14463477    -0.49300078  -116.77267432    -0.00000000     0.00000005  0.46D-12  0.22D-12  6  5   123.60     9.62

 Norm of t1 vector:      0.04960995      S-energy:     0.00000000      T1 diagnostic:  0.00876988
                                                                       D1 diagnostic:  0.01940519

 Adding energy correction from Wij-K(Fij), methodcc=6  factor= 1.0
 
  CCSD correlation energy              -0.493000781986
  MP2-F12 correction (uncoupled)       -0.041725980583
  C*T doubles correction               -0.001126401574
  f12b correction                       0.007811590812


 Total CPU time for triples:    161.64 sec

  Ecorr(MP2)                           -0.477014677631
  Ecorr(MP2-F12)                       -0.520165550727
  Scale factor for triples energy       1.090460262797


 RESULTS
 =======

  Reference energy                   -116.278057602017
  F12 singles correction               -0.001615935588

 F12 singles corrections added to reference energy

  New reference energy               -116.279673537605

  F12a singlet correction              -0.038982450070
  F12a triplet correction              -0.003869932087
  F12a total correction                -0.042852382157

 F12a corrections for ansatz F12/3C(FIX) added to CCSD energy
 
  CCSD-F12a singlet pair energy        -0.388941529445
  CCSD-F12a triplet pair energy        -0.146911638366
  CCSD-F12a correlation energy         -0.535853164143

  Triples (T) contribution (scaled)    -0.016941793133
  Total correlation energy             -0.552794957276

  CCSD-F12a total energy             -116.815526701748
  CCSD[T]-F12a energy                -116.833053258777
  CCSD-T-F12a energy                 -116.832244628970
 !CCSD(T)-F12a total energy          -116.832468494881

 F12b corrections for ansatz F12/3C(FIX) added to CCSD(T)-F12a energy

  CCSD-F12b singlet pair energy        -0.381597126180
  CCSD-F12b triplet pair energy        -0.146444450819
  CCSD-F12b correlation energy         -0.528041573331

  Triples (T) contribution (scaled)    -0.016941793133
  Total correlation energy             -0.544983366464

  CCSD-F12b total energy             -116.807715110937
  CCSD[T]-F12b energy                -116.825241667965
  CCSD-T-F12b energy                 -116.824433038158
 !CCSD(T)-F12b total energy          -116.824656904069

 Timing summary (sec):

 STEP                 CPU(USER)    SYS     CPU(TOT)    WALL
 Transformation          9.95      1.17     11.12     11.37
 CCSD iterations        99.54      6.06    105.60    105.94
 Triples               161.64      2.65    164.29    164.33
 MP2-F12                14.12      1.36     15.48     68.75
 F12b energy             7.15      0.35      7.50      7.51

 Program statistics:

 Available memory in ccsd:              2999999464
 Min. memory needed in ccsd:               3963025
 Max. memory used in ccsd:                 5096465
 Max. memory used in cckext:               3666031 (12 integral passes)



 **********************************************************************************************************************************
 DATASETS  * FILE   NREC   LENGTH (MB)   RECORD NAMES
              1      20     2206.26       500      610      700      900      950      970     1000      129      960     1100   
                                          VAR    BASINP    GEOM    SYMINP    ZMAT    AOBASIS   BASIS     P2S    ABASIS      S 
                                         1400     1410     1200     1210     1080     1600     1650     1300     1700     1380   
                                           T        V       H0       H01     AOSYM     SMH    MOLCAS    ERIS     OPER     JKOP   

              2       6        4.74       700     1000      520     2100     7360     7350   
                                         GEOM     BASIS   MCVARS     RHF    F12ABS    EF12   

 PROGRAMS   *        TOTAL   CCSD(T)        HF       INT
 CPU TIMES  *       334.88    292.44     26.55     15.76
 REAL TIME  *       438.29 SEC
 DISK USED  *         5.21 GB      
 **********************************************************************************************************************************
 SETTING E_F12_AB(1)    =      -116.83246849  AU                              
 SETTING E_F12_AB(2)    =      -116.82465690  AU                              

 Dummy atoms: O1  H5  H6


 Recomputing one-electron integrals since nuclear charges changed


 PROGRAM * SEWARD (Integral evaluation for generally contracted gaussian basis sets)     Author: Roland Lindh, 1990

 Geometry written to block  1 of record 700


 Point group  C1  



 ATOMIC COORDINATES

 NR  ATOM    CHARGE       X              Y              Z

   1  C1      6.00   -6.193010455    2.801518980    2.403542658
   2  H1      1.00   -4.656285171    1.699997622    3.119937832
   3  H2      1.00   -5.973046335    4.726205038    2.982932688
   4  H3      1.00   -7.940251230    2.077186956    3.118237078
   5  H4      1.00   -6.176569838    2.685300823    0.384937212
   6  O1      0.00  -12.011477193    0.742095449    6.107594835
   7  H5      0.00  -11.750694988   -0.413472076    4.697292228
   8  H6      0.00  -10.560734447    0.465061599    7.217053042

 Bond lengths in Bohr (Angstrom)

 1-2  2.021904040  1-3  2.022002335  1-4  2.021953343  1-5  2.022015060  6-7  1.841818967
     ( 1.069945541)     ( 1.069997556)     ( 1.069971630)     ( 1.070004290)     ( 0.974648624)

 6-8  1.847241128
     ( 0.977517908)

 Bond angles

  2-1-3  109.53398059   2-1-4  109.65604535   2-1-5  108.43490854   3-1-4  109.49436728

  3-1-5  109.86987750   4-1-5  109.83468330   7-6-8  104.74973043

 NUCLEAR CHARGE:                   10
 NUMBER OF PRIMITIVE AOS:         270
 NUMBER OF SYMMETRY AOS:          246
 NUMBER OF CONTRACTIONS:          214   ( 214A   )
 NUMBER OF CORE ORBITALS:           1   (   1A   )
 NUMBER OF VALENCE ORBITALS:        8   (   8A   )

 MOLECULE CHANGED: INITIALIZING OCCUPATION AND DUMP RECORDS


 NUCLEAR REPULSION ENERGY   13.68681606


 Eigenvalues of metric

         1 0.726E-04 0.199E-03 0.268E-03 0.316E-03 0.334E-03 0.450E-03 0.532E-03 0.554E-03


 Contracted 2-electron integrals neglected if value below      1.0D-19

 OPERATOR DM      FOR CENTER  0  COORDINATES:    0.000000    0.000000    0.000000


 **********************************************************************************************************************************
 DATASETS  * FILE   NREC   LENGTH (MB)   RECORD NAMES
              1      19     1912.71       500      610      700      900      950      970     1000      129      960     1100   
                                          VAR    BASINP    GEOM    SYMINP    ZMAT    AOBASIS   BASIS     P2S    ABASIS      S 
                                         1400     1410     1200     1210     1080     1600     1650     1300     1700   
                                           T        V       H0       H01     AOSYM     SMH    MOLCAS    ERIS     OPER   

              2       6        4.74       700     1000      520     2100     7360     7350   
                                         GEOM     BASIS   MCVARS     RHF    F12ABS    EF12   

 PROGRAMS   *        TOTAL       INT   CCSD(T)        HF       INT
 CPU TIMES  *       334.94      0.06    292.44     26.55     15.76
 REAL TIME  *       438.63 SEC
 DISK USED  *         5.21 GB      
 **********************************************************************************************************************************


 PROGRAM * RHF-SCF (CLOSED SHELL)       Authors: W. Meyer, H.-J. Werner


 NUMBER OF ELECTRONS:       5+    5-    SPACE SYMMETRY=1    SPIN SYMMETRY: Singlet 
 CONVERGENCE THRESHOLDS:    1.00E-04 (Density)    1.00E-09 (Energy)
 MAX. NUMBER OF ITERATIONS:       60
 INTERPOLATION TYPE:            DIIS
 INTERPOLATION STEPS:              2 (START)      1 (STEP)
 LEVEL SHIFTS:                  0.00 (CLOSED)  0.00 (OPEN) 



 Orbital guess generated from atomic densities. Full valence occupancy:    9

 Molecular orbital dump at record        2101.2

 Initial occupancy:   5

 ITERATION    DDIFF          GRAD             ENERGY        2-EL.EN.            DIPOLE MOMENTS         DIIS   ORB.
    1      0.000D+00      0.000D+00       -40.19565550     53.501376    0.00418   -0.00274   -0.00130    0    start
    2      0.000D+00      0.368D-02       -40.21290062     52.216638    0.00139   -0.00085   -0.00037    1    diag
    3      0.319D-02      0.143D-02       -40.21516952     52.670303    0.00192   -0.00121   -0.00054    2    diag
    4      0.859D-03      0.357D-03       -40.21548775     52.615356    0.00172   -0.00107   -0.00046    3    diag
    5      0.333D-03      0.463D-04       -40.21549322     52.617510    0.00169   -0.00105   -0.00045    4    diag
    6      0.586D-04      0.375D-05       -40.21549327     52.617655    0.00169   -0.00105   -0.00045    5    diag
    7      0.859D-05      0.302D-06       -40.21549327     52.617615    0.00169   -0.00105   -0.00045    6    diag
    8      0.922D-06      0.229D-07       -40.21549327     52.617616    0.00169   -0.00105   -0.00045    0    orth

 Final occupancy:   5

 !RHF STATE 1.1 Energy                -40.215493266253
 Nuclear energy                        13.68681606
 One-electron energy                  -80.21111751
 Two-electron energy                   26.30880819
 Virial quotient                       -0.99832361
 !RHF STATE 1.1 Dipole moment           0.00168691    -0.00104668    -0.00044944
 Dipole moment /Debye                   0.00428743    -0.00266023    -0.00114228

 Orbital energies:

         1.1          2.1          3.1          4.1          5.1          6.1          7.1
    -11.196271    -0.950713    -0.551938    -0.550004    -0.547825     0.055438     0.068650

 HOMO      5.1    -0.547825 =     -14.9071eV
 LUMO      6.1     0.055438 =       1.5085eV
 LUMO-HOMO         0.603263 =      16.4156eV


 **********************************************************************************************************************************
 DATASETS  * FILE   NREC   LENGTH (MB)   RECORD NAMES
              1      19     1912.71       500      610      700      900      950      970     1000      129      960     1100   
                                          VAR    BASINP    GEOM    SYMINP    ZMAT    AOBASIS   BASIS     P2S    ABASIS      S 
                                         1400     1410     1200     1210     1080     1600     1650     1300     1700   
                                           T        V       H0       H01     AOSYM     SMH    MOLCAS    ERIS     OPER   

              2       7        8.14       700     1000      520     2100     7360     7350     2101   
                                         GEOM     BASIS   MCVARS     RHF    F12ABS    EF12      RHF  

 PROGRAMS   *        TOTAL        HF       INT   CCSD(T)        HF       INT
 CPU TIMES  *       354.83     19.89      0.06    292.44     26.55     15.76
 REAL TIME  *       462.01 SEC
 DISK USED  *         5.21 GB      
 **********************************************************************************************************************************
 SETTING E_HF_A         =       -40.21549327  AU                              


 PROGRAM * CCSD (Closed-shell coupled cluster)     Authors: C. Hampel, H.-J. Werner, 1991, M. Deegan, P.J. Knowles, 1992

                                  CCSD-F12 implementation by  H.-J. Werner, 2007

                   Density fitting integral evaluation by F.R. Manby, 2003,2007, G. Knizia, 2010

 Basis set CC-PVTZ/JKFIT generated.      Number of basis functions:   338 
 Basis set CC-PVTZ-F12/OPTRI generated.  Number of basis functions:   396 
 Basis set AUG-CC-PVTZ/MP2FIT generated. Number of basis functions:   488 

 Convergence thresholds:  THRVAR = 1.00D-08  THRDEN = 1.00D-08

 CCSD(T)     terms to be evaluated (factor= 1.000)


 Number of core orbitals:           1 (   1 )
 Number of closed-shell orbitals:   4 (   4 )
 Number of external orbitals:     209 ( 209 )

 Molecular orbitals read from record     2101.2  Type=RHF/CANONICAL (state 1.1)

 MP2-F12 correlation treatment (H.-J. Werner, 2006)
 ==================================================

 Using MP2-F12 with ansatz 3C(FIX)

 Using projected zeroth-order Hamiltonian (+Z)

 FOCKRIB=T FOCKRIC=T FOCKRIP=T CABSP=T CABSA=T CABSK=T CABSF=T GBC=F EBC=F DMAT=T NOFIK=T NOPAO=1 SOLVE=-1  USEPAO=0
 EXCH_A= T EXCH_B= F EXCH_C= F EXCH_P= F
 
 Geminal basis:    OPTFULL  GEM_TYPE=SLATER  BETA=1.0  NGEM=6

 Optimizing Gaussian exponents for each gem_beta

 Geminal optimization for beta= 1.0000
 Weight function:   m=0, omega= 1.4646

 Augmented Hessian optimization of geminal fit. Trust ratio= 0.40000
 Convergence reached after   2 iterations. Final gradient= 8.26D-16, Step= 4.26D-06, Delta= 1.28D-09
 
 Alpha:                 0.19532     0.81920     2.85917     9.50073    35.69989   197.79328
 Coeff:                 0.27070     0.30552     0.18297     0.10986     0.06810     0.04224
 

 All pairs explicitly correlated. Number of r12-pairs:           10

 Excluding core orbitals from MO domains
 
 AO(A)-basis ORBITAL           loaded. Number of functions:     214
 RI(R)-basis CC-PVTZ-F12/OPTRI loaded. Number of functions:     396
 DF-basis CC-PVTZ/JKFIT        loaded. Number of functions:     338

 Screening thresholds:   THRAO=  1.00D-10  THRMO=  1.00D-09  THRPROD=  1.00D-09
                         THRSW=  1.00D-05  THROV=  1.00D-12  THRAOF12=   1.00D-08

 CPU time for Fock operators                      2.74 sec
 
 Construction of ABS:
 Smallest eigenvalue of S          3.31E-04  (threshold= 1.00E-08)
 Ratio eigmin/eigmax               4.24E-05  (threshold= 1.00E-09)
 Smallest eigenvalue of S kept     3.31E-04  (threshold= 3.31E-04, 0 functions deleted, 396 kept)
 
 Construction of CABS:
 Smallest eigenvalue of S          7.56E-07  (threshold= 1.00E-08)
 Ratio eigmin/eigmax               7.56E-07  (threshold= 1.00E-09)
 Smallest eigenvalue of S kept     7.56E-07  (threshold= 7.56E-07, 0 functions deleted, 396 kept)
 
 CPU time for CABS singles                        0.12 sec

 CABS-singles contribution of  -0.00063515 patched into reference energy.
 New reference energy         -40.21612842
 
 AO(A)-basis ORBITAL           loaded. Number of functions:     214
 RI(R)-basis CC-PVTZ-F12/OPTRI loaded. Number of functions:     396
 DF-basis AUG-CC-PVTZ/MP2FIT   loaded. Number of functions:     488

 Screening thresholds:   THRAO=  1.00D-10  THRMO=  1.00D-09  THRPROD=  1.00D-09
                         THRSW=  1.00D-05  THROV=  1.00D-12  THRAOF12=   1.00D-08

 CPU time for 3-index integral evaluation         6.02 sec
 CPU time for first  half transformation          0.36 sec ( 7152.4 MFLOP/sec)
 CPU time for second half transformation          0.02 sec ( 1462.0 MFLOP/sec)
 CPU time for fitting                             0.03 sec (39690.7 MFLOP/sec)
 CPU time for tilde quantities                    0.05 sec (31777.9 MFLOP/sec)
 CPU time for assembly                            0.22 sec (36254.9 MFLOP/sec)
 CPU time for tranop_f12                          0.25 sec (38326.5 MFLOP/sec)
 CPU time for f12 integrals (total)               7.41 sec, Elapsed time:      7.73 sec
 CPU time for f12 matrices (total)                0.08 sec, Elapsed time:      0.12 sec

 Diagonal F12 approximation with fixed coefficients:  TSING= 0.500,  TTRIP= 0.250 (scaled by -1/beta)

 DF-MP2-F12 energy corrections:
 ==============================
 Approx.                                    Singlet             Triplet             Total
 DF-MP2-F12/3*C(DX,FIX)                -0.016279253517     -0.001138892680     -0.017418146196
 DF-MP2-F12/3*C(FIX)                   -0.015917536197     -0.001148476870     -0.017066013066
 DF-MP2-F12/3C(FIX)                    -0.015849875131     -0.001155643701     -0.017005518833

 DF-MP2-F12 correlation energies:
 ================================
 Approx.                                    Singlet             Triplet             Ecorr            Total Energy
 DF-MP2                                -0.145623759168     -0.055806445129     -0.201430204297    -40.417558622080
 DF-MP2-F12/3*C(DX,FIX)                -0.161903012684     -0.056945337809     -0.218848350494    -40.434976768276
 DF-MP2-F12/3*C(FIX)                   -0.161541295364     -0.056954921999     -0.218496217364    -40.434624635146
 DF-MP2-F12/3C(FIX)                    -0.161473634299     -0.056962088830     -0.218435723130    -40.434564140912

 SCS-DF-MP2 energies (F_SING= 1.20000  F_TRIP= 0.62222  F_PARALLEL= 0.33333):
 ============================================================================
 SCS-DF-MP2                            -0.209472521304    -40.425600939087
 SCS-DF-MP2-F12/3*C(DX,FIX)            -0.229716269858    -40.445844687641
 SCS-DF-MP2-F12/3*C(FIX)               -0.229288172570    -40.445416590353
 SCS-DF-MP2-F12/3C(FIX)                -0.229211438654    -40.445339856436
 Symmetry transformation completed.

 Number of N-1 electron functions:               4
 Number of N-2 electron functions:              10
 Number of singly external CSFs:               836
 Number of doubly external CSFs:            349866
 Total number of CSFs:                      350703

 Length of J-op  integral file:              53.89 MB
 Length of K-op  integral file:              87.81 MB
 Length of 3-ext integral record:             0.00 MB

 Memory could be reduced to 60.96 Mwords without degradation in triples

 Integral transformation finished. Total CPU:   5.41 sec, npass=  1  Memory used:  26.32 MW

 Reference energy:                    -40.21612842

 Adding F12 terms to K(Cij), methodcc=6,  factor= 1.0

 ITER.      SQ.NORM     CORR.ENERGY   TOTAL ENERGY   ENERGY CHANGE        DEN1      VAR(S)    VAR(P)  DIIS     TIME  TIME/IT
   1      1.06960663    -0.21653135   -40.43265976    -0.01506661    -0.00954156  0.62D-03  0.94D-03  1  1    19.52     3.80
   2      1.07446104    -0.21734833   -40.43347674    -0.00081698    -0.00516249  0.14D-04  0.90D-04  2  2    23.29     3.95
   3      1.07598329    -0.21745972   -40.43358813    -0.00011139    -0.00109029  0.20D-05  0.57D-05  3  3    27.05     4.01
   4      1.07635261    -0.21747420   -40.43360262    -0.00001449    -0.00020082  0.13D-06  0.31D-06  4  4    30.82     4.03
   5      1.07640451    -0.21747384   -40.43360226     0.00000036    -0.00000935  0.77D-08  0.15D-07  5  5    34.56     4.04
   6      1.07641081    -0.21747260   -40.43360102     0.00000124    -0.00000292  0.34D-09  0.92D-09  6  6    38.33     5.51
   7      1.07641158    -0.21747251   -40.43360093     0.00000009    -0.00000044  0.25D-10  0.80D-10  6  1    42.12     5.31
   8      1.07641168    -0.21747254   -40.43360096    -0.00000003     0.00000001  0.32D-11  0.67D-11  6  2    45.96     6.08
   9      1.07641168    -0.21747255   -40.43360096    -0.00000001     0.00000004  0.22D-12  0.38D-12  6  3    49.87     5.89
  10      1.07641168    -0.21747255   -40.43360096    -0.00000000     0.00000001  0.25D-13  0.37D-13  6  4    53.80     5.73

 Norm of t1 vector:      0.03261129      S-energy:    -0.00000000      T1 diagnostic:  0.00815282
                                                                       D1 diagnostic:  0.01307039

 Adding energy correction from Wij-K(Fij), methodcc=6  factor= 1.0
 
  CCSD correlation energy              -0.217472546861
  MP2-F12 correction (uncoupled)       -0.016707198450
  C*T doubles correction               -0.000289676635
  f12b correction                       0.003524100611


 Total CPU time for triples:     23.23 sec

  Ecorr(MP2)                           -0.201464739114
  Ecorr(MP2-F12)                       -0.218470257947
  Scale factor for triples energy       1.084409405374


 RESULTS
 =======

  Reference energy                    -40.215493266253
  F12 singles correction               -0.000635151530

 F12 singles corrections added to reference energy

  New reference energy                -40.216128417783

  F12a singlet correction              -0.015853688716
  F12a triplet correction              -0.001143186369
  F12a total correction                -0.016996875085

 F12a corrections for ansatz F12/3C(FIX) added to CCSD energy
 
  CCSD-F12a singlet pair energy        -0.179253192880
  CCSD-F12a triplet pair energy        -0.055216228610
  CCSD-F12a correlation energy         -0.234469421946

  Triples (T) contribution (scaled)    -0.006989075183
  Total correlation energy             -0.241458497129

  CCSD-F12a total energy              -40.450597839729
  CCSD[T]-F12a energy                 -40.457828350451
  CCSD-T-F12a energy                  -40.457513558961
 !CCSD(T)-F12a total energy           -40.457586914911

 F12b corrections for ansatz F12/3C(FIX) added to CCSD(T)-F12a energy

  CCSD-F12b singlet pair energy        -0.175883762321
  CCSD-F12b triplet pair energy        -0.055061558558
  CCSD-F12b correlation energy         -0.230945321335

  Triples (T) contribution (scaled)    -0.006989075183
  Total correlation energy             -0.237934396518

  CCSD-F12b total energy              -40.447073739118
  CCSD[T]-F12b energy                 -40.454304249840
  CCSD-T-F12b energy                  -40.453989458350
 !CCSD(T)-F12b total energy           -40.454062814301

 Timing summary (sec):

 STEP                 CPU(USER)    SYS     CPU(TOT)    WALL
 Transformation          5.45      0.66      6.11      6.16
 CCSD iterations        37.86      3.37     41.23     57.44
 Triples                23.23      0.37     23.60     23.60
 MP2-F12                10.50      0.42     10.92     11.00
 F12b energy             3.41      0.29      3.70      3.72

 Program statistics:

 Available memory in ccsd:              2999999786
 Min. memory needed in ccsd:               1609972
 Max. memory used in ccsd:                 1864434
 Max. memory used in cckext:               1252381 (11 integral passes)



 **********************************************************************************************************************************
 DATASETS  * FILE   NREC   LENGTH (MB)   RECORD NAMES
              1      20     2065.72       500      610      700      900      950      970     1000      129      960     1100   
                                          VAR    BASINP    GEOM    SYMINP    ZMAT    AOBASIS   BASIS     P2S    ABASIS      S 
                                         1400     1410     1200     1210     1080     1600     1650     1300     1700     1380   
                                           T        V       H0       H01     AOSYM     SMH    MOLCAS    ERIS     OPER     JKOP   

              2       7        8.14       700     1000      520     2100     7360     7350     2101   
                                         GEOM     BASIS   MCVARS     RHF    F12ABS    EF12      RHF  

 PROGRAMS   *        TOTAL   CCSD(T)        HF       INT   CCSD(T)        HF       INT
 CPU TIMES  *       435.32     80.49     19.89      0.06    292.44     26.55     15.76
 REAL TIME  *       566.60 SEC
 DISK USED  *         5.21 GB      
 **********************************************************************************************************************************
 SETTING E_F12_A(1)     =       -40.45758691  AU                              
 SETTING E_F12_A(2)     =       -40.45406281  AU                              

 Dummy atoms: C1  H1  H2  H3  H4


 Recomputing one-electron integrals since nuclear charges changed


 PROGRAM * SEWARD (Integral evaluation for generally contracted gaussian basis sets)     Author: Roland Lindh, 1990

 Geometry written to block  1 of record 700


 Point group  C1  



 ATOMIC COORDINATES

 NR  ATOM    CHARGE       X              Y              Z

   1  C1      0.00   -6.193010455    2.801518980    2.403542658
   2  H1      0.00   -4.656285171    1.699997622    3.119937832
   3  H2      0.00   -5.973046335    4.726205038    2.982932688
   4  H3      0.00   -7.940251230    2.077186956    3.118237078
   5  H4      0.00   -6.176569838    2.685300823    0.384937212
   6  O1      8.00  -12.011477193    0.742095449    6.107594835
   7  H5      1.00  -11.750694988   -0.413472076    4.697292228
   8  H6      1.00  -10.560734447    0.465061599    7.217053042

 Bond lengths in Bohr (Angstrom)

 1-2  2.021904040  1-3  2.022002335  1-4  2.021953343  1-5  2.022015060  6-7  1.841818967
     ( 1.069945541)     ( 1.069997556)     ( 1.069971630)     ( 1.070004290)     ( 0.974648624)

 6-8  1.847241128
     ( 0.977517908)

 Bond angles

  2-1-3  109.53398059   2-1-4  109.65604535   2-1-5  108.43490854   3-1-4  109.49436728

  3-1-5  109.86987750   4-1-5  109.83468330   7-6-8  104.74973043

 NUCLEAR CHARGE:                   10
 NUMBER OF PRIMITIVE AOS:         270
 NUMBER OF SYMMETRY AOS:          246
 NUMBER OF CONTRACTIONS:          214   ( 214A   )
 NUMBER OF CORE ORBITALS:           1   (   1A   )
 NUMBER OF VALENCE ORBITALS:        6   (   6A   )

 MOLECULE CHANGED: INITIALIZING OCCUPATION AND DUMP RECORDS


 NUCLEAR REPULSION ENERGY    9.01656758


 Eigenvalues of metric

         1 0.726E-04 0.199E-03 0.268E-03 0.316E-03 0.334E-03 0.450E-03 0.532E-03 0.554E-03


 Contracted 2-electron integrals neglected if value below      1.0D-19

 OPERATOR DM      FOR CENTER  0  COORDINATES:    0.000000    0.000000    0.000000


 **********************************************************************************************************************************
 DATASETS  * FILE   NREC   LENGTH (MB)   RECORD NAMES
              1      19     1912.71       500      610      700      900      950      970     1000      129      960     1100   
                                          VAR    BASINP    GEOM    SYMINP    ZMAT    AOBASIS   BASIS     P2S    ABASIS      S 
                                         1400     1410     1200     1210     1080     1600     1650     1300     1700   
                                           T        V       H0       H01     AOSYM     SMH    MOLCAS    ERIS     OPER   

              2       7        8.14       700     1000      520     2100     7360     7350     2101   
                                         GEOM     BASIS   MCVARS     RHF    F12ABS    EF12      RHF  

 PROGRAMS   *        TOTAL       INT   CCSD(T)        HF       INT   CCSD(T)        HF       INT
 CPU TIMES  *       435.38      0.06     80.49     19.89      0.06    292.44     26.55     15.76
 REAL TIME  *       566.79 SEC
 DISK USED  *         5.21 GB      
 **********************************************************************************************************************************


 PROGRAM * RHF-SCF (CLOSED SHELL)       Authors: W. Meyer, H.-J. Werner


 NUMBER OF ELECTRONS:       5+    5-    SPACE SYMMETRY=1    SPIN SYMMETRY: Singlet 
 CONVERGENCE THRESHOLDS:    1.00E-04 (Density)    1.00E-09 (Energy)
 MAX. NUMBER OF ITERATIONS:       60
 INTERPOLATION TYPE:            DIIS
 INTERPOLATION STEPS:              2 (START)      1 (STEP)
 LEVEL SHIFTS:                  0.00 (CLOSED)  0.00 (OPEN) 



 Orbital guess generated from atomic densities. Full valence occupancy:    7

 Molecular orbital dump at record        2102.2

 Initial occupancy:   5

 ITERATION    DDIFF          GRAD             ENERGY        2-EL.EN.            DIPOLE MOMENTS         DIIS   ORB.
    1      0.000D+00      0.000D+00       -76.02475847     77.425445    0.87809   -0.73389   -0.15358    0    start
    2      0.000D+00      0.672D-02       -76.05160962     73.784062    0.51202   -0.42889   -0.09005    1    diag
    3      0.466D-02      0.426D-02       -76.06310509     75.400842    0.60319   -0.50486   -0.10612    2    diag
    4      0.163D-02      0.401D-03       -76.06329877     75.308393    0.59953   -0.50192   -0.10564    3    diag
    5      0.228D-03      0.112D-03       -76.06331953     75.322974    0.59821   -0.50085   -0.10548    4    diag
    6      0.790D-04      0.221D-04       -76.06332086     75.321925    0.59790   -0.50060   -0.10545    5    diag
    7      0.233D-04      0.448D-05       -76.06332093     75.322076    0.59780   -0.50051   -0.10544    6    diag
    8      0.555D-05      0.859D-06       -76.06332093     75.322064    0.59776   -0.50048   -0.10544    7    diag
    9      0.964D-06      0.113D-06       -76.06332093     75.322055    0.59776   -0.50048   -0.10544    8    diag
   10      0.175D-06      0.245D-07       -76.06332093     75.322059    0.59776   -0.50048   -0.10544    0    orth

 Final occupancy:   5

 !RHF STATE 1.1 Energy                -76.063320933057
 Nuclear energy                         9.01656758
 One-electron energy                 -122.74091813
 Two-electron energy                   37.66102961
 Virial quotient                       -1.00185569
 !RHF STATE 1.1 Dipole moment           0.59775931    -0.50048173    -0.10543798
 Dipole moment /Debye                   1.51925311    -1.27201435    -0.26797906

 Orbital energies:

         1.1          2.1          3.1          4.1          5.1          6.1          7.1
    -20.568085    -1.343288    -0.708146    -0.580968    -0.508942     0.037090     0.063158

 HOMO      5.1    -0.508942 =     -13.8490eV
 LUMO      6.1     0.037090 =       1.0093eV
 LUMO-HOMO         0.546032 =      14.8583eV


 **********************************************************************************************************************************
 DATASETS  * FILE   NREC   LENGTH (MB)   RECORD NAMES
              1      19     1912.71       500      610      700      900      950      970     1000      129      960     1100   
                                          VAR    BASINP    GEOM    SYMINP    ZMAT    AOBASIS   BASIS     P2S    ABASIS      S 
                                         1400     1410     1200     1210     1080     1600     1650     1300     1700   
                                           T        V       H0       H01     AOSYM     SMH    MOLCAS    ERIS     OPER   

              2       8       12.47       700     1000      520     2100     7360     7350     2101     2102   
                                         GEOM     BASIS   MCVARS     RHF    F12ABS    EF12      RHF      RHF  

 PROGRAMS   *        TOTAL        HF       INT   CCSD(T)        HF       INT   CCSD(T)        HF       INT
 CPU TIMES  *       459.69     24.31      0.06     80.49     19.89      0.06    292.44     26.55     15.76
 REAL TIME  *       594.89 SEC
 DISK USED  *         5.21 GB      
 **********************************************************************************************************************************
 SETTING E_HF_B         =       -76.06332093  AU                              


 PROGRAM * CCSD (Closed-shell coupled cluster)     Authors: C. Hampel, H.-J. Werner, 1991, M. Deegan, P.J. Knowles, 1992

                                  CCSD-F12 implementation by  H.-J. Werner, 2007

                   Density fitting integral evaluation by F.R. Manby, 2003,2007, G. Knizia, 2010

 Basis set CC-PVTZ/JKFIT generated.      Number of basis functions:   338 
 Basis set CC-PVTZ-F12/OPTRI generated.  Number of basis functions:   396 
 Basis set AUG-CC-PVTZ/MP2FIT generated. Number of basis functions:   488 

 Convergence thresholds:  THRVAR = 1.00D-08  THRDEN = 1.00D-08

 CCSD(T)     terms to be evaluated (factor= 1.000)


 Number of core orbitals:           1 (   1 )
 Number of closed-shell orbitals:   4 (   4 )
 Number of external orbitals:     209 ( 209 )

 Molecular orbitals read from record     2102.2  Type=RHF/CANONICAL (state 1.1)

 MP2-F12 correlation treatment (H.-J. Werner, 2006)
 ==================================================

 Using MP2-F12 with ansatz 3C(FIX)

 Using projected zeroth-order Hamiltonian (+Z)

 FOCKRIB=T FOCKRIC=T FOCKRIP=T CABSP=T CABSA=T CABSK=T CABSF=T GBC=F EBC=F DMAT=T NOFIK=T NOPAO=1 SOLVE=-1  USEPAO=0
 EXCH_A= T EXCH_B= F EXCH_C= F EXCH_P= F
 
 Geminal basis:    OPTFULL  GEM_TYPE=SLATER  BETA=1.0  NGEM=6

 Optimizing Gaussian exponents for each gem_beta

 Geminal optimization for beta= 1.0000
 Weight function:   m=0, omega= 1.4646

 Augmented Hessian optimization of geminal fit. Trust ratio= 0.40000
 Convergence reached after   2 iterations. Final gradient= 8.26D-16, Step= 4.26D-06, Delta= 1.28D-09
 
 Alpha:                 0.19532     0.81920     2.85917     9.50073    35.69989   197.79328
 Coeff:                 0.27070     0.30552     0.18297     0.10986     0.06810     0.04224
 

 All pairs explicitly correlated. Number of r12-pairs:           10

 Excluding core orbitals from MO domains
 
 AO(A)-basis ORBITAL           loaded. Number of functions:     214
 RI(R)-basis CC-PVTZ-F12/OPTRI loaded. Number of functions:     396
 DF-basis CC-PVTZ/JKFIT        loaded. Number of functions:     338

 Screening thresholds:   THRAO=  1.00D-10  THRMO=  1.00D-09  THRPROD=  1.00D-09
                         THRSW=  1.00D-05  THROV=  1.00D-12  THRAOF12=   1.00D-08

 CPU time for Fock operators                      2.78 sec
 
 Construction of ABS:
 Smallest eigenvalue of S          3.31E-04  (threshold= 1.00E-08)
 Ratio eigmin/eigmax               4.24E-05  (threshold= 1.00E-09)
 Smallest eigenvalue of S kept     3.31E-04  (threshold= 3.31E-04, 0 functions deleted, 396 kept)
 
 Construction of CABS:
 Smallest eigenvalue of S          7.56E-07  (threshold= 1.00E-08)
 Ratio eigmin/eigmax               7.56E-07  (threshold= 1.00E-09)
 Smallest eigenvalue of S kept     7.56E-07  (threshold= 7.56E-07, 0 functions deleted, 396 kept)
 
 CPU time for CABS singles                        0.12 sec

 CABS-singles contribution of  -0.00097563 patched into reference energy.
 New reference energy         -76.06429657
 
 AO(A)-basis ORBITAL           loaded. Number of functions:     214
 RI(R)-basis CC-PVTZ-F12/OPTRI loaded. Number of functions:     396
 DF-basis AUG-CC-PVTZ/MP2FIT   loaded. Number of functions:     488

 Screening thresholds:   THRAO=  1.00D-10  THRMO=  1.00D-09  THRPROD=  1.00D-09
                         THRSW=  1.00D-05  THROV=  1.00D-12  THRAOF12=   1.00D-08

 CPU time for 3-index integral evaluation         6.45 sec
 CPU time for first  half transformation          0.73 sec ( 3527.2 MFLOP/sec)
 CPU time for sorting                             0.02 sec
 CPU time for fitting                             0.03 sec (39690.7 MFLOP/sec)
 CPU time for tilde quantities                    0.04 sec (39722.4 MFLOP/sec)
 CPU time for assembly                            0.23 sec (34678.6 MFLOP/sec)
 CPU time for tranop_f12                          0.27 sec (35487.5 MFLOP/sec)
 CPU time for f12 integrals (total)               8.26 sec, Elapsed time:     15.31 sec
 CPU time for f12 matrices (total)                0.09 sec, Elapsed time:      0.13 sec

 Diagonal F12 approximation with fixed coefficients:  TSING= 0.500,  TTRIP= 0.250 (scaled by -1/beta)

 DF-MP2-F12 energy corrections:
 ==============================
 Approx.                                    Singlet             Triplet             Total
 DF-MP2-F12/3*C(DX,FIX)                -0.025108802474     -0.002996707179     -0.028105509653
 DF-MP2-F12/3*C(FIX)                   -0.023331492077     -0.002709521757     -0.026041013835
 DF-MP2-F12/3C(FIX)                    -0.023260746822     -0.002807345051     -0.026068091873

 DF-MP2-F12 correlation energies:
 ================================
 Approx.                                    Singlet             Triplet             Ecorr            Total Energy
 DF-MP2                                -0.174850097597     -0.099714429847     -0.274564527444    -76.338861093564
 DF-MP2-F12/3*C(DX,FIX)                -0.199958900071     -0.102711137026     -0.302670037097    -76.366966603216
 DF-MP2-F12/3*C(FIX)                   -0.198181589675     -0.102423951604     -0.300605541279    -76.364902107398
 DF-MP2-F12/3C(FIX)                    -0.198110844419     -0.102521774898     -0.300632619317    -76.364929185437

 SCS-DF-MP2 energies (F_SING= 1.20000  F_TRIP= 0.62222  F_PARALLEL= 0.33333):
 ============================================================================
 SCS-DF-MP2                            -0.271864651244    -76.336161217363
 SCS-DF-MP2-F12/3*C(DX,FIX)            -0.303859832012    -76.368156398132
 SCS-DF-MP2-F12/3*C(FIX)               -0.301548366386    -76.365844932505
 SCS-DF-MP2-F12/3C(FIX)                -0.301524339906    -76.365820906026
 Symmetry transformation completed.

 Number of N-1 electron functions:               4
 Number of N-2 electron functions:              10
 Number of singly external CSFs:               836
 Number of doubly external CSFs:            349866
 Total number of CSFs:                      350703

 Length of J-op  integral file:              53.89 MB
 Length of K-op  integral file:              87.81 MB
 Length of 3-ext integral record:             0.00 MB

 Memory could be reduced to 60.96 Mwords without degradation in triples

 Integral transformation finished. Total CPU:   5.75 sec, npass=  1  Memory used:  26.32 MW

 Reference energy:                    -76.06429657

 Adding F12 terms to K(Cij), methodcc=6,  factor= 1.0

 ITER.      SQ.NORM     CORR.ENERGY   TOTAL ENERGY   ENERGY CHANGE        DEN1      VAR(S)    VAR(P)  DIIS     TIME  TIME/IT
   1      1.06256174    -0.27470166   -76.33899823    -0.00009776     0.00587548  0.77D-03  0.10D-02  1  1    20.87     3.94
   2      1.06594743    -0.27445476   -76.33875132     0.00024690    -0.00467145  0.14D-04  0.11D-03  2  2    24.81     4.12
   3      1.06715891    -0.27458894   -76.33888550    -0.00013418    -0.00081861  0.95D-05  0.72D-05  3  3    28.75     4.19
   4      1.06771524    -0.27461120   -76.33890777    -0.00002227    -0.00036102  0.47D-06  0.61D-06  4  4    32.65     4.22
   5      1.06781170    -0.27460968   -76.33890625     0.00000152    -0.00002244  0.15D-06  0.44D-07  5  5    36.59     4.24
   6      1.06783933    -0.27460826   -76.33890483     0.00000142    -0.00000411  0.16D-07  0.43D-08  6  6    40.54     4.26
   7      1.06784723    -0.27460783   -76.33890440     0.00000043    -0.00000174  0.13D-08  0.59D-09  6  1    44.44     4.27
   8      1.06784889    -0.27460783   -76.33890440     0.00000000    -0.00000012  0.19D-09  0.71D-10  6  2    48.34     4.27
   9      1.06784945    -0.27460784   -76.33890441    -0.00000001     0.00000005  0.16D-10  0.92D-11  6  3    52.28     4.27

 Norm of t1 vector:      0.03640326      S-energy:    -0.00000005      T1 diagnostic:  0.00910081
                                                                       D1 diagnostic:  0.01838882

 Adding energy correction from Wij-K(Fij), methodcc=6  factor= 1.0
 
  CCSD correlation energy              -0.274607839138
  MP2-F12 correction (uncoupled)       -0.024955001545
  C*T doubles correction               -0.000828675889
  f12b correction                       0.004275016298

 Total CPU time for triples:     23.11 sec

  Ecorr(MP2)                           -0.274603898309
  Ecorr(MP2-F12)                       -0.300671990183
  Scale factor for triples energy       1.094929795366


 RESULTS
 =======

  Reference energy                    -76.063320933057
  F12 singles correction               -0.000975633063

 F12 singles corrections added to reference energy

  New reference energy                -76.064296566119

  F12a singlet correction              -0.023083351902
  F12a triplet correction              -0.002700325532
  F12a total correction                -0.025783677434

 F12a corrections for ansatz F12/3C(FIX) added to CCSD energy
 
  CCSD-F12a singlet pair energy        -0.209539016663
  CCSD-F12a triplet pair energy        -0.090852448710
  CCSD-F12a correlation energy         -0.300391516572

  Triples (T) contribution (scaled)    -0.009759442989
  Total correlation energy             -0.310150959562

  CCSD-F12a total energy              -76.364688082692
  CCSD[T]-F12a energy                 -76.374785242779
  CCSD-T-F12a energy                  -76.374300341717
 !CCSD(T)-F12a total energy           -76.374447525681

 F12b corrections for ansatz F12/3C(FIX) added to CCSD(T)-F12a energy

  CCSD-F12b singlet pair energy        -0.205574021231
  CCSD-F12b triplet pair energy        -0.090542427843
  CCSD-F12b correlation energy         -0.296116500275

  Triples (T) contribution (scaled)    -0.009759442989
  Total correlation energy             -0.305875943264

  CCSD-F12b total energy              -76.360413066394
  CCSD[T]-F12b energy                 -76.370510226481
  CCSD-T-F12b energy                  -76.370025325419
 !CCSD(T)-F12b total energy           -76.370172509383

 Timing summary (sec):

 STEP                 CPU(USER)    SYS     CPU(TOT)    WALL
 Transformation          5.78      0.75      6.53      6.60
 CCSD iterations        35.08      3.46     38.54     38.72
 Triples                23.11      0.36     23.47     23.48
 MP2-F12                11.43      0.52     11.95     25.67
 F12b energy             3.40      0.32      3.72      3.75

 Program statistics:

 Available memory in ccsd:              2999999786
 Min. memory needed in ccsd:               1609972
 Max. memory used in ccsd:                 1864434
 Max. memory used in cckext:               1252381 (10 integral passes)



 **********************************************************************************************************************************
 DATASETS  * FILE   NREC   LENGTH (MB)   RECORD NAMES
              1      20     2065.72       500      610      700      900      950      970     1000      129      960     1100   
                                          VAR    BASINP    GEOM    SYMINP    ZMAT    AOBASIS   BASIS     P2S    ABASIS      S 
                                         1400     1410     1200     1210     1080     1600     1650     1300     1700     1380   
                                           T        V       H0       H01     AOSYM     SMH    MOLCAS    ERIS     OPER     JKOP   

              2       8       12.47       700     1000      520     2100     7360     7350     2101     2102   
                                         GEOM     BASIS   MCVARS     RHF    F12ABS    EF12      RHF      RHF  

 PROGRAMS   *        TOTAL   CCSD(T)        HF       INT   CCSD(T)        HF       INT   CCSD(T)        HF       INT
 CPU TIMES  *       538.53     78.82     24.31      0.06     80.49     19.89      0.06    292.44     26.55     15.76
 REAL TIME  *       693.27 SEC
 DISK USED  *         5.21 GB      
 **********************************************************************************************************************************
 SETTING E_F12_B(1)     =       -76.37444753  AU                              
 SETTING E_F12_B(2)     =       -76.37017251  AU                              
 SETTING E_INT_HF       =         0.00075660  AU                              
 SETTING E_INT_F12(1)   =        -0.00043405  AU                              
 SETTING E_INT_F12(2)   =        -0.00042158  AU                              
 E_INT_HF         =         0.00075660 AU
 E_INT_F12(1:2)   = [      -0.00043405    -0.00042158] AU

 CCSD(T)-F12/cc-pVTZ-F12 energy=    -76.370172509383

     CCSD(T)-F12        HF-SCF       CCSD(T)-F12        HF-SCF       CCSD(T)-F12        HF-SCF  
    -76.37017251    -76.06332093    -40.45406281    -40.21549327   -116.82465690   -116.27805760
 **********************************************************************************************************************************
 Molpro calculation terminated
 Variable memory released
