
 Primary working directories    : /net/scratch/people/plgsirous
 Secondary working directories  : /net/scratch/people/plgsirous
 Wavefunction directory         : /net/people/plgsirous/wfu/
 Main file repository           : /net/scratch/people/plgsirous/

 SHA1      : 
 NAME      : 
 ARCHNAME  : linux/x86_64
 FC        : /net/software/local/intel/impi/2018.1.163/bin64/mpiifort
 BLASLIB   : -L/net/software/local/intel/compilers_and_libraries_2018.1.163/linux/mkl/lib/intel64 -lmkl_scalapack_ilp64 -lmkl_intel_ilp64 -lmkl_intel_thread -lmkl_core -lmkl_blacs_intelmpi_ilp64 -liomp5 -lpthread -lm -ldl
 id        : pl

 Nodes     nprocs
 p1382        1

 Using customized tuning parameters: mindgm=7; mindgv=20; mindgc=1; mindgr=1; noblas=0; minvec=7
 default implementation of scratch files=df  

 memory,3000,m
 zsymel=nosym
 angstrom
 geometry={
 C1        -3.2772    1.4825     1.2719
 H1        -2.4640    0.8996     1.6510
 H2        -3.1608    2.5010     1.5785
 H3        -4.2018    1.0992     1.6501
 H4        -3.2685    1.4210     0.2037
 O1        -6.5748    3.1495     -0.1528
 H5        -7.4673    3.4439     -0.3767
 H6        -6.5674    3.1050     0.8585
 }
 basis=vtz-f12
 gthresh,orbital=1d-8,energy=1d-8,twoint=1.d-19
 
 
 nkerna=1
 nkernb=1
 nkernab=$nkerna+$nkernb
 
                                                                                 ! AB Dimer
 {hf,accu=1.d-8}
 E_HF_AB=energy
 core,$nkernab
 {ccsd(t)-f12,scale_trip=1,THRF12=1.d-12}
 E_F12_AB=energy
 
                                                                                 ! Monomer A Part
 
 dummy,6,7,8;
 {hf,accu=1.d-8}
 E_HF_A=energy
 core,$nkerna
 {ccsd(t)-f12,scale_trip=1,THRF12=1.d-12}
 E_F12_A=energy
 
                                                                                 ! Monomer B Part
 
 dummy,1,2,3,4,5;
 {hf,accu=1.d-8}
 E_HF_B=energy
 core,$nkernb
 {ccsd(t)-f12,scale_trip=1,THRF12=1.d-12}
 E_F12_B=energy
 
 E_int_HF = E_HF_AB-(E_HF_A+E_HF_B)
 E_int_F12 = E_F12_AB-(E_F12_A+E_F12_B)
 
 
 show,E_int_HF,E_int_F12

 Variables initialized (889), CPU time= 0.00 sec
 Commands  initialized (702), CPU time= 0.01 sec, 572 directives.
 Default parameters read. Elapsed time= 0.06 sec

 Checking input...
 Passed
1


                                         ***  PROGRAM SYSTEM MOLPRO  ***
                                       Copyright, TTI GmbH Stuttgart, 2015
                                    Version 2015.1 linked Jul  2 2018 15:03:07


 **********************************************************************************************************************************
 LABEL *                                                                                 
  64 bit serial version                                                                  DATE: 17-Jan-19          TIME: 14:52:46  
 **********************************************************************************************************************************

 SHA1:             
 **********************************************************************************************************************************
 SETTING ZSYMEL         =    NOSYM
 ZSYMEL=NOSYM
 ZUNIT=ANG
 

Geometry recognized as XYZ


 Variable memory set to 3000000000 words,  buffer space   230000 words

 SETTING BASIS          =    VTZ-F12

 THRESHOLDS:

 ZERO    =  1.00D-12  ONEINT  =  1.00D-12  TWOINT  =  1.00D-19  PREFAC  =  1.00D-14  LOCALI  =  1.00D-09  EORDER  =  1.00D-04
 ENERGY  =  1.00D-08  ETEST   =  0.00D+00  EDENS   =  0.00D+00  THRDEDEF=  1.00D-06  GRADIENT=  1.00D-02  STEP    =  1.00D-03
 ORBITAL =  1.00D-08  CIVEC   =  1.00D-05  COEFF   =  1.00D-04  PRINTCI =  5.00D-02  PUNCHCI =  9.90D+01  OPTGRAD =  3.00D-04
 OPTENERG=  1.00D-06  OPTSTEP =  3.00D-04  THRGRAD =  1.00D-10  COMPRESS=  1.00D-11  VARMIN  =  1.00D-07  VARMAX  =  1.00D-03
 THRDOUB =  0.00D+00  THRDIV  =  1.00D-05  THRRED  =  1.00D-07  THRPSP  =  1.00D+00  THRDC   =  1.00D-10  THRCS   =  1.00D-10
 THRNRM  =  1.00D-08  THREQ   =  0.00D+00  THRDE   =  1.00D+00  THRREF  =  1.00D-05  SPARFAC =  1.00D+00  THRDLP  =  1.00D-07
 THRDIA  =  1.00D-10  THRDLS  =  1.00D-07  THRGPS  =  0.00D+00  THRKEX  =  0.00D+00  THRDIS  =  2.00D-01  THRVAR  =  1.00D-10
 THRLOC  =  1.00D-06  THRGAP  =  1.00D-06  THRLOCT = -1.00D+00  THRGAPT = -1.00D+00  THRORB  =  1.00D-06  THRMLTP =  0.00D+00
 THRCPQCI=  1.00D-10  KEXTA   =  0.00D+00  THRCOARS=  0.00D+00  SYMTOL  =  1.00D-06  GRADTOL =  1.00D-06  THROVL  =  1.00D-08
 THRORTH =  1.00D-08  GRID    =  1.00D-06  GRIDMAX =  1.00D-03  DTMAX   =  0.00D+00  THROCCDE=  1.00D-01  THROCCDE=  1.00D-01


 SETTING NKERNA         =         1.00000000                                  
 SETTING NKERNB         =         1.00000000                                  
 SETTING NKERNAB        =         2.00000000                                  


 Recomputing integrals since basis changed


 Using spherical harmonics

 Library entry C      S cc-pVTZ-F12          selected for orbital group  1
 Library entry C      P cc-pVTZ-F12          selected for orbital group  1
 Library entry C      D cc-pVTZ-F12          selected for orbital group  1
 Library entry C      F cc-pVTZ-F12          selected for orbital group  1
 Library entry H      S cc-pVTZ-F12          selected for orbital group  2
 Library entry H      P cc-pVTZ-F12          selected for orbital group  2
 Library entry H      D cc-pVTZ-F12          selected for orbital group  2
 Library entry O      S cc-pVTZ-F12          selected for orbital group  3
 Library entry O      P cc-pVTZ-F12          selected for orbital group  3
 Library entry O      D cc-pVTZ-F12          selected for orbital group  3
 Library entry O      F cc-pVTZ-F12          selected for orbital group  3


 PROGRAM * SEWARD (Integral evaluation for generally contracted gaussian basis sets)     Author: Roland Lindh, 1990

 Geometry written to block  1 of record 700


 Point group  C1  



 ATOMIC COORDINATES

 NR  ATOM    CHARGE       X              Y              Z

   1  C1      6.00   -6.193010455    2.801518980    2.403542658
   2  H1      1.00   -4.656285171    1.699997622    3.119937832
   3  H2      1.00   -5.973046335    4.726205038    2.982932688
   4  H3      1.00   -7.940251230    2.077186956    3.118237078
   5  H4      1.00   -6.176569838    2.685300823    0.384937212
   6  O1      8.00  -12.424571324    5.951692429   -0.288750152
   7  H5      1.00  -14.111151890    6.508027800   -0.711859831
   8  H6      1.00  -12.410587350    5.867599617    1.622329878

 Bond lengths in Bohr (Angstrom)

 1-2  2.021904040  1-3  2.022002335  1-4  2.021953343  1-5  2.022015060  6-7  1.825673808
     ( 1.069945541)     ( 1.069997556)     ( 1.069971630)     ( 1.070004290)     ( 0.966104974)

 6-8  1.912980406
     ( 1.012305636)

 Bond angles

  2-1-3  109.53398059   2-1-4  109.65604535   2-1-5  108.43490854   3-1-4  109.49436728

  3-1-5  109.86987750   4-1-5  109.83468330   7-6-8  104.57658282

 NUCLEAR CHARGE:                   20
 NUMBER OF PRIMITIVE AOS:         270
 NUMBER OF SYMMETRY AOS:          246
 NUMBER OF CONTRACTIONS:          214   ( 214A   )
 NUMBER OF CORE ORBITALS:           2   (   2A   )
 NUMBER OF VALENCE ORBITALS:       14   (  14A   )


 NUCLEAR REPULSION ENERGY   35.73898765


 Eigenvalues of metric

         1 0.725E-04 0.194E-03 0.278E-03 0.331E-03 0.335E-03 0.449E-03 0.549E-03 0.564E-03


 Contracted 2-electron integrals neglected if value below      1.0D-19
 AO integral compression algorithm  1   Integral accuracy      1.0D-19

     2040.267 MB (compressed) written to integral file ( 83.7%)


 NUMBER OF SORTED TWO-ELECTRON INTEGRALS:  264626515.     BUFFER LENGTH:  32768
 NUMBER OF SEGMENTS:  17  SEGMENT LENGTH:   15999762      RECORD LENGTH: 524288

 Memory used in sort:      16.56 MW

 SORT1 READ   304635709. AND WROTE   244414459. INTEGRALS IN    709 RECORDS. CPU TIME:     3.24 SEC, REAL TIME:     7.18 SEC
 SORT2 READ   244414459. AND WROTE   264626515. INTEGRALS IN   7783 RECORDS. CPU TIME:     3.20 SEC, REAL TIME:     7.38 SEC

 FILE SIZES:   FILE 1:  2062.0 MBYTE,  FILE 4:  2973.8 MBYTE,   TOTAL:   5035.8 MBYTE

 OPERATOR DM      FOR CENTER  0  COORDINATES:    0.000000    0.000000    0.000000


 **********************************************************************************************************************************
 DATASETS  * FILE   NREC   LENGTH (MB)   RECORD NAMES
              1      19     1809.31       500      610      700      900      950      970     1000      129      960     1100   
                                          VAR    BASINP    GEOM    SYMINP    ZMAT    AOBASIS   BASIS     P2S    ABASIS      S 
                                         1400     1410     1200     1210     1080     1600     1650     1300     1700   
                                           T        V       H0       H01     AOSYM     SMH    MOLCAS    ERIS     OPER   

 PROGRAMS   *        TOTAL       INT
 CPU TIMES  *        15.75     15.63
 REAL TIME  *        27.87 SEC
 DISK USED  *         5.04 GB      
 **********************************************************************************************************************************


 PROGRAM * RHF-SCF (CLOSED SHELL)       Authors: W. Meyer, H.-J. Werner


 NUMBER OF ELECTRONS:      10+   10-    SPACE SYMMETRY=1    SPIN SYMMETRY: Singlet 
 CONVERGENCE THRESHOLDS:    1.00E-04 (Density)    1.00E-09 (Energy)
 MAX. NUMBER OF ITERATIONS:       60
 INTERPOLATION TYPE:            DIIS
 INTERPOLATION STEPS:              2 (START)      1 (STEP)
 LEVEL SHIFTS:                  0.00 (CLOSED)  0.00 (OPEN) 



 Orbital guess generated from atomic densities. Full valence occupancy:   16

 Molecular orbital dump at record        2100.2

 Initial occupancy:  10

 ITERATION    DDIFF          GRAD             ENERGY        2-EL.EN.            DIPOLE MOMENTS         DIIS   ORB.
    1      0.000D+00      0.000D+00      -116.21649803    157.238355   -0.84501    0.23601    0.77442    0    start
    2      0.000D+00      0.550D-02      -116.26085785    152.156003   -0.49825    0.14537    0.39279    1    diag
    3      0.563D-02      0.327D-02      -116.27498134    154.272332   -0.58909    0.16864    0.48806    2    diag
    4      0.185D-02      0.482D-03      -116.27565203    154.157595   -0.58216    0.16658    0.47841    3    diag
    5      0.418D-03      0.143D-03      -116.27572402    154.152713   -0.58258    0.16678    0.47696    4    diag
    6      0.157D-03      0.347D-04      -116.27572809    154.158338   -0.58218    0.16668    0.47602    5    diag
    7      0.402D-04      0.722D-05      -116.27572835    154.156607   -0.58224    0.16670    0.47591    6    diag
    8      0.108D-04      0.190D-05      -116.27572837    154.156800   -0.58222    0.16670    0.47581    7    diag
    9      0.322D-05      0.433D-06      -116.27572837    154.156771   -0.58220    0.16670    0.47579    8    diag
   10      0.707D-06      0.492D-07      -116.27572837    154.156772   -0.58220    0.16670    0.47578    9    orth
   11      0.125D-06      0.116D-07      -116.27572837    154.156774   -0.58220    0.16670    0.47578    0    orth

 Final occupancy:  10

 !RHF STATE 1.1 Energy               -116.275728370151
 Nuclear energy                        35.73898765
 One-electron energy                 -229.09310325
 Two-electron energy                   77.07838723
 Virial quotient                       -1.00097332
 !RHF STATE 1.1 Dipole moment          -0.58220131     0.16669690     0.47578438
 Dipole moment /Debye                  -1.47971121     0.42367351     1.20924406

 Orbital energies:

         1.1          2.1          3.1          4.1          5.1          6.1          7.1          8.1          9.1         10.1
    -20.569855   -11.191886    -1.337140    -0.946254    -0.700723    -0.578270    -0.547879    -0.545960    -0.542553    -0.507645

        11.1         12.1
      0.055554     0.067912

 HOMO     10.1    -0.507645 =     -13.8137eV
 LUMO     11.1     0.055554 =       1.5117eV
 LUMO-HOMO         0.563199 =      15.3254eV


 **********************************************************************************************************************************
 DATASETS  * FILE   NREC   LENGTH (MB)   RECORD NAMES
              1      19     1809.31       500      610      700      900      950      970     1000      129      960     1100   
                                          VAR    BASINP    GEOM    SYMINP    ZMAT    AOBASIS   BASIS     P2S    ABASIS      S 
                                         1400     1410     1200     1210     1080     1600     1650     1300     1700   
                                           T        V       H0       H01     AOSYM     SMH    MOLCAS    ERIS     OPER   

              2       4        3.81       700     1000      520     2100   
                                         GEOM     BASIS   MCVARS     RHF  

 PROGRAMS   *        TOTAL        HF       INT
 CPU TIMES  *        43.33     27.58     15.63
 REAL TIME  *        59.56 SEC
 DISK USED  *         5.04 GB      
 **********************************************************************************************************************************
 SETTING E_HF_AB        =      -116.27572837  AU                              


 PROGRAM * CCSD (Closed-shell coupled cluster)     Authors: C. Hampel, H.-J. Werner, 1991, M. Deegan, P.J. Knowles, 1992

                                  CCSD-F12 implementation by  H.-J. Werner, 2007

                   Density fitting integral evaluation by F.R. Manby, 2003,2007, G. Knizia, 2010

 Basis set CC-PVTZ/JKFIT generated.      Number of basis functions:   338 
 Basis set CC-PVTZ-F12/OPTRI generated.  Number of basis functions:   396 
 Basis set AUG-CC-PVTZ/MP2FIT generated. Number of basis functions:   488 

 Convergence thresholds:  THRVAR = 1.00D-08  THRDEN = 1.00D-08

 CCSD(T)     terms to be evaluated (factor= 1.000)


 Number of core orbitals:           2 (   2 )
 Number of closed-shell orbitals:   8 (   8 )
 Number of external orbitals:     204 ( 204 )

 Molecular orbitals read from record     2100.2  Type=RHF/CANONICAL (state 1.1)

 MP2-F12 correlation treatment (H.-J. Werner, 2006)
 ==================================================

 Using MP2-F12 with ansatz 3C(FIX)

 Using projected zeroth-order Hamiltonian (+Z)

 FOCKRIB=T FOCKRIC=T FOCKRIP=T CABSP=T CABSA=T CABSK=T CABSF=T GBC=F EBC=F DMAT=T NOFIK=T NOPAO=1 SOLVE=-1  USEPAO=0
 EXCH_A= T EXCH_B= F EXCH_C= F EXCH_P= F
 
 Geminal basis:    OPTFULL  GEM_TYPE=SLATER  BETA=1.0  NGEM=6

 Optimizing Gaussian exponents for each gem_beta

 Geminal optimization for beta= 1.0000
 Weight function:   m=0, omega= 1.4646

 Augmented Hessian optimization of geminal fit. Trust ratio= 0.40000
 Convergence reached after   2 iterations. Final gradient= 8.26D-16, Step= 4.26D-06, Delta= 1.28D-09
 
 Alpha:                 0.19532     0.81920     2.85917     9.50073    35.69989   197.79328
 Coeff:                 0.27070     0.30552     0.18297     0.10986     0.06810     0.04224
 

 All pairs explicitly correlated. Number of r12-pairs:           36

 Excluding core orbitals from MO domains
 
 AO(A)-basis ORBITAL           loaded. Number of functions:     214
 RI(R)-basis CC-PVTZ-F12/OPTRI loaded. Number of functions:     396
 DF-basis CC-PVTZ/JKFIT        loaded. Number of functions:     338

 Screening thresholds:   THRAO=  1.00D-10  THRMO=  1.00D-09  THRPROD=  1.00D-09
                         THRSW=  1.00D-05  THROV=  1.00D-12  THRAOF12=   1.00D-08

 CPU time for Fock operators                      2.80 sec
 
 Construction of ABS:
 Smallest eigenvalue of S          4.13E-04  (threshold= 1.00E-08)
 Ratio eigmin/eigmax               5.30E-05  (threshold= 1.00E-09)
 Smallest eigenvalue of S kept     4.13E-04  (threshold= 4.13E-04, 0 functions deleted, 396 kept)
 
 Construction of CABS:
 Smallest eigenvalue of S          8.29E-07  (threshold= 1.00E-08)
 Ratio eigmin/eigmax               8.29E-07  (threshold= 1.00E-09)
 Smallest eigenvalue of S kept     8.29E-07  (threshold= 8.29E-07, 0 functions deleted, 396 kept)
 
 CPU time for CABS singles                        0.11 sec

 CABS-singles contribution of  -0.00158735 patched into reference energy.
 New reference energy        -116.27731572
 
 AO(A)-basis ORBITAL           loaded. Number of functions:     214
 RI(R)-basis CC-PVTZ-F12/OPTRI loaded. Number of functions:     396
 DF-basis AUG-CC-PVTZ/MP2FIT   loaded. Number of functions:     488

 Screening thresholds:   THRAO=  1.00D-10  THRMO=  1.00D-09  THRPROD=  1.00D-09
                         THRSW=  1.00D-05  THROV=  1.00D-12  THRAOF12=   1.00D-08

 CPU time for 3-index integral evaluation         5.73 sec
 CPU time for first  half transformation          0.44 sec (11704.0 MFLOP/sec)
 CPU time for second half transformation          0.02 sec ( 5848.2 MFLOP/sec)
 CPU time for sorting                             0.01 sec
 CPU time for fitting                             0.06 sec (40643.2 MFLOP/sec)
 CPU time for tilde quantities                    0.09 sec (35732.2 MFLOP/sec)
 CPU time for assembly                            0.82 sec (36510.4 MFLOP/sec)
 CPU time for tranop_f12                          1.11 sec (34893.5 MFLOP/sec)
 CPU time for f12 integrals (total)               9.72 sec, Elapsed time:     11.83 sec
 CPU time for f12 matrices (total)                0.35 sec, Elapsed time:      0.49 sec

 Diagonal F12 approximation with fixed coefficients:  TSING= 0.500,  TTRIP= 0.250 (scaled by -1/beta)

 DF-MP2-F12 energy corrections:
 ==============================
 Approx.                                    Singlet             Triplet             Total
 DF-MP2-F12/3*C(DX,FIX)                -0.041377952330     -0.004138004248     -0.045515956578
 DF-MP2-F12/3*C(FIX)                   -0.039262506568     -0.003869216355     -0.043131722923
 DF-MP2-F12/3C(FIX)                    -0.039120436220     -0.003974893978     -0.043095330197

 DF-MP2-F12 correlation energies:
 ================================
 Approx.                                    Singlet             Triplet             Ecorr            Total Energy
 DF-MP2                                -0.321260528977     -0.156187221492     -0.477447750469   -116.754763471622
 DF-MP2-F12/3*C(DX,FIX)                -0.362638481307     -0.160325225740     -0.522963707047   -116.800279428200
 DF-MP2-F12/3*C(FIX)                   -0.360523035545     -0.160056437847     -0.520579473392   -116.797895194545
 DF-MP2-F12/3C(FIX)                    -0.360380965197     -0.160162115470     -0.520543080666   -116.797858801819

 SCS-DF-MP2 energies (F_SING= 1.20000  F_TRIP= 0.62222  F_PARALLEL= 0.33333):
 ============================================================================
 SCS-DF-MP2                            -0.482695794812   -116.760011515964
 SCS-DF-MP2-F12/3*C(DX,FIX)            -0.534924095807   -116.812239816960
 SCS-DF-MP2-F12/3*C(FIX)               -0.532218315092   -116.809534036245
 SCS-DF-MP2-F12/3C(FIX)                -0.532113585639   -116.809429306792
 Symmetry transformation completed.

 Number of N-1 electron functions:               8
 Number of N-2 electron functions:              36
 Number of singly external CSFs:              1632
 Number of doubly external CSFs:           1332528
 Total number of CSFs:                     1334161

 Length of J-op  integral file:             205.73 MB
 Length of K-op  integral file:             258.78 MB
 Length of 3-ext integral record:             0.00 MB

 Memory could be reduced to 93.27 Mwords without degradation in triples

 Integral transformation finished. Total CPU:   9.37 sec, npass=  1  Memory used:  48.07 MW

 Reference energy:                   -116.27731572

 Adding F12 terms to K(Cij), methodcc=6,  factor= 1.0

 ITER.      SQ.NORM     CORR.ENERGY   TOTAL ENERGY   ENERGY CHANGE        DEN1      VAR(S)    VAR(P)  DIIS     TIME  TIME/IT
   1      1.13318635    -0.49252830  -116.76984402    -0.01500350    -0.00333610  0.14D-02  0.20D-02  1  1    31.19     9.31
   2      1.14127828    -0.49309709  -116.77041281    -0.00056879    -0.00968831  0.30D-04  0.24D-03  2  2    39.87     9.26
   3      1.14435920    -0.49335834  -116.77067406    -0.00026125    -0.00217651  0.12D-04  0.14D-04  3  3    48.54     9.23
   4      1.14536511    -0.49339217  -116.77070789    -0.00003383    -0.00062176  0.63D-06  0.11D-05  4  4    57.19     9.20
   5      1.14552846    -0.49339135  -116.77070707     0.00000082    -0.00003119  0.17D-06  0.65D-07  5  5    65.88     9.20
   6      1.14556374    -0.49338914  -116.77070486     0.00000221    -0.00000690  0.15D-07  0.71D-08  6  6    74.53     9.40
   7      1.14557187    -0.49338845  -116.77070418     0.00000068    -0.00000238  0.22D-08  0.62D-09  6  2    83.18     9.43
   8      1.14557479    -0.49338833  -116.77070405     0.00000013    -0.00000057  0.19D-09  0.64D-10  6  1    91.86     9.49
   9      1.14557541    -0.49338833  -116.77070405    -0.00000001    -0.00000002  0.16D-10  0.12D-10  6  3   100.51     9.47
  10      1.14557550    -0.49338834  -116.77070407    -0.00000001     0.00000010  0.23D-11  0.14D-11  6  4   109.17     9.45
  11      1.14557547    -0.49338835  -116.77070407    -0.00000000     0.00000006  0.38D-12  0.17D-12  6  5   117.81     9.43
  12      1.14557544    -0.49338835  -116.77070407    -0.00000000     0.00000002  0.75D-13  0.20D-13  6  6   126.48     9.46

 Norm of t1 vector:      0.04968125      S-energy:     0.00000001      T1 diagnostic:  0.00878249
                                                                       D1 diagnostic:  0.01885238

 Adding energy correction from Wij-K(Fij), methodcc=6  factor= 1.0
 
  CCSD correlation energy              -0.493388349512
  MP2-F12 correction (uncoupled)       -0.041672874471
  C*T doubles correction               -0.001127027993
  f12b correction                       0.007817086362


 Total CPU time for triples:    153.47 sec

  Ecorr(MP2)                           -0.477524804382
  Ecorr(MP2-F12)                       -0.520620134580
  Scale factor for triples energy       1.090247312395


 RESULTS
 =======

  Reference energy                   -116.275728370151
  F12 singles correction               -0.001587351002

 F12 singles corrections added to reference energy

  New reference energy               -116.277315721153

  F12a singlet correction              -0.038945200502
  F12a triplet correction              -0.003854701962
  F12a total correction                -0.042799902464

 F12a corrections for ansatz F12/3C(FIX) added to CCSD energy
 
  CCSD-F12a singlet pair energy        -0.389716463820
  CCSD-F12a triplet pair energy        -0.146471794855
  CCSD-F12a correlation energy         -0.536188251976

  Triples (T) contribution (scaled)    -0.016960864077
  Total correlation energy             -0.553149116054

  CCSD-F12a total energy             -116.813503973129
  CCSD[T]-F12a energy                -116.831057377351
  CCSD-T-F12a energy                 -116.830236972654
 !CCSD(T)-F12a total energy          -116.830464837206

 F12b corrections for ansatz F12/3C(FIX) added to CCSD(T)-F12a energy

  CCSD-F12b singlet pair energy        -0.382364859952
  CCSD-F12b triplet pair energy        -0.146006312361
  CCSD-F12b correlation energy         -0.528371165614

  Triples (T) contribution (scaled)    -0.016960864077
  Total correlation energy             -0.545332029691

  CCSD-F12b total energy             -116.805686886767
  CCSD[T]-F12b energy                -116.823240290989
  CCSD-T-F12b energy                 -116.822419886292
 !CCSD(T)-F12b total energy          -116.822647750844

 Timing summary (sec):

 STEP                 CPU(USER)    SYS     CPU(TOT)    WALL
 Transformation          9.49      1.42     10.91     11.79
 CCSD iterations       103.81      6.62    110.43    113.70
 Triples               153.47      2.53    156.00    156.05
 MP2-F12                13.18      1.79     14.97     15.88
 F12b energy             6.88      0.32      7.20      7.36

 Program statistics:

 Available memory in ccsd:              2999999464
 Min. memory needed in ccsd:               3963025
 Max. memory used in ccsd:                 5096465
 Max. memory used in cckext:               3666031 (13 integral passes)



 **********************************************************************************************************************************
 DATASETS  * FILE   NREC   LENGTH (MB)   RECORD NAMES
              1      20     2102.86       500      610      700      900      950      970     1000      129      960     1100   
                                          VAR    BASINP    GEOM    SYMINP    ZMAT    AOBASIS   BASIS     P2S    ABASIS      S 
                                         1400     1410     1200     1210     1080     1600     1650     1300     1700     1380   
                                           T        V       H0       H01     AOSYM     SMH    MOLCAS    ERIS     OPER     JKOP   

              2       6        4.74       700     1000      520     2100     7360     7350   
                                         GEOM     BASIS   MCVARS     RHF    F12ABS    EF12   

 PROGRAMS   *        TOTAL   CCSD(T)        HF       INT
 CPU TIMES  *       330.21    286.87     27.58     15.63
 REAL TIME  *       364.72 SEC
 DISK USED  *         5.04 GB      
 **********************************************************************************************************************************
 SETTING E_F12_AB(1)    =      -116.83046484  AU                              
 SETTING E_F12_AB(2)    =      -116.82264775  AU                              

 Dummy atoms: O1  H5  H6


 Recomputing one-electron integrals since nuclear charges changed


 PROGRAM * SEWARD (Integral evaluation for generally contracted gaussian basis sets)     Author: Roland Lindh, 1990

 Geometry written to block  1 of record 700


 Point group  C1  



 ATOMIC COORDINATES

 NR  ATOM    CHARGE       X              Y              Z

   1  C1      6.00   -6.193010455    2.801518980    2.403542658
   2  H1      1.00   -4.656285171    1.699997622    3.119937832
   3  H2      1.00   -5.973046335    4.726205038    2.982932688
   4  H3      1.00   -7.940251230    2.077186956    3.118237078
   5  H4      1.00   -6.176569838    2.685300823    0.384937212
   6  O1      0.00  -12.424571324    5.951692429   -0.288750152
   7  H5      0.00  -14.111151890    6.508027800   -0.711859831
   8  H6      0.00  -12.410587350    5.867599617    1.622329878

 Bond lengths in Bohr (Angstrom)

 1-2  2.021904040  1-3  2.022002335  1-4  2.021953343  1-5  2.022015060  6-7  1.825673808
     ( 1.069945541)     ( 1.069997556)     ( 1.069971630)     ( 1.070004290)     ( 0.966104974)

 6-8  1.912980406
     ( 1.012305636)

 Bond angles

  2-1-3  109.53398059   2-1-4  109.65604535   2-1-5  108.43490854   3-1-4  109.49436728

  3-1-5  109.86987750   4-1-5  109.83468330   7-6-8  104.57658282

 NUCLEAR CHARGE:                   10
 NUMBER OF PRIMITIVE AOS:         270
 NUMBER OF SYMMETRY AOS:          246
 NUMBER OF CONTRACTIONS:          214   ( 214A   )
 NUMBER OF CORE ORBITALS:           1   (   1A   )
 NUMBER OF VALENCE ORBITALS:        8   (   8A   )

 MOLECULE CHANGED: INITIALIZING OCCUPATION AND DUMP RECORDS


 NUCLEAR REPULSION ENERGY   13.68681606


 Eigenvalues of metric

         1 0.725E-04 0.194E-03 0.278E-03 0.331E-03 0.335E-03 0.449E-03 0.549E-03 0.564E-03


 Contracted 2-electron integrals neglected if value below      1.0D-19

 OPERATOR DM      FOR CENTER  0  COORDINATES:    0.000000    0.000000    0.000000


 **********************************************************************************************************************************
 DATASETS  * FILE   NREC   LENGTH (MB)   RECORD NAMES
              1      19     1809.31       500      610      700      900      950      970     1000      129      960     1100   
                                          VAR    BASINP    GEOM    SYMINP    ZMAT    AOBASIS   BASIS     P2S    ABASIS      S 
                                         1400     1410     1200     1210     1080     1600     1650     1300     1700   
                                           T        V       H0       H01     AOSYM     SMH    MOLCAS    ERIS     OPER   

              2       6        4.74       700     1000      520     2100     7360     7350   
                                         GEOM     BASIS   MCVARS     RHF    F12ABS    EF12   

 PROGRAMS   *        TOTAL       INT   CCSD(T)        HF       INT
 CPU TIMES  *       330.27      0.06    286.87     27.58     15.63
 REAL TIME  *       393.08 SEC
 DISK USED  *         5.04 GB      
 **********************************************************************************************************************************


 PROGRAM * RHF-SCF (CLOSED SHELL)       Authors: W. Meyer, H.-J. Werner


 NUMBER OF ELECTRONS:       5+    5-    SPACE SYMMETRY=1    SPIN SYMMETRY: Singlet 
 CONVERGENCE THRESHOLDS:    1.00E-04 (Density)    1.00E-09 (Energy)
 MAX. NUMBER OF ITERATIONS:       60
 INTERPOLATION TYPE:            DIIS
 INTERPOLATION STEPS:              2 (START)      1 (STEP)
 LEVEL SHIFTS:                  0.00 (CLOSED)  0.00 (OPEN) 



 Orbital guess generated from atomic densities. Full valence occupancy:    9

 Molecular orbital dump at record        2101.2

 Initial occupancy:   5

 ITERATION    DDIFF          GRAD             ENERGY        2-EL.EN.            DIPOLE MOMENTS         DIIS   ORB.
    1      0.000D+00      0.000D+00       -40.19565493     53.501363    0.00410   -0.00277   -0.00132    0    start
    2      0.000D+00      0.368D-02       -40.21290007     52.216649    0.00131   -0.00090   -0.00039    1    diag
    3      0.319D-02      0.143D-02       -40.21516896     52.670306    0.00184   -0.00126   -0.00056    2    diag
    4      0.855D-03      0.357D-03       -40.21548721     52.615360    0.00165   -0.00113   -0.00049    3    diag
    5      0.324D-03      0.463D-04       -40.21549268     52.617514    0.00162   -0.00111   -0.00048    4    diag
    6      0.555D-04      0.375D-05       -40.21549272     52.617659    0.00162   -0.00111   -0.00048    5    diag
    7      0.862D-05      0.302D-06       -40.21549272     52.617619    0.00162   -0.00111   -0.00048    6    diag
    8      0.998D-06      0.227D-07       -40.21549272     52.617620    0.00162   -0.00111   -0.00048    0    orth

 Final occupancy:   5

 !RHF STATE 1.1 Energy                -40.215492724833
 Nuclear energy                        13.68681606
 One-electron energy                  -80.21111882
 Two-electron energy                   26.30881004
 Virial quotient                       -0.99832368
 !RHF STATE 1.1 Dipole moment           0.00161802    -0.00111155    -0.00047931
 Dipole moment /Debye                   0.00411233    -0.00282510    -0.00121821

 Orbital energies:

         1.1          2.1          3.1          4.1          5.1          6.1          7.1
    -11.196271    -0.950712    -0.551937    -0.550002    -0.547827     0.050351     0.065720

 HOMO      5.1    -0.547827 =     -14.9071eV
 LUMO      6.1     0.050351 =       1.3701eV
 LUMO-HOMO         0.598178 =      16.2773eV


 **********************************************************************************************************************************
 DATASETS  * FILE   NREC   LENGTH (MB)   RECORD NAMES
              1      19     1809.31       500      610      700      900      950      970     1000      129      960     1100   
                                          VAR    BASINP    GEOM    SYMINP    ZMAT    AOBASIS   BASIS     P2S    ABASIS      S 
                                         1400     1410     1200     1210     1080     1600     1650     1300     1700   
                                           T        V       H0       H01     AOSYM     SMH    MOLCAS    ERIS     OPER   

              2       7        8.14       700     1000      520     2100     7360     7350     2101   
                                         GEOM     BASIS   MCVARS     RHF    F12ABS    EF12      RHF  

 PROGRAMS   *        TOTAL        HF       INT   CCSD(T)        HF       INT
 CPU TIMES  *       350.91     20.64      0.06    286.87     27.58     15.63
 REAL TIME  *       447.79 SEC
 DISK USED  *         5.04 GB      
 **********************************************************************************************************************************
 SETTING E_HF_A         =       -40.21549272  AU                              


 PROGRAM * CCSD (Closed-shell coupled cluster)     Authors: C. Hampel, H.-J. Werner, 1991, M. Deegan, P.J. Knowles, 1992

                                  CCSD-F12 implementation by  H.-J. Werner, 2007

                   Density fitting integral evaluation by F.R. Manby, 2003,2007, G. Knizia, 2010

 Basis set CC-PVTZ/JKFIT generated.      Number of basis functions:   338 
 Basis set CC-PVTZ-F12/OPTRI generated.  Number of basis functions:   396 
 Basis set AUG-CC-PVTZ/MP2FIT generated. Number of basis functions:   488 

 Convergence thresholds:  THRVAR = 1.00D-08  THRDEN = 1.00D-08

 CCSD(T)     terms to be evaluated (factor= 1.000)


 Number of core orbitals:           1 (   1 )
 Number of closed-shell orbitals:   4 (   4 )
 Number of external orbitals:     209 ( 209 )

 Molecular orbitals read from record     2101.2  Type=RHF/CANONICAL (state 1.1)

 MP2-F12 correlation treatment (H.-J. Werner, 2006)
 ==================================================

 Using MP2-F12 with ansatz 3C(FIX)

 Using projected zeroth-order Hamiltonian (+Z)

 FOCKRIB=T FOCKRIC=T FOCKRIP=T CABSP=T CABSA=T CABSK=T CABSF=T GBC=F EBC=F DMAT=T NOFIK=T NOPAO=1 SOLVE=-1  USEPAO=0
 EXCH_A= T EXCH_B= F EXCH_C= F EXCH_P= F
 
 Geminal basis:    OPTFULL  GEM_TYPE=SLATER  BETA=1.0  NGEM=6

 Optimizing Gaussian exponents for each gem_beta

 Geminal optimization for beta= 1.0000
 Weight function:   m=0, omega= 1.4646

 Augmented Hessian optimization of geminal fit. Trust ratio= 0.40000
 Convergence reached after   2 iterations. Final gradient= 8.26D-16, Step= 4.26D-06, Delta= 1.28D-09
 
 Alpha:                 0.19532     0.81920     2.85917     9.50073    35.69989   197.79328
 Coeff:                 0.27070     0.30552     0.18297     0.10986     0.06810     0.04224
 

 All pairs explicitly correlated. Number of r12-pairs:           10

 Excluding core orbitals from MO domains
 
 AO(A)-basis ORBITAL           loaded. Number of functions:     214
 RI(R)-basis CC-PVTZ-F12/OPTRI loaded. Number of functions:     396
 DF-basis CC-PVTZ/JKFIT        loaded. Number of functions:     338

 Screening thresholds:   THRAO=  1.00D-10  THRMO=  1.00D-09  THRPROD=  1.00D-09
                         THRSW=  1.00D-05  THROV=  1.00D-12  THRAOF12=   1.00D-08

 CPU time for Fock operators                      2.69 sec
 
 Construction of ABS:
 Smallest eigenvalue of S          4.13E-04  (threshold= 1.00E-08)
 Ratio eigmin/eigmax               5.30E-05  (threshold= 1.00E-09)
 Smallest eigenvalue of S kept     4.13E-04  (threshold= 4.13E-04, 0 functions deleted, 396 kept)
 
 Construction of CABS:
 Smallest eigenvalue of S          8.29E-07  (threshold= 1.00E-08)
 Ratio eigmin/eigmax               8.29E-07  (threshold= 1.00E-09)
 Smallest eigenvalue of S kept     8.29E-07  (threshold= 8.29E-07, 0 functions deleted, 396 kept)
 
 CPU time for CABS singles                        0.11 sec

 CABS-singles contribution of  -0.00063551 patched into reference energy.
 New reference energy         -40.21612823
 
 AO(A)-basis ORBITAL           loaded. Number of functions:     214
 RI(R)-basis CC-PVTZ-F12/OPTRI loaded. Number of functions:     396
 DF-basis AUG-CC-PVTZ/MP2FIT   loaded. Number of functions:     488

 Screening thresholds:   THRAO=  1.00D-10  THRMO=  1.00D-09  THRPROD=  1.00D-09
                         THRSW=  1.00D-05  THROV=  1.00D-12  THRAOF12=   1.00D-08

 CPU time for 3-index integral evaluation         5.81 sec
 CPU time for first  half transformation          0.40 sec ( 6437.2 MFLOP/sec)
 CPU time for second half transformation          0.01 sec ( 2924.1 MFLOP/sec)
 CPU time for sorting                             0.01 sec
 CPU time for fitting                             0.04 sec (29768.0 MFLOP/sec)
 CPU time for tilde quantities                    0.04 sec (39722.4 MFLOP/sec)
 CPU time for assembly                            0.22 sec (36254.9 MFLOP/sec)
 CPU time for tranop_f12                          0.26 sec (36852.4 MFLOP/sec)
 CPU time for f12 integrals (total)               7.21 sec, Elapsed time:     38.34 sec
 CPU time for f12 matrices (total)                0.08 sec, Elapsed time:      0.12 sec

 Diagonal F12 approximation with fixed coefficients:  TSING= 0.500,  TTRIP= 0.250 (scaled by -1/beta)

 DF-MP2-F12 energy corrections:
 ==============================
 Approx.                                    Singlet             Triplet             Total
 DF-MP2-F12/3*C(DX,FIX)                -0.016293262386     -0.001140656998     -0.017433919384
 DF-MP2-F12/3*C(FIX)                   -0.015932995875     -0.001150638500     -0.017083634376
 DF-MP2-F12/3C(FIX)                    -0.015863564210     -0.001157630174     -0.017021194384

 DF-MP2-F12 correlation energies:
 ================================
 Approx.                                    Singlet             Triplet             Ecorr            Total Energy
 DF-MP2                                -0.145608940734     -0.055803720354     -0.201412661087    -40.417540894909
 DF-MP2-F12/3*C(DX,FIX)                -0.161902203120     -0.056944377351     -0.218846580471    -40.434974814294
 DF-MP2-F12/3*C(FIX)                   -0.161541936609     -0.056954358854     -0.218496295463    -40.434624529285
 DF-MP2-F12/3C(FIX)                    -0.161472504944     -0.056961350527     -0.218433855471    -40.434562089294

 SCS-DF-MP2 energies (F_SING= 1.20000  F_TRIP= 0.62222  F_PARALLEL= 0.33333):
 ============================================================================
 SCS-DF-MP2                            -0.209453043767    -40.425581277589
 SCS-DF-MP2-F12/3*C(DX,FIX)            -0.229714700763    -40.445842934585
 SCS-DF-MP2-F12/3*C(FIX)               -0.229288591662    -40.445416825484
 SCS-DF-MP2-F12/3C(FIX)                -0.229209624039    -40.445337857861
 Symmetry transformation completed.

 Number of N-1 electron functions:               4
 Number of N-2 electron functions:              10
 Number of singly external CSFs:               836
 Number of doubly external CSFs:            349866
 Total number of CSFs:                      350703

 Length of J-op  integral file:              53.89 MB
 Length of K-op  integral file:              87.81 MB
 Length of 3-ext integral record:             0.00 MB

 Memory could be reduced to 60.96 Mwords without degradation in triples

 Integral transformation finished. Total CPU:   5.61 sec, npass=  1  Memory used:  26.32 MW

 Reference energy:                    -40.21612823

 Adding F12 terms to K(Cij), methodcc=6,  factor= 1.0

 ITER.      SQ.NORM     CORR.ENERGY   TOTAL ENERGY   ENERGY CHANGE        DEN1      VAR(S)    VAR(P)  DIIS     TIME  TIME/IT
   1      1.06960386    -0.21651501   -40.43264325    -0.01506754    -0.00954275  0.62D-03  0.94D-03  1  1    19.54     3.87
   2      1.07445899    -0.21733148   -40.43345971    -0.00081647    -0.00516303  0.14D-04  0.90D-04  2  2    23.40     4.02
   3      1.07598013    -0.21744284   -40.43357108    -0.00011136    -0.00108914  0.20D-05  0.57D-05  3  3    27.26     4.07
   4      1.07634935    -0.21745739   -40.43358563    -0.00001455    -0.00020071  0.13D-06  0.30D-06  4  4    31.11     4.10
   5      1.07640120    -0.21745702   -40.43358526     0.00000037    -0.00000933  0.77D-08  0.15D-07  5  5    34.97     4.12
   6      1.07640751    -0.21745576   -40.43358399     0.00000126    -0.00000296  0.31D-09  0.83D-09  6  6    38.83     4.13
   7      1.07640825    -0.21745570   -40.43358393     0.00000006    -0.00000040  0.18D-10  0.59D-10  6  1    42.71     4.14
   8      1.07640831    -0.21745572   -40.43358396    -0.00000003     0.00000003  0.24D-11  0.55D-11  6  2    46.56     4.15
   9      1.07640832    -0.21745573   -40.43358396    -0.00000000     0.00000002  0.20D-12  0.33D-12  6  3    50.45     4.15
  10      1.07640831    -0.21745573   -40.43358396     0.00000000     0.00000001  0.22D-13  0.31D-13  6  4    54.30     4.16

 Norm of t1 vector:      0.03261120      S-energy:    -0.00000000      T1 diagnostic:  0.00815280
                                                                       D1 diagnostic:  0.01307639

 Adding energy correction from Wij-K(Fij), methodcc=6  factor= 1.0
 
  CCSD correlation energy              -0.217455728150
  MP2-F12 correction (uncoupled)       -0.016723859506
  C*T doubles correction               -0.000289648094
  f12b correction                       0.003526550440


 Total CPU time for triples:     21.70 sec

  Ecorr(MP2)                           -0.201447469026
  Ecorr(MP2-F12)                       -0.218468663410
  Scale factor for triples energy       1.084494456379


 RESULTS
 =======

  Reference energy                    -40.215492724833
  F12 singles correction               -0.000635508989

 F12 singles corrections added to reference energy

  New reference energy                -40.216128233822

  F12a singlet correction              -0.015868272500
  F12a triplet correction              -0.001145235100
  F12a total correction                -0.017013507600

 F12a corrections for ansatz F12/3C(FIX) added to CCSD energy
 
  CCSD-F12a singlet pair energy        -0.179253504737
  CCSD-F12a triplet pair energy        -0.055215730688
  CCSD-F12a correlation energy         -0.234469235750

  Triples (T) contribution (scaled)    -0.006988050378
  Total correlation energy             -0.241457286129

  CCSD-F12a total energy              -40.450597469572
  CCSD[T]-F12a energy                 -40.457826990201
  CCSD-T-F12a energy                  -40.457512142251
 !CCSD(T)-F12a total energy           -40.457585519951

 F12b corrections for ansatz F12/3C(FIX) added to CCSD(T)-F12a energy

  CCSD-F12b singlet pair energy        -0.175881886199
  CCSD-F12b triplet pair energy        -0.055060798786
  CCSD-F12b correlation energy         -0.230942685310

  Triples (T) contribution (scaled)    -0.006988050378
  Total correlation energy             -0.237930735688

  CCSD-F12b total energy              -40.447070919132
  CCSD[T]-F12b energy                 -40.454300439761
  CCSD-T-F12b energy                  -40.453985591811
 !CCSD(T)-F12b total energy           -40.454058969510

 Timing summary (sec):

 STEP                 CPU(USER)    SYS     CPU(TOT)    WALL
 Transformation          5.65      0.60      6.25      6.28
 CCSD iterations        38.41      3.17     41.58     41.71
 Triples                21.70      0.35     22.05     22.05
 MP2-F12                10.25      0.45     10.70     41.78
 F12b energy             3.36      0.27      3.63      3.69

 Program statistics:

 Available memory in ccsd:              2999999786
 Min. memory needed in ccsd:               1609972
 Max. memory used in ccsd:                 1864434
 Max. memory used in cckext:               1252381 (11 integral passes)



 **********************************************************************************************************************************
 DATASETS  * FILE   NREC   LENGTH (MB)   RECORD NAMES
              1      20     1962.32       500      610      700      900      950      970     1000      129      960     1100   
                                          VAR    BASINP    GEOM    SYMINP    ZMAT    AOBASIS   BASIS     P2S    ABASIS      S 
                                         1400     1410     1200     1210     1080     1600     1650     1300     1700     1380   
                                           T        V       H0       H01     AOSYM     SMH    MOLCAS    ERIS     OPER     JKOP   

              2       7        8.14       700     1000      520     2100     7360     7350     2101   
                                         GEOM     BASIS   MCVARS     RHF    F12ABS    EF12      RHF  

 PROGRAMS   *        TOTAL   CCSD(T)        HF       INT   CCSD(T)        HF       INT
 CPU TIMES  *       430.32     79.40     20.64      0.06    286.87     27.58     15.63
 REAL TIME  *       563.44 SEC
 DISK USED  *         5.04 GB      
 **********************************************************************************************************************************
 SETTING E_F12_A(1)     =       -40.45758552  AU                              
 SETTING E_F12_A(2)     =       -40.45405897  AU                              

 Dummy atoms: C1  H1  H2  H3  H4


 Recomputing one-electron integrals since nuclear charges changed


 PROGRAM * SEWARD (Integral evaluation for generally contracted gaussian basis sets)     Author: Roland Lindh, 1990

 Geometry written to block  1 of record 700


 Point group  C1  



 ATOMIC COORDINATES

 NR  ATOM    CHARGE       X              Y              Z

   1  C1      0.00   -6.193010455    2.801518980    2.403542658
   2  H1      0.00   -4.656285171    1.699997622    3.119937832
   3  H2      0.00   -5.973046335    4.726205038    2.982932688
   4  H3      0.00   -7.940251230    2.077186956    3.118237078
   5  H4      0.00   -6.176569838    2.685300823    0.384937212
   6  O1      8.00  -12.424571324    5.951692429   -0.288750152
   7  H5      1.00  -14.111151890    6.508027800   -0.711859831
   8  H6      1.00  -12.410587350    5.867599617    1.622329878

 Bond lengths in Bohr (Angstrom)

 1-2  2.021904040  1-3  2.022002335  1-4  2.021953343  1-5  2.022015060  6-7  1.825673808
     ( 1.069945541)     ( 1.069997556)     ( 1.069971630)     ( 1.070004290)     ( 0.966104974)

 6-8  1.912980406
     ( 1.012305636)

 Bond angles

  2-1-3  109.53398059   2-1-4  109.65604535   2-1-5  108.43490854   3-1-4  109.49436728

  3-1-5  109.86987750   4-1-5  109.83468330   7-6-8  104.57658282

 NUCLEAR CHARGE:                   10
 NUMBER OF PRIMITIVE AOS:         270
 NUMBER OF SYMMETRY AOS:          246
 NUMBER OF CONTRACTIONS:          214   ( 214A   )
 NUMBER OF CORE ORBITALS:           1   (   1A   )
 NUMBER OF VALENCE ORBITALS:        6   (   6A   )

 MOLECULE CHANGED: INITIALIZING OCCUPATION AND DUMP RECORDS


 NUCLEAR REPULSION ENERGY    8.90195171


 Eigenvalues of metric

         1 0.725E-04 0.194E-03 0.278E-03 0.331E-03 0.335E-03 0.449E-03 0.549E-03 0.564E-03


 Contracted 2-electron integrals neglected if value below      1.0D-19

 OPERATOR DM      FOR CENTER  0  COORDINATES:    0.000000    0.000000    0.000000


 **********************************************************************************************************************************
 DATASETS  * FILE   NREC   LENGTH (MB)   RECORD NAMES
              1      19     1809.31       500      610      700      900      950      970     1000      129      960     1100   
                                          VAR    BASINP    GEOM    SYMINP    ZMAT    AOBASIS   BASIS     P2S    ABASIS      S 
                                         1400     1410     1200     1210     1080     1600     1650     1300     1700   
                                           T        V       H0       H01     AOSYM     SMH    MOLCAS    ERIS     OPER   

              2       7        8.14       700     1000      520     2100     7360     7350     2101   
                                         GEOM     BASIS   MCVARS     RHF    F12ABS    EF12      RHF  

 PROGRAMS   *        TOTAL       INT   CCSD(T)        HF       INT   CCSD(T)        HF       INT
 CPU TIMES  *       430.39      0.06     79.40     20.64      0.06    286.87     27.58     15.63
 REAL TIME  *       563.73 SEC
 DISK USED  *         5.04 GB      
 **********************************************************************************************************************************


 PROGRAM * RHF-SCF (CLOSED SHELL)       Authors: W. Meyer, H.-J. Werner


 NUMBER OF ELECTRONS:       5+    5-    SPACE SYMMETRY=1    SPIN SYMMETRY: Singlet 
 CONVERGENCE THRESHOLDS:    1.00E-04 (Density)    1.00E-09 (Energy)
 MAX. NUMBER OF ITERATIONS:       60
 INTERPOLATION TYPE:            DIIS
 INTERPOLATION STEPS:              2 (START)      1 (STEP)
 LEVEL SHIFTS:                  0.00 (CLOSED)  0.00 (OPEN) 



 Orbital guess generated from atomic densities. Full valence occupancy:    7

 Molecular orbital dump at record        2102.2

 Initial occupancy:   5

 ITERATION    DDIFF          GRAD             ENERGY        2-EL.EN.            DIPOLE MOMENTS         DIIS   ORB.
    1      0.000D+00      0.000D+00       -76.02119636     77.269540   -0.84969    0.23901    0.77637    0    start
    2      0.000D+00      0.673D-02       -76.04813338     73.571040   -0.49884    0.14106    0.43728    1    diag
    3      0.462D-02      0.434D-02       -76.06011097     75.222151   -0.58831    0.16622    0.51960    2    diag
    4      0.164D-02      0.406D-03       -76.06031593     75.128983   -0.58594    0.16570    0.51364    3    diag
    5      0.233D-03      0.117D-03       -76.06033956     75.144107   -0.58512    0.16554    0.51125    4    diag
    6      0.844D-04      0.240D-04       -76.06034119     75.142892   -0.58494    0.16551    0.51053    5    diag
    7      0.243D-04      0.496D-05       -76.06034127     75.143047   -0.58487    0.16550    0.51032    6    diag
    8      0.552D-05      0.912D-06       -76.06034127     75.143032   -0.58484    0.16549    0.51028    7    diag
    9      0.103D-05      0.125D-06       -76.06034127     75.143022   -0.58484    0.16549    0.51028    8    diag
   10      0.164D-06      0.304D-07       -76.06034127     75.143027   -0.58484    0.16549    0.51028    0    orth

 Final occupancy:   5

 !RHF STATE 1.1 Energy                -76.060341274629
 Nuclear energy                         8.90195171
 One-electron energy                 -122.53380640
 Two-electron energy                   37.57151342
 Virial quotient                       -1.00238973
 !RHF STATE 1.1 Dipole moment          -0.58484127     0.16548875     0.51027693
 Dipole moment /Debye                  -1.48642088     0.42060290     1.29690965

 Orbital energies:

         1.1          2.1          3.1          4.1          5.1          6.1          7.1
    -20.570241    -1.337498    -0.701062    -0.578555    -0.508034     0.042537     0.059210

 HOMO      5.1    -0.508034 =     -13.8243eV
 LUMO      6.1     0.042537 =       1.1575eV
 LUMO-HOMO         0.550571 =      14.9818eV


 **********************************************************************************************************************************
 DATASETS  * FILE   NREC   LENGTH (MB)   RECORD NAMES
              1      19     1809.31       500      610      700      900      950      970     1000      129      960     1100   
                                          VAR    BASINP    GEOM    SYMINP    ZMAT    AOBASIS   BASIS     P2S    ABASIS      S 
                                         1400     1410     1200     1210     1080     1600     1650     1300     1700   
                                           T        V       H0       H01     AOSYM     SMH    MOLCAS    ERIS     OPER   

              2       8       12.47       700     1000      520     2100     7360     7350     2101     2102   
                                         GEOM     BASIS   MCVARS     RHF    F12ABS    EF12      RHF      RHF  

 PROGRAMS   *        TOTAL        HF       INT   CCSD(T)        HF       INT   CCSD(T)        HF       INT
 CPU TIMES  *       455.64     25.24      0.06     79.40     20.64      0.06    286.87     27.58     15.63
 REAL TIME  *       592.49 SEC
 DISK USED  *         5.04 GB      
 **********************************************************************************************************************************
 SETTING E_HF_B         =       -76.06034127  AU                              


 PROGRAM * CCSD (Closed-shell coupled cluster)     Authors: C. Hampel, H.-J. Werner, 1991, M. Deegan, P.J. Knowles, 1992

                                  CCSD-F12 implementation by  H.-J. Werner, 2007

                   Density fitting integral evaluation by F.R. Manby, 2003,2007, G. Knizia, 2010

 Basis set CC-PVTZ/JKFIT generated.      Number of basis functions:   338 
 Basis set CC-PVTZ-F12/OPTRI generated.  Number of basis functions:   396 
 Basis set AUG-CC-PVTZ/MP2FIT generated. Number of basis functions:   488 

 Convergence thresholds:  THRVAR = 1.00D-08  THRDEN = 1.00D-08

 CCSD(T)     terms to be evaluated (factor= 1.000)


 Number of core orbitals:           1 (   1 )
 Number of closed-shell orbitals:   4 (   4 )
 Number of external orbitals:     209 ( 209 )

 Molecular orbitals read from record     2102.2  Type=RHF/CANONICAL (state 1.1)

 MP2-F12 correlation treatment (H.-J. Werner, 2006)
 ==================================================

 Using MP2-F12 with ansatz 3C(FIX)

 Using projected zeroth-order Hamiltonian (+Z)

 FOCKRIB=T FOCKRIC=T FOCKRIP=T CABSP=T CABSA=T CABSK=T CABSF=T GBC=F EBC=F DMAT=T NOFIK=T NOPAO=1 SOLVE=-1  USEPAO=0
 EXCH_A= T EXCH_B= F EXCH_C= F EXCH_P= F
 
 Geminal basis:    OPTFULL  GEM_TYPE=SLATER  BETA=1.0  NGEM=6

 Optimizing Gaussian exponents for each gem_beta

 Geminal optimization for beta= 1.0000
 Weight function:   m=0, omega= 1.4646

 Augmented Hessian optimization of geminal fit. Trust ratio= 0.40000
 Convergence reached after   2 iterations. Final gradient= 8.26D-16, Step= 4.26D-06, Delta= 1.28D-09
 
 Alpha:                 0.19532     0.81920     2.85917     9.50073    35.69989   197.79328
 Coeff:                 0.27070     0.30552     0.18297     0.10986     0.06810     0.04224
 

 All pairs explicitly correlated. Number of r12-pairs:           10

 Excluding core orbitals from MO domains
 
 AO(A)-basis ORBITAL           loaded. Number of functions:     214
 RI(R)-basis CC-PVTZ-F12/OPTRI loaded. Number of functions:     396
 DF-basis CC-PVTZ/JKFIT        loaded. Number of functions:     338

 Screening thresholds:   THRAO=  1.00D-10  THRMO=  1.00D-09  THRPROD=  1.00D-09
                         THRSW=  1.00D-05  THROV=  1.00D-12  THRAOF12=   1.00D-08

 CPU time for Fock operators                      2.66 sec
 
 Construction of ABS:
 Smallest eigenvalue of S          4.13E-04  (threshold= 1.00E-08)
 Ratio eigmin/eigmax               5.30E-05  (threshold= 1.00E-09)
 Smallest eigenvalue of S kept     4.13E-04  (threshold= 4.13E-04, 0 functions deleted, 396 kept)
 
 Construction of CABS:
 Smallest eigenvalue of S          8.29E-07  (threshold= 1.00E-08)
 Ratio eigmin/eigmax               8.29E-07  (threshold= 1.00E-09)
 Smallest eigenvalue of S kept     8.29E-07  (threshold= 8.29E-07, 0 functions deleted, 396 kept)
 
 CPU time for CABS singles                        0.11 sec

 CABS-singles contribution of  -0.00095148 patched into reference energy.
 New reference energy         -76.06129275
 
 AO(A)-basis ORBITAL           loaded. Number of functions:     214
 RI(R)-basis CC-PVTZ-F12/OPTRI loaded. Number of functions:     396
 DF-basis AUG-CC-PVTZ/MP2FIT   loaded. Number of functions:     488

 Screening thresholds:   THRAO=  1.00D-10  THRMO=  1.00D-09  THRPROD=  1.00D-09
                         THRSW=  1.00D-05  THROV=  1.00D-12  THRAOF12=   1.00D-08

 CPU time for 3-index integral evaluation         5.73 sec
 CPU time for first  half transformation          0.47 sec ( 5478.5 MFLOP/sec)
 CPU time for second half transformation          0.02 sec ( 1462.0 MFLOP/sec)
 CPU time for sorting                             0.01 sec
 CPU time for fitting                             0.04 sec (29768.0 MFLOP/sec)
 CPU time for tilde quantities                    0.04 sec (39722.4 MFLOP/sec)
 CPU time for assembly                            0.21 sec (37981.3 MFLOP/sec)
 CPU time for tranop_f12                          0.25 sec (38326.5 MFLOP/sec)
 CPU time for f12 integrals (total)               7.24 sec, Elapsed time:     23.80 sec
 CPU time for f12 matrices (total)                0.08 sec, Elapsed time:      0.15 sec

 Diagonal F12 approximation with fixed coefficients:  TSING= 0.500,  TTRIP= 0.250 (scaled by -1/beta)

 DF-MP2-F12 energy corrections:
 ==============================
 Approx.                                    Singlet             Triplet             Total
 DF-MP2-F12/3*C(DX,FIX)                -0.025077392776     -0.002989370156     -0.028066762932
 DF-MP2-F12/3*C(FIX)                   -0.023321595466     -0.002706614802     -0.026028210269
 DF-MP2-F12/3C(FIX)                    -0.023247601432     -0.002803101262     -0.026050702695

 DF-MP2-F12 correlation energies:
 ================================
 Approx.                                    Singlet             Triplet             Ecorr            Total Energy
 DF-MP2                                -0.175524987626     -0.100048898486     -0.275573886112    -76.336866636423
 DF-MP2-F12/3*C(DX,FIX)                -0.200602380401     -0.103038268642     -0.303640649044    -76.364933399355
 DF-MP2-F12/3*C(FIX)                   -0.198846583092     -0.102755513288     -0.301602096380    -76.362894846692
 DF-MP2-F12/3C(FIX)                    -0.198772589058     -0.102851999748     -0.301624588806    -76.362917339118

 SCS-DF-MP2 energies (F_SING= 1.20000  F_TRIP= 0.62222  F_PARALLEL= 0.33333):
 ============================================================================
 SCS-DF-MP2                            -0.272882633098    -76.334175383409
 SCS-DF-MP2-F12/3*C(DX,FIX)            -0.304835556970    -76.366128307282
 SCS-DF-MP2-F12/3*C(FIX)               -0.302552663534    -76.363845413846
 SCS-DF-MP2-F12/3C(FIX)                -0.302523906713    -76.363816657025
 Symmetry transformation completed.

 Number of N-1 electron functions:               4
 Number of N-2 electron functions:              10
 Number of singly external CSFs:               836
 Number of doubly external CSFs:            349866
 Total number of CSFs:                      350703

 Length of J-op  integral file:              53.89 MB
 Length of K-op  integral file:              87.81 MB
 Length of 3-ext integral record:             0.00 MB

 Memory could be reduced to 60.96 Mwords without degradation in triples

 Integral transformation finished. Total CPU:   5.57 sec, npass=  1  Memory used:  26.32 MW

 Reference energy:                    -76.06129275

 Adding F12 terms to K(Cij), methodcc=6,  factor= 1.0

 ITER.      SQ.NORM     CORR.ENERGY   TOTAL ENERGY   ENERGY CHANGE        DEN1      VAR(S)    VAR(P)  DIIS     TIME  TIME/IT
   1      1.06340881    -0.27559578   -76.33688853     0.00002041     0.00615801  0.80D-03  0.11D-02  1  1    19.52     3.87
   2      1.06693288    -0.27535183   -76.33664458     0.00024395    -0.00479204  0.15D-04  0.12D-03  2  2    23.36    11.21
   3      1.06821994    -0.27549437   -76.33678712    -0.00014255    -0.00085409  0.97D-05  0.78D-05  3  3    27.25     8.87
   4      1.06881555    -0.27551777   -76.33681052    -0.00002339    -0.00038150  0.47D-06  0.62D-06  4  4    31.11     7.69
   5      1.06891708    -0.27551619   -76.33680894     0.00000158    -0.00002248  0.14D-06  0.40D-07  5  5    34.94     6.99
   6      1.06894468    -0.27551480   -76.33680755     0.00000139    -0.00000464  0.12D-07  0.40D-08  6  6    38.82     7.20
   7      1.06895176    -0.27551440   -76.33680715     0.00000040    -0.00000159  0.11D-08  0.35D-09  6  1    42.67     6.77
   8      1.06895335    -0.27551446   -76.33680721    -0.00000006    -0.00000002  0.11D-09  0.46D-10  6  2    46.55     6.44
   9      1.06895372    -0.27551446   -76.33680721    -0.00000000     0.00000006  0.97D-11  0.86D-11  6  4    50.40     6.20
  10      1.06895385    -0.27551446   -76.33680721     0.00000000    -0.00000000  0.19D-11  0.63D-12  6  3    54.25     5.99

 Norm of t1 vector:      0.03709724      S-energy:     0.00000001      T1 diagnostic:  0.00927431
                                                                       D1 diagnostic:  0.01863955

 Adding energy correction from Wij-K(Fij), methodcc=6  factor= 1.0
 
  CCSD correlation energy              -0.275514459088
  MP2-F12 correction (uncoupled)       -0.024931063101
  C*T doubles correction               -0.000834120437
  f12b correction                       0.004286499283

 Total CPU time for triples:     21.79 sec

  Ecorr(MP2)                           -0.275616187272
  Ecorr(MP2-F12)                       -0.301666889967
  Scale factor for triples energy       1.094518043198


 RESULTS
 =======

  Reference energy                    -76.060341274629
  F12 singles correction               -0.000951475682

 F12 singles corrections added to reference energy

  New reference energy                -76.061292750312

  F12a singlet correction              -0.023068621012
  F12a triplet correction              -0.002696562526
  F12a total correction                -0.025765183538

 F12a corrections for ansatz F12/3C(FIX) added to CCSD energy
 
  CCSD-F12a singlet pair energy        -0.210369871452
  CCSD-F12a triplet pair energy        -0.090909779513
  CCSD-F12a correlation energy         -0.301279642626

  Triples (T) contribution (scaled)    -0.009894164770
  Total correlation energy             -0.311173807396

  CCSD-F12a total energy              -76.362572392938
  CCSD[T]-F12a energy                 -76.372815240871
  CCSD-T-F12a energy                  -76.372313216860
 !CCSD(T)-F12a total energy           -76.372466557708

 F12b corrections for ansatz F12/3C(FIX) added to CCSD(T)-F12a energy

  CCSD-F12b singlet pair energy        -0.206393270524
  CCSD-F12b triplet pair energy        -0.090599881158
  CCSD-F12b correlation energy         -0.296993143343

  Triples (T) contribution (scaled)    -0.009894164770
  Total correlation energy             -0.306887308113

  CCSD-F12b total energy              -76.358285893655
  CCSD[T]-F12b energy                 -76.368528741588
  CCSD-T-F12b energy                  -76.368026717577
 !CCSD(T)-F12b total energy           -76.368180058425

 Timing summary (sec):

 STEP                 CPU(USER)    SYS     CPU(TOT)    WALL
 Transformation          5.61      0.65      6.26     28.13
 CCSD iterations        38.41      3.15     41.56     60.06
 Triples                21.79      0.36     22.15     22.16
 MP2-F12                10.24      0.43     10.67     28.09
 F12b energy             3.37      0.27      3.64      3.64

 Program statistics:

 Available memory in ccsd:              2999999786
 Min. memory needed in ccsd:               1609972
 Max. memory used in ccsd:                 1864434
 Max. memory used in cckext:               1252381 (11 integral passes)



 **********************************************************************************************************************************
 DATASETS  * FILE   NREC   LENGTH (MB)   RECORD NAMES
              1      20     1962.32       500      610      700      900      950      970     1000      129      960     1100   
                                          VAR    BASINP    GEOM    SYMINP    ZMAT    AOBASIS   BASIS     P2S    ABASIS      S 
                                         1400     1410     1200     1210     1080     1600     1650     1300     1700     1380   
                                           T        V       H0       H01     AOSYM     SMH    MOLCAS    ERIS     OPER     JKOP   

              2       8       12.47       700     1000      520     2100     7360     7350     2101     2102   
                                         GEOM     BASIS   MCVARS     RHF    F12ABS    EF12      RHF      RHF  

 PROGRAMS   *        TOTAL   CCSD(T)        HF       INT   CCSD(T)        HF       INT   CCSD(T)        HF       INT
 CPU TIMES  *       535.09     79.45     25.24      0.06     79.40     20.64      0.06    286.87     27.58     15.63
 REAL TIME  *       735.52 SEC
 DISK USED  *         5.04 GB      
 **********************************************************************************************************************************
 SETTING E_F12_B(1)     =       -76.37246656  AU                              
 SETTING E_F12_B(2)     =       -76.36818006  AU                              
 SETTING E_INT_HF       =         0.00010563  AU                              
 SETTING E_INT_F12(1)   =        -0.00041276  AU                              
 SETTING E_INT_F12(2)   =        -0.00040872  AU                              
 E_INT_HF         =         0.00010563 AU
 E_INT_F12(1:2)   = [      -0.00041276    -0.00040872] AU

 CCSD(T)-F12/cc-pVTZ-F12 energy=    -76.368180058425

     CCSD(T)-F12        HF-SCF       CCSD(T)-F12        HF-SCF       CCSD(T)-F12        HF-SCF  
    -76.36818006    -76.06034127    -40.45405897    -40.21549272   -116.82264775   -116.27572837
 **********************************************************************************************************************************
 Molpro calculation terminated
 Variable memory released
