
 Primary working directories    : /net/scratch/people/plgsirous
 Secondary working directories  : /net/scratch/people/plgsirous
 Wavefunction directory         : /net/people/plgsirous/wfu/
 Main file repository           : /net/scratch/people/plgsirous/

 SHA1      : 
 NAME      : 
 ARCHNAME  : linux/x86_64
 FC        : /net/software/local/intel/impi/2018.1.163/bin64/mpiifort
 BLASLIB   : -L/net/software/local/intel/compilers_and_libraries_2018.1.163/linux/mkl/lib/intel64 -lmkl_scalapack_ilp64 -lmkl_intel_ilp64 -lmkl_intel_thread -lmkl_core -lmkl_blacs_intelmpi_ilp64 -liomp5 -lpthread -lm -ldl
 id        : pl

 Nodes     nprocs
 p1379        1

 Using customized tuning parameters: mindgm=7; mindgv=20; mindgc=1; mindgr=1; noblas=0; minvec=7
 default implementation of scratch files=df  

 memory,3000,m
 zsymel=nosym
 angstrom
 geometry={
 C1        -3.2772    1.4825     1.2719
 H1        -2.4640    0.8996     1.6510
 H2        -3.1608    2.5010     1.5785
 H3        -4.2018    1.0992     1.6501
 H4        -3.2685    1.4210     0.2037
 O1        -6.5618    3.0044     2.4378
 H5        -6.4278    2.0811     2.7596
 H6        -5.8760    3.5424     2.8824
 }
 basis=vtz-f12
 gthresh,orbital=1d-8,energy=1d-8,twoint=1.d-19
 
 
 nkerna=1
 nkernb=1
 nkernab=$nkerna+$nkernb
 
                                                                                 ! AB Dimer
 {hf,accu=1.d-8}
 E_HF_AB=energy
 core,$nkernab
 {ccsd(t)-f12,scale_trip=1,THRF12=1.d-12}
 E_F12_AB=energy
 
                                                                                 ! Monomer A Part
 
 dummy,6,7,8;
 {hf,accu=1.d-8}
 E_HF_A=energy
 core,$nkerna
 {ccsd(t)-f12,scale_trip=1,THRF12=1.d-12}
 E_F12_A=energy
 
                                                                                 ! Monomer B Part
 
 dummy,1,2,3,4,5;
 {hf,accu=1.d-8}
 E_HF_B=energy
 core,$nkernb
 {ccsd(t)-f12,scale_trip=1,THRF12=1.d-12}
 E_F12_B=energy
 
 E_int_HF = E_HF_AB-(E_HF_A+E_HF_B)
 E_int_F12 = E_F12_AB-(E_F12_A+E_F12_B)
 
 
 show,E_int_HF,E_int_F12

 Variables initialized (889), CPU time= 0.01 sec
 Commands  initialized (702), CPU time= 0.00 sec, 572 directives.
 Default parameters read. Elapsed time= 0.06 sec

 Checking input...
 Passed
1


                                         ***  PROGRAM SYSTEM MOLPRO  ***
                                       Copyright, TTI GmbH Stuttgart, 2015
                                    Version 2015.1 linked Jul  2 2018 15:03:07


 **********************************************************************************************************************************
 LABEL *                                                                                 
  64 bit serial version                                                                  DATE: 17-Jan-19          TIME: 14:52:46  
 **********************************************************************************************************************************

 SHA1:             
 **********************************************************************************************************************************
 SETTING ZSYMEL         =    NOSYM
 ZSYMEL=NOSYM
 ZUNIT=ANG
 

Geometry recognized as XYZ


 Variable memory set to 3000000000 words,  buffer space   230000 words

 SETTING BASIS          =    VTZ-F12

 THRESHOLDS:

 ZERO    =  1.00D-12  ONEINT  =  1.00D-12  TWOINT  =  1.00D-19  PREFAC  =  1.00D-14  LOCALI  =  1.00D-09  EORDER  =  1.00D-04
 ENERGY  =  1.00D-08  ETEST   =  0.00D+00  EDENS   =  0.00D+00  THRDEDEF=  1.00D-06  GRADIENT=  1.00D-02  STEP    =  1.00D-03
 ORBITAL =  1.00D-08  CIVEC   =  1.00D-05  COEFF   =  1.00D-04  PRINTCI =  5.00D-02  PUNCHCI =  9.90D+01  OPTGRAD =  3.00D-04
 OPTENERG=  1.00D-06  OPTSTEP =  3.00D-04  THRGRAD =  1.00D-10  COMPRESS=  1.00D-11  VARMIN  =  1.00D-07  VARMAX  =  1.00D-03
 THRDOUB =  0.00D+00  THRDIV  =  1.00D-05  THRRED  =  1.00D-07  THRPSP  =  1.00D+00  THRDC   =  1.00D-10  THRCS   =  1.00D-10
 THRNRM  =  1.00D-08  THREQ   =  0.00D+00  THRDE   =  1.00D+00  THRREF  =  1.00D-05  SPARFAC =  1.00D+00  THRDLP  =  1.00D-07
 THRDIA  =  1.00D-10  THRDLS  =  1.00D-07  THRGPS  =  0.00D+00  THRKEX  =  0.00D+00  THRDIS  =  2.00D-01  THRVAR  =  1.00D-10
 THRLOC  =  1.00D-06  THRGAP  =  1.00D-06  THRLOCT = -1.00D+00  THRGAPT = -1.00D+00  THRORB  =  1.00D-06  THRMLTP =  0.00D+00
 THRCPQCI=  1.00D-10  KEXTA   =  0.00D+00  THRCOARS=  0.00D+00  SYMTOL  =  1.00D-06  GRADTOL =  1.00D-06  THROVL  =  1.00D-08
 THRORTH =  1.00D-08  GRID    =  1.00D-06  GRIDMAX =  1.00D-03  DTMAX   =  0.00D+00  THROCCDE=  1.00D-01  THROCCDE=  1.00D-01


 SETTING NKERNA         =         1.00000000                                  
 SETTING NKERNB         =         1.00000000                                  
 SETTING NKERNAB        =         2.00000000                                  


 Recomputing integrals since basis changed


 Using spherical harmonics

 Library entry C      S cc-pVTZ-F12          selected for orbital group  1
 Library entry C      P cc-pVTZ-F12          selected for orbital group  1
 Library entry C      D cc-pVTZ-F12          selected for orbital group  1
 Library entry C      F cc-pVTZ-F12          selected for orbital group  1
 Library entry H      S cc-pVTZ-F12          selected for orbital group  2
 Library entry H      P cc-pVTZ-F12          selected for orbital group  2
 Library entry H      D cc-pVTZ-F12          selected for orbital group  2
 Library entry O      S cc-pVTZ-F12          selected for orbital group  3
 Library entry O      P cc-pVTZ-F12          selected for orbital group  3
 Library entry O      D cc-pVTZ-F12          selected for orbital group  3
 Library entry O      F cc-pVTZ-F12          selected for orbital group  3


 PROGRAM * SEWARD (Integral evaluation for generally contracted gaussian basis sets)     Author: Roland Lindh, 1990

 Geometry written to block  1 of record 700


 Point group  C1  



 ATOMIC COORDINATES

 NR  ATOM    CHARGE       X              Y              Z

   1  C1      6.00   -6.193010455    2.801518980    2.403542658
   2  H1      1.00   -4.656285171    1.699997622    3.119937832
   3  H2      1.00   -5.973046335    4.726205038    2.982932688
   4  H3      1.00   -7.940251230    2.077186956    3.118237078
   5  H4      1.00   -6.176569838    2.685300823    0.384937212
   6  O1      8.00  -12.400004884    5.677493169    4.606774346
   7  H5      1.00  -12.146781583    3.932709038    5.214888213
   8  H6      1.00  -11.104030708    6.694165824    5.446946581

 Bond lengths in Bohr (Angstrom)

 1-2  2.021904040  1-3  2.022002335  1-4  2.021953343  1-5  2.022015060  6-7  1.864992273
     ( 1.069945541)     ( 1.069997556)     ( 1.069971630)     ( 1.070004290)     ( 0.986911409)

 6-8  1.849070506
     ( 0.978485973)

 Bond angles

  2-1-3  109.53398059   2-1-4  109.65604535   2-1-5  108.43490854   3-1-4  109.49436728

  3-1-5  109.86987750   4-1-5  109.83468330   7-6-8  105.72790617

 NUCLEAR CHARGE:                   20
 NUMBER OF PRIMITIVE AOS:         270
 NUMBER OF SYMMETRY AOS:          246
 NUMBER OF CONTRACTIONS:          214   ( 214A   )
 NUMBER OF CORE ORBITALS:           2   (   2A   )
 NUMBER OF VALENCE ORBITALS:       14   (  14A   )


 NUCLEAR REPULSION ENERGY   36.69183171


 Eigenvalues of metric

         1 0.732E-04 0.210E-03 0.317E-03 0.321E-03 0.333E-03 0.456E-03 0.551E-03 0.561E-03


 Contracted 2-electron integrals neglected if value below      1.0D-19
 AO integral compression algorithm  1   Integral accuracy      1.0D-19

     2158.756 MB (compressed) written to integral file ( 88.6%)


 NUMBER OF SORTED TWO-ELECTRON INTEGRALS:  264626515.     BUFFER LENGTH:  32768
 NUMBER OF SEGMENTS:  17  SEGMENT LENGTH:   15999762      RECORD LENGTH: 524288

 Memory used in sort:      16.56 MW

 SORT1 READ   304636334. AND WROTE   251190920. INTEGRALS IN    727 RECORDS. CPU TIME:     3.19 SEC, REAL TIME:     7.32 SEC
 SORT2 READ   251190920. AND WROTE   264626515. INTEGRALS IN   8235 RECORDS. CPU TIME:     3.17 SEC, REAL TIME:    29.85 SEC

 FILE SIZES:   FILE 1:  2180.5 MBYTE,  FILE 4:  3049.3 MBYTE,   TOTAL:   5229.8 MBYTE

 OPERATOR DM      FOR CENTER  0  COORDINATES:    0.000000    0.000000    0.000000


 **********************************************************************************************************************************
 DATASETS  * FILE   NREC   LENGTH (MB)   RECORD NAMES
              1      19     1919.48       500      610      700      900      950      970     1000      129      960     1100   
                                          VAR    BASINP    GEOM    SYMINP    ZMAT    AOBASIS   BASIS     P2S    ABASIS      S 
                                         1400     1410     1200     1210     1080     1600     1650     1300     1700   
                                           T        V       H0       H01     AOSYM     SMH    MOLCAS    ERIS     OPER   

 PROGRAMS   *        TOTAL       INT
 CPU TIMES  *        15.69     15.57
 REAL TIME  *        51.57 SEC
 DISK USED  *         5.23 GB      
 **********************************************************************************************************************************


 PROGRAM * RHF-SCF (CLOSED SHELL)       Authors: W. Meyer, H.-J. Werner


 NUMBER OF ELECTRONS:      10+   10-    SPACE SYMMETRY=1    SPIN SYMMETRY: Singlet 
 CONVERGENCE THRESHOLDS:    1.00E-04 (Density)    1.00E-09 (Energy)
 MAX. NUMBER OF ITERATIONS:       60
 INTERPOLATION TYPE:            DIIS
 INTERPOLATION STEPS:              2 (START)      1 (STEP)
 LEVEL SHIFTS:                  0.00 (CLOSED)  0.00 (OPEN) 



 Orbital guess generated from atomic densities. Full valence occupancy:   16

 Molecular orbital dump at record        2100.2

 Initial occupancy:  10

 ITERATION    DDIFF          GRAD             ENERGY        2-EL.EN.            DIPOLE MOMENTS         DIIS   ORB.
    1      0.000D+00      0.000D+00      -116.21844970    158.804015    0.80012   -0.37812    0.74073    0    start
    2      0.000D+00      0.548D-02      -116.26267887    153.965115    0.47490   -0.21116    0.38604    1    diag
    3      0.563D-02      0.322D-02      -116.27632420    155.996671    0.55718   -0.25271    0.47780    2    diag
    4      0.183D-02      0.481D-03      -116.27699242    155.883194    0.54902   -0.24875    0.47183    3    diag
    5      0.423D-03      0.141D-03      -116.27706240    155.878038    0.54885   -0.24864    0.47126    4    diag
    6      0.158D-03      0.341D-04      -116.27706628    155.883730    0.54831   -0.24845    0.47068    5    diag
    7      0.414D-04      0.686D-05      -116.27706651    155.882008    0.54830   -0.24847    0.47069    6    diag
    8      0.109D-04      0.175D-05      -116.27706653    155.882194    0.54825   -0.24845    0.47063    7    diag
    9      0.307D-05      0.415D-06      -116.27706653    155.882166    0.54823   -0.24844    0.47061    8    diag
   10      0.636D-06      0.503D-07      -116.27706653    155.882168    0.54823   -0.24844    0.47061    0    orth

 Final occupancy:  10

 !RHF STATE 1.1 Energy               -116.277066528985
 Nuclear energy                        36.69183171
 One-electron energy                 -230.90998245
 Two-electron energy                   77.94108420
 Virial quotient                       -1.00080332
 !RHF STATE 1.1 Dipole moment           0.54823496    -0.24844008     0.47061226
 Dipole moment /Debye                   1.39338301    -0.63143033     1.19609872

 Orbital energies:

         1.1          2.1          3.1          4.1          5.1          6.1          7.1          8.1          9.1         10.1
    -20.567800   -11.200331    -1.338734    -0.954657    -0.705838    -0.577918    -0.556194    -0.554396    -0.551282    -0.506758

        11.1         12.1
      0.055376     0.070209

 HOMO     10.1    -0.506758 =     -13.7896eV
 LUMO     11.1     0.055376 =       1.5068eV
 LUMO-HOMO         0.562134 =      15.2964eV


 **********************************************************************************************************************************
 DATASETS  * FILE   NREC   LENGTH (MB)   RECORD NAMES
              1      19     1919.48       500      610      700      900      950      970     1000      129      960     1100   
                                          VAR    BASINP    GEOM    SYMINP    ZMAT    AOBASIS   BASIS     P2S    ABASIS      S 
                                         1400     1410     1200     1210     1080     1600     1650     1300     1700   
                                           T        V       H0       H01     AOSYM     SMH    MOLCAS    ERIS     OPER   

              2       4        3.81       700     1000      520     2100   
                                         GEOM     BASIS   MCVARS     RHF  

 PROGRAMS   *        TOTAL        HF       INT
 CPU TIMES  *        40.50     24.81     15.57
 REAL TIME  *        80.22 SEC
 DISK USED  *         5.23 GB      
 **********************************************************************************************************************************
 SETTING E_HF_AB        =      -116.27706653  AU                              


 PROGRAM * CCSD (Closed-shell coupled cluster)     Authors: C. Hampel, H.-J. Werner, 1991, M. Deegan, P.J. Knowles, 1992

                                  CCSD-F12 implementation by  H.-J. Werner, 2007

                   Density fitting integral evaluation by F.R. Manby, 2003,2007, G. Knizia, 2010

 Basis set CC-PVTZ/JKFIT generated.      Number of basis functions:   338 
 Basis set CC-PVTZ-F12/OPTRI generated.  Number of basis functions:   396 
 Basis set AUG-CC-PVTZ/MP2FIT generated. Number of basis functions:   488 

 Convergence thresholds:  THRVAR = 1.00D-08  THRDEN = 1.00D-08

 CCSD(T)     terms to be evaluated (factor= 1.000)


 Number of core orbitals:           2 (   2 )
 Number of closed-shell orbitals:   8 (   8 )
 Number of external orbitals:     204 ( 204 )

 Molecular orbitals read from record     2100.2  Type=RHF/CANONICAL (state 1.1)

 MP2-F12 correlation treatment (H.-J. Werner, 2006)
 ==================================================

 Using MP2-F12 with ansatz 3C(FIX)

 Using projected zeroth-order Hamiltonian (+Z)

 FOCKRIB=T FOCKRIC=T FOCKRIP=T CABSP=T CABSA=T CABSK=T CABSF=T GBC=F EBC=F DMAT=T NOFIK=T NOPAO=1 SOLVE=-1  USEPAO=0
 EXCH_A= T EXCH_B= F EXCH_C= F EXCH_P= F
 
 Geminal basis:    OPTFULL  GEM_TYPE=SLATER  BETA=1.0  NGEM=6

 Optimizing Gaussian exponents for each gem_beta

 Geminal optimization for beta= 1.0000
 Weight function:   m=0, omega= 1.4646

 Augmented Hessian optimization of geminal fit. Trust ratio= 0.40000
 Convergence reached after   2 iterations. Final gradient= 8.26D-16, Step= 4.26D-06, Delta= 1.28D-09
 
 Alpha:                 0.19532     0.81920     2.85917     9.50073    35.69989   197.79328
 Coeff:                 0.27070     0.30552     0.18297     0.10986     0.06810     0.04224
 

 All pairs explicitly correlated. Number of r12-pairs:           36

 Excluding core orbitals from MO domains
 
 AO(A)-basis ORBITAL           loaded. Number of functions:     214
 RI(R)-basis CC-PVTZ-F12/OPTRI loaded. Number of functions:     396
 DF-basis CC-PVTZ/JKFIT        loaded. Number of functions:     338

 Screening thresholds:   THRAO=  1.00D-10  THRMO=  1.00D-09  THRPROD=  1.00D-09
                         THRSW=  1.00D-05  THROV=  1.00D-12  THRAOF12=   1.00D-08

 CPU time for Fock operators                      2.80 sec
 
 Construction of ABS:
 Smallest eigenvalue of S          3.86E-04  (threshold= 1.00E-08)
 Ratio eigmin/eigmax               4.96E-05  (threshold= 1.00E-09)
 Smallest eigenvalue of S kept     3.86E-04  (threshold= 3.86E-04, 0 functions deleted, 396 kept)
 
 Construction of CABS:
 Smallest eigenvalue of S          8.33E-07  (threshold= 1.00E-08)
 Ratio eigmin/eigmax               8.33E-07  (threshold= 1.00E-09)
 Smallest eigenvalue of S kept     8.33E-07  (threshold= 8.33E-07, 0 functions deleted, 396 kept)
 
 CPU time for CABS singles                        0.11 sec

 CABS-singles contribution of  -0.00160131 patched into reference energy.
 New reference energy        -116.27866784
 
 AO(A)-basis ORBITAL           loaded. Number of functions:     214
 RI(R)-basis CC-PVTZ-F12/OPTRI loaded. Number of functions:     396
 DF-basis AUG-CC-PVTZ/MP2FIT   loaded. Number of functions:     488

 Screening thresholds:   THRAO=  1.00D-10  THRMO=  1.00D-09  THRPROD=  1.00D-09
                         THRSW=  1.00D-05  THROV=  1.00D-12  THRAOF12=   1.00D-08

 CPU time for 3-index integral evaluation         6.01 sec
 CPU time for first  half transformation          0.37 sec (13918.2 MFLOP/sec)
 CPU time for second half transformation          0.02 sec ( 5848.2 MFLOP/sec)
 CPU time for sorting                             0.01 sec
 CPU time for fitting                             0.06 sec (40643.2 MFLOP/sec)
 CPU time for tilde quantities                    0.07 sec (45941.4 MFLOP/sec)
 CPU time for assembly                            0.83 sec (36070.5 MFLOP/sec)
 CPU time for tranop_f12                          1.09 sec (35533.7 MFLOP/sec)
 CPU time for f12 integrals (total)               9.91 sec, Elapsed time:     12.00 sec
 CPU time for f12 matrices (total)                0.34 sec, Elapsed time:      0.46 sec

 Diagonal F12 approximation with fixed coefficients:  TSING= 0.500,  TTRIP= 0.250 (scaled by -1/beta)

 DF-MP2-F12 energy corrections:
 ==============================
 Approx.                                    Singlet             Triplet             Total
 DF-MP2-F12/3*C(DX,FIX)                -0.041405451830     -0.004149956929     -0.045555408759
 DF-MP2-F12/3*C(FIX)                   -0.039279697992     -0.003882453353     -0.043162151344
 DF-MP2-F12/3C(FIX)                    -0.039144613725     -0.003991379807     -0.043135993531

 DF-MP2-F12 correlation energies:
 ================================
 Approx.                                    Singlet             Triplet             Ecorr            Total Energy
 DF-MP2                                -0.320954324115     -0.156192928099     -0.477147252214   -116.755815088973
 DF-MP2-F12/3*C(DX,FIX)                -0.362359775945     -0.160342885028     -0.522702660972   -116.801370497732
 DF-MP2-F12/3*C(FIX)                   -0.360234022106     -0.160075381452     -0.520309403558   -116.798977240317
 DF-MP2-F12/3C(FIX)                    -0.360098937839     -0.160184307906     -0.520283245745   -116.798951082504

 SCS-DF-MP2 energies (F_SING= 1.20000  F_TRIP= 0.62222  F_PARALLEL= 0.33333):
 ============================================================================
 SCS-DF-MP2                            -0.482331899755   -116.760999736514
 SCS-DF-MP2-F12/3*C(DX,FIX)            -0.534600637373   -116.813268474132
 SCS-DF-MP2-F12/3*C(FIX)               -0.531883286097   -116.810551122856
 SCS-DF-MP2-F12/3C(FIX)                -0.531788961437   -116.810456798196
 Symmetry transformation completed.

 Number of N-1 electron functions:               8
 Number of N-2 electron functions:              36
 Number of singly external CSFs:              1632
 Number of doubly external CSFs:           1332528
 Total number of CSFs:                     1334161

 Length of J-op  integral file:             205.73 MB
 Length of K-op  integral file:             258.78 MB
 Length of 3-ext integral record:             0.00 MB

 Memory could be reduced to 93.27 Mwords without degradation in triples

 Integral transformation finished. Total CPU:   9.33 sec, npass=  1  Memory used:  48.07 MW

 Reference energy:                   -116.27866784

 Adding F12 terms to K(Cij), methodcc=6,  factor= 1.0

 ITER.      SQ.NORM     CORR.ENERGY   TOTAL ENERGY   ENERGY CHANGE        DEN1      VAR(S)    VAR(P)  DIIS     TIME  TIME/IT
   1      1.13283591    -0.49233699  -116.77100482    -0.01511512    -0.00352892  0.14D-02  0.20D-02  1  1    31.32     9.35
   2      1.14087047    -0.49290565  -116.77157349    -0.00056867    -0.00963182  0.30D-04  0.23D-03  2  2    39.95    16.21
   3      1.14391560    -0.49316191  -116.77182974    -0.00025625    -0.00215379  0.13D-04  0.14D-04  3  3    48.60    13.87
   4      1.14490504    -0.49319422  -116.77186205    -0.00003231    -0.00061310  0.61D-06  0.11D-05  4  4    57.30    12.69
   5      1.14506613    -0.49319342  -116.77186126     0.00000080    -0.00003100  0.18D-06  0.69D-07  5  5    65.96    11.98
   6      1.14510203    -0.49319114  -116.77185898     0.00000228    -0.00000678  0.16D-07  0.76D-08  6  6    74.63    11.51
   7      1.14511147    -0.49319020  -116.77185804     0.00000094    -0.00000302  0.19D-08  0.65D-09  6  1    83.31    11.17
   8      1.14511318    -0.49319032  -116.77185815    -0.00000012     0.00000022  0.29D-09  0.87D-10  6  3    91.97    10.93
   9      1.14511423    -0.49319028  -116.77185811     0.00000004    -0.00000034  0.25D-10  0.16D-10  6  2   100.62    10.73
  10      1.14511439    -0.49319028  -116.77185812    -0.00000000     0.00000005  0.30D-11  0.15D-11  6  4   109.26    10.57
  11      1.14511439    -0.49319028  -116.77185812    -0.00000000     0.00000004  0.48D-12  0.22D-12  6  5   117.94    10.44

 Norm of t1 vector:      0.04965717      S-energy:     0.00000000      T1 diagnostic:  0.00877823
                                                                       D1 diagnostic:  0.01906798

 Adding energy correction from Wij-K(Fij), methodcc=6  factor= 1.0
 
  CCSD correlation energy              -0.493190280655
  MP2-F12 correction (uncoupled)       -0.041699274224
  C*T doubles correction               -0.001134776131
  f12b correction                       0.007815157836


 Total CPU time for triples:    153.32 sec

  Ecorr(MP2)                           -0.477221866887
  Ecorr(MP2-F12)                       -0.520357860419
  Scale factor for triples energy       1.090389809278


 RESULTS
 =======

  Reference energy                   -116.277066528986
  F12 singles correction               -0.001601307774

 F12 singles corrections added to reference energy

  New reference energy               -116.278667836759

  F12a singlet correction              -0.038964900375
  F12a triplet correction              -0.003869149980
  F12a total correction                -0.042834050355

 F12a corrections for ansatz F12/3C(FIX) added to CCSD energy
 
  CCSD-F12a singlet pair energy        -0.389328269897
  CCSD-F12a triplet pair energy        -0.146696064316
  CCSD-F12a correlation energy         -0.536024331010

  Triples (T) contribution (scaled)    -0.016956597876
  Total correlation energy             -0.552980928885

  CCSD-F12a total energy             -116.814692167769
  CCSD[T]-F12a energy                -116.832237614095
  CCSD-T-F12a energy                 -116.831422617107
 !CCSD(T)-F12a total energy          -116.831648765644

 F12b corrections for ansatz F12/3C(FIX) added to CCSD(T)-F12a energy

  CCSD-F12b singlet pair energy        -0.381979204517
  CCSD-F12b triplet pair energy        -0.146229971859
  CCSD-F12b correlation energy         -0.528209173173

  Triples (T) contribution (scaled)    -0.016956597876
  Total correlation energy             -0.545165771049

  CCSD-F12b total energy             -116.806877009932
  CCSD[T]-F12b energy                -116.824422456259
  CCSD-T-F12b energy                 -116.823607459270
 !CCSD(T)-F12b total energy          -116.823833607808

 Timing summary (sec):

 STEP                 CPU(USER)    SYS     CPU(TOT)    WALL
 Transformation          9.44      1.20     10.64     11.07
 CCSD iterations        95.16      5.65    100.81    115.01
 Triples               153.32      2.53    155.85    155.90
 MP2-F12                13.36      1.74     15.10     15.86
 F12b energy             6.91      0.32      7.23      7.23

 Program statistics:

 Available memory in ccsd:              2999999464
 Min. memory needed in ccsd:               3963025
 Max. memory used in ccsd:                 5096465
 Max. memory used in cckext:               3666031 (12 integral passes)



 **********************************************************************************************************************************
 DATASETS  * FILE   NREC   LENGTH (MB)   RECORD NAMES
              1      20     2213.03       500      610      700      900      950      970     1000      129      960     1100   
                                          VAR    BASINP    GEOM    SYMINP    ZMAT    AOBASIS   BASIS     P2S    ABASIS      S 
                                         1400     1410     1200     1210     1080     1600     1650     1300     1700     1380   
                                           T        V       H0       H01     AOSYM     SMH    MOLCAS    ERIS     OPER     JKOP   

              2       6        4.74       700     1000      520     2100     7360     7350   
                                         GEOM     BASIS   MCVARS     RHF    F12ABS    EF12   

 PROGRAMS   *        TOTAL   CCSD(T)        HF       INT
 CPU TIMES  *       318.74    278.22     24.81     15.57
 REAL TIME  *       385.41 SEC
 DISK USED  *         5.23 GB      
 **********************************************************************************************************************************
 SETTING E_F12_AB(1)    =      -116.83164877  AU                              
 SETTING E_F12_AB(2)    =      -116.82383361  AU                              

 Dummy atoms: O1  H5  H6


 Recomputing one-electron integrals since nuclear charges changed


 PROGRAM * SEWARD (Integral evaluation for generally contracted gaussian basis sets)     Author: Roland Lindh, 1990

 Geometry written to block  1 of record 700


 Point group  C1  



 ATOMIC COORDINATES

 NR  ATOM    CHARGE       X              Y              Z

   1  C1      6.00   -6.193010455    2.801518980    2.403542658
   2  H1      1.00   -4.656285171    1.699997622    3.119937832
   3  H2      1.00   -5.973046335    4.726205038    2.982932688
   4  H3      1.00   -7.940251230    2.077186956    3.118237078
   5  H4      1.00   -6.176569838    2.685300823    0.384937212
   6  O1      0.00  -12.400004884    5.677493169    4.606774346
   7  H5      0.00  -12.146781583    3.932709038    5.214888213
   8  H6      0.00  -11.104030708    6.694165824    5.446946581

 Bond lengths in Bohr (Angstrom)

 1-2  2.021904040  1-3  2.022002335  1-4  2.021953343  1-5  2.022015060  6-7  1.864992273
     ( 1.069945541)     ( 1.069997556)     ( 1.069971630)     ( 1.070004290)     ( 0.986911409)

 6-8  1.849070506
     ( 0.978485973)

 Bond angles

  2-1-3  109.53398059   2-1-4  109.65604535   2-1-5  108.43490854   3-1-4  109.49436728

  3-1-5  109.86987750   4-1-5  109.83468330   7-6-8  105.72790617

 NUCLEAR CHARGE:                   10
 NUMBER OF PRIMITIVE AOS:         270
 NUMBER OF SYMMETRY AOS:          246
 NUMBER OF CONTRACTIONS:          214   ( 214A   )
 NUMBER OF CORE ORBITALS:           1   (   1A   )
 NUMBER OF VALENCE ORBITALS:        8   (   8A   )

 MOLECULE CHANGED: INITIALIZING OCCUPATION AND DUMP RECORDS


 NUCLEAR REPULSION ENERGY   13.68681606


 Eigenvalues of metric

         1 0.732E-04 0.210E-03 0.317E-03 0.321E-03 0.333E-03 0.456E-03 0.551E-03 0.561E-03


 Contracted 2-electron integrals neglected if value below      1.0D-19

 OPERATOR DM      FOR CENTER  0  COORDINATES:    0.000000    0.000000    0.000000


 **********************************************************************************************************************************
 DATASETS  * FILE   NREC   LENGTH (MB)   RECORD NAMES
              1      19     1919.48       500      610      700      900      950      970     1000      129      960     1100   
                                          VAR    BASINP    GEOM    SYMINP    ZMAT    AOBASIS   BASIS     P2S    ABASIS      S 
                                         1400     1410     1200     1210     1080     1600     1650     1300     1700   
                                           T        V       H0       H01     AOSYM     SMH    MOLCAS    ERIS     OPER   

              2       6        4.74       700     1000      520     2100     7360     7350   
                                         GEOM     BASIS   MCVARS     RHF    F12ABS    EF12   

 PROGRAMS   *        TOTAL       INT   CCSD(T)        HF       INT
 CPU TIMES  *       318.80      0.06    278.22     24.81     15.57
 REAL TIME  *       393.02 SEC
 DISK USED  *         5.23 GB      
 **********************************************************************************************************************************


 PROGRAM * RHF-SCF (CLOSED SHELL)       Authors: W. Meyer, H.-J. Werner


 NUMBER OF ELECTRONS:       5+    5-    SPACE SYMMETRY=1    SPIN SYMMETRY: Singlet 
 CONVERGENCE THRESHOLDS:    1.00E-04 (Density)    1.00E-09 (Energy)
 MAX. NUMBER OF ITERATIONS:       60
 INTERPOLATION TYPE:            DIIS
 INTERPOLATION STEPS:              2 (START)      1 (STEP)
 LEVEL SHIFTS:                  0.00 (CLOSED)  0.00 (OPEN) 



 Orbital guess generated from atomic densities. Full valence occupancy:    9

 Molecular orbital dump at record        2101.2

 Initial occupancy:   5

 ITERATION    DDIFF          GRAD             ENERGY        2-EL.EN.            DIPOLE MOMENTS         DIIS   ORB.
    1      0.000D+00      0.000D+00       -40.19565376     53.501364    0.00410   -0.00270   -0.00124    0    start
    2      0.000D+00      0.368D-02       -40.21289849     52.216648    0.00132   -0.00083   -0.00032    1    diag
    3      0.318D-02      0.143D-02       -40.21516731     52.670308    0.00185   -0.00119   -0.00049    2    diag
    4      0.856D-03      0.357D-03       -40.21548553     52.615359    0.00166   -0.00105   -0.00042    3    diag
    5      0.328D-03      0.463D-04       -40.21549100     52.617513    0.00163   -0.00103   -0.00041    4    diag
    6      0.574D-04      0.375D-05       -40.21549104     52.617658    0.00163   -0.00103   -0.00040    5    diag
    7      0.872D-05      0.302D-06       -40.21549104     52.617618    0.00162   -0.00103   -0.00040    6    diag
    8      0.971D-06      0.227D-07       -40.21549104     52.617619    0.00162   -0.00103   -0.00040    0    orth

 Final occupancy:   5

 !RHF STATE 1.1 Energy                -40.215491038138
 Nuclear energy                        13.68681606
 One-electron energy                  -80.21111669
 Two-electron energy                   26.30880960
 Virial quotient                       -0.99832327
 !RHF STATE 1.1 Dipole moment           0.00162408    -0.00102963    -0.00040356
 Dipole moment /Debye                   0.00412773    -0.00261690    -0.00102569

 Orbital energies:

         1.1          2.1          3.1          4.1          5.1          6.1          7.1
    -11.196270    -0.950712    -0.551938    -0.550003    -0.547825     0.055244     0.068609

 HOMO      5.1    -0.547825 =     -14.9071eV
 LUMO      6.1     0.055244 =       1.5033eV
 LUMO-HOMO         0.603069 =      16.4103eV


 **********************************************************************************************************************************
 DATASETS  * FILE   NREC   LENGTH (MB)   RECORD NAMES
              1      19     1919.48       500      610      700      900      950      970     1000      129      960     1100   
                                          VAR    BASINP    GEOM    SYMINP    ZMAT    AOBASIS   BASIS     P2S    ABASIS      S 
                                         1400     1410     1200     1210     1080     1600     1650     1300     1700   
                                           T        V       H0       H01     AOSYM     SMH    MOLCAS    ERIS     OPER   

              2       7        8.14       700     1000      520     2100     7360     7350     2101   
                                         GEOM     BASIS   MCVARS     RHF    F12ABS    EF12      RHF  

 PROGRAMS   *        TOTAL        HF       INT   CCSD(T)        HF       INT
 CPU TIMES  *       339.18     20.38      0.06    278.22     24.81     15.57
 REAL TIME  *       421.16 SEC
 DISK USED  *         5.23 GB      
 **********************************************************************************************************************************
 SETTING E_HF_A         =       -40.21549104  AU                              


 PROGRAM * CCSD (Closed-shell coupled cluster)     Authors: C. Hampel, H.-J. Werner, 1991, M. Deegan, P.J. Knowles, 1992

                                  CCSD-F12 implementation by  H.-J. Werner, 2007

                   Density fitting integral evaluation by F.R. Manby, 2003,2007, G. Knizia, 2010

 Basis set CC-PVTZ/JKFIT generated.      Number of basis functions:   338 
 Basis set CC-PVTZ-F12/OPTRI generated.  Number of basis functions:   396 
 Basis set AUG-CC-PVTZ/MP2FIT generated. Number of basis functions:   488 

 Convergence thresholds:  THRVAR = 1.00D-08  THRDEN = 1.00D-08

 CCSD(T)     terms to be evaluated (factor= 1.000)


 Number of core orbitals:           1 (   1 )
 Number of closed-shell orbitals:   4 (   4 )
 Number of external orbitals:     209 ( 209 )

 Molecular orbitals read from record     2101.2  Type=RHF/CANONICAL (state 1.1)

 MP2-F12 correlation treatment (H.-J. Werner, 2006)
 ==================================================

 Using MP2-F12 with ansatz 3C(FIX)

 Using projected zeroth-order Hamiltonian (+Z)

 FOCKRIB=T FOCKRIC=T FOCKRIP=T CABSP=T CABSA=T CABSK=T CABSF=T GBC=F EBC=F DMAT=T NOFIK=T NOPAO=1 SOLVE=-1  USEPAO=0
 EXCH_A= T EXCH_B= F EXCH_C= F EXCH_P= F
 
 Geminal basis:    OPTFULL  GEM_TYPE=SLATER  BETA=1.0  NGEM=6

 Optimizing Gaussian exponents for each gem_beta

 Geminal optimization for beta= 1.0000
 Weight function:   m=0, omega= 1.4646

 Augmented Hessian optimization of geminal fit. Trust ratio= 0.40000
 Convergence reached after   2 iterations. Final gradient= 8.26D-16, Step= 4.26D-06, Delta= 1.28D-09
 
 Alpha:                 0.19532     0.81920     2.85917     9.50073    35.69989   197.79328
 Coeff:                 0.27070     0.30552     0.18297     0.10986     0.06810     0.04224
 

 All pairs explicitly correlated. Number of r12-pairs:           10

 Excluding core orbitals from MO domains
 
 AO(A)-basis ORBITAL           loaded. Number of functions:     214
 RI(R)-basis CC-PVTZ-F12/OPTRI loaded. Number of functions:     396
 DF-basis CC-PVTZ/JKFIT        loaded. Number of functions:     338

 Screening thresholds:   THRAO=  1.00D-10  THRMO=  1.00D-09  THRPROD=  1.00D-09
                         THRSW=  1.00D-05  THROV=  1.00D-12  THRAOF12=   1.00D-08

 CPU time for Fock operators                      2.69 sec
 
 Construction of ABS:
 Smallest eigenvalue of S          3.86E-04  (threshold= 1.00E-08)
 Ratio eigmin/eigmax               4.96E-05  (threshold= 1.00E-09)
 Smallest eigenvalue of S kept     3.86E-04  (threshold= 3.86E-04, 0 functions deleted, 396 kept)
 
 Construction of CABS:
 Smallest eigenvalue of S          8.33E-07  (threshold= 1.00E-08)
 Ratio eigmin/eigmax               8.33E-07  (threshold= 1.00E-09)
 Smallest eigenvalue of S kept     8.33E-07  (threshold= 8.33E-07, 0 functions deleted, 396 kept)
 
 CPU time for CABS singles                        0.11 sec

 CABS-singles contribution of  -0.00063694 patched into reference energy.
 New reference energy         -40.21612797
 
 AO(A)-basis ORBITAL           loaded. Number of functions:     214
 RI(R)-basis CC-PVTZ-F12/OPTRI loaded. Number of functions:     396
 DF-basis AUG-CC-PVTZ/MP2FIT   loaded. Number of functions:     488

 Screening thresholds:   THRAO=  1.00D-10  THRMO=  1.00D-09  THRPROD=  1.00D-09
                         THRSW=  1.00D-05  THROV=  1.00D-12  THRAOF12=   1.00D-08

 CPU time for 3-index integral evaluation         5.99 sec
 CPU time for first  half transformation          0.36 sec ( 7152.4 MFLOP/sec)
 CPU time for second half transformation          0.04 sec (  731.0 MFLOP/sec)
 CPU time for fitting                             0.04 sec (29768.0 MFLOP/sec)
 CPU time for tilde quantities                    0.04 sec (39722.4 MFLOP/sec)
 CPU time for assembly                            0.22 sec (36254.9 MFLOP/sec)
 CPU time for tranop_f12                          0.27 sec (35487.5 MFLOP/sec)
 CPU time for f12 integrals (total)               7.42 sec, Elapsed time:      8.43 sec
 CPU time for f12 matrices (total)                0.08 sec, Elapsed time:      0.12 sec

 Diagonal F12 approximation with fixed coefficients:  TSING= 0.500,  TTRIP= 0.250 (scaled by -1/beta)

 DF-MP2-F12 energy corrections:
 ==============================
 Approx.                                    Singlet             Triplet             Total
 DF-MP2-F12/3*C(DX,FIX)                -0.016285057649     -0.001139714917     -0.017424772566
 DF-MP2-F12/3*C(FIX)                   -0.015924062806     -0.001149559339     -0.017073622145
 DF-MP2-F12/3C(FIX)                    -0.015856222233     -0.001156791131     -0.017013013364

 DF-MP2-F12 correlation energies:
 ================================
 Approx.                                    Singlet             Triplet             Ecorr            Total Energy
 DF-MP2                                -0.145617211406     -0.055805508227     -0.201422719633    -40.417550692857
 DF-MP2-F12/3*C(DX,FIX)                -0.161902269054     -0.056945223144     -0.218847492198    -40.434975465423
 DF-MP2-F12/3*C(FIX)                   -0.161541274212     -0.056955067566     -0.218496341778    -40.434624315002
 DF-MP2-F12/3C(FIX)                    -0.161473433639     -0.056962299358     -0.218435732996    -40.434563706221

 SCS-DF-MP2 energies (F_SING= 1.20000  F_TRIP= 0.62222  F_PARALLEL= 0.33333):
 ============================================================================
 SCS-DF-MP2                            -0.209464081028    -40.425592054253
 SCS-DF-MP2-F12/3*C(DX,FIX)            -0.229715306155    -40.445843279380
 SCS-DF-MP2-F12/3*C(FIX)               -0.229288237762    -40.445416210987
 SCS-DF-MP2-F12/3C(FIX)                -0.229211328856    -40.445339302080
 Symmetry transformation completed.

 Number of N-1 electron functions:               4
 Number of N-2 electron functions:              10
 Number of singly external CSFs:               836
 Number of doubly external CSFs:            349866
 Total number of CSFs:                      350703

 Length of J-op  integral file:              53.89 MB
 Length of K-op  integral file:              87.81 MB
 Length of 3-ext integral record:             0.00 MB

 Memory could be reduced to 60.96 Mwords without degradation in triples

 Integral transformation finished. Total CPU:   5.53 sec, npass=  1  Memory used:  26.32 MW

 Reference energy:                    -40.21612797

 Adding F12 terms to K(Cij), methodcc=6,  factor= 1.0

 ITER.      SQ.NORM     CORR.ENERGY   TOTAL ENERGY   ENERGY CHANGE        DEN1      VAR(S)    VAR(P)  DIIS     TIME  TIME/IT
   1      1.06960651    -0.21652600   -40.43265398    -0.01506858    -0.00954310  0.62D-03  0.94D-03  1  1    19.64     3.87
   2      1.07446135    -0.21734204   -40.43347001    -0.00081604    -0.00516269  0.14D-04  0.90D-04  2  2    23.47     4.03
   3      1.07598291    -0.21745344   -40.43358141    -0.00011140    -0.00108958  0.20D-05  0.57D-05  3  3    27.29     4.08
   4      1.07635227    -0.21746797   -40.43359594    -0.00001453    -0.00020088  0.13D-06  0.31D-06  4  4    31.14     4.12
   5      1.07640415    -0.21746760   -40.43359557     0.00000037    -0.00000933  0.77D-08  0.15D-07  5  5    34.96     4.13
   6      1.07641045    -0.21746635   -40.43359432     0.00000125    -0.00000294  0.32D-09  0.88D-09  6  6    38.83     4.14
   7      1.07641120    -0.21746627   -40.43359425     0.00000008    -0.00000043  0.22D-10  0.72D-10  6  1    42.68     4.15
   8      1.07641129    -0.21746630   -40.43359427    -0.00000003     0.00000001  0.29D-11  0.63D-11  6  2    46.55     4.17
   9      1.07641129    -0.21746631   -40.43359428    -0.00000001     0.00000003  0.21D-12  0.36D-12  6  3    50.41     4.17
  10      1.07641129    -0.21746631   -40.43359428    -0.00000000     0.00000001  0.24D-13  0.34D-13  6  4    54.28     4.17

 Norm of t1 vector:      0.03261053      S-energy:    -0.00000000      T1 diagnostic:  0.00815263
                                                                       D1 diagnostic:  0.01307331

 Adding energy correction from Wij-K(Fij), methodcc=6  factor= 1.0
 
  CCSD correlation energy              -0.217466307564
  MP2-F12 correction (uncoupled)       -0.016712687269
  C*T doubles correction               -0.000291187565
  f12b correction                       0.003525237676


 Total CPU time for triples:     21.74 sec

  Ecorr(MP2)                           -0.201457419452
  Ecorr(MP2-F12)                       -0.218470432816
  Scale factor for triples energy       1.084449673832


 RESULTS
 =======

  Reference energy                    -40.215491038138
  F12 singles correction               -0.000636935087

 F12 singles corrections added to reference energy

  New reference energy                -40.216127973225

  F12a singlet correction              -0.015859674423
  F12a triplet correction              -0.001144200412
  F12a total correction                -0.017003874835

 F12a corrections for ansatz F12/3C(FIX) added to CCSD energy
 
  CCSD-F12a singlet pair energy        -0.179253445889
  CCSD-F12a triplet pair energy        -0.055216736071
  CCSD-F12a correlation energy         -0.234470182399

  Triples (T) contribution (scaled)    -0.006988798947
  Total correlation energy             -0.241458981345

  CCSD-F12a total energy              -40.450598155623
  CCSD[T]-F12a energy                 -40.457828408205
  CCSD-T-F12a energy                  -40.457513583755
 !CCSD(T)-F12a total energy           -40.457586954570

 F12b corrections for ansatz F12/3C(FIX) added to CCSD(T)-F12a energy

  CCSD-F12b singlet pair energy        -0.175882993868
  CCSD-F12b triplet pair energy        -0.055061950417
  CCSD-F12b correlation energy         -0.230944944723

  Triples (T) contribution (scaled)    -0.006988798947
  Total correlation energy             -0.237933743670

  CCSD-F12b total energy              -40.447072917948
  CCSD[T]-F12b energy                 -40.454303170530
  CCSD-T-F12b energy                  -40.453988346079
 !CCSD(T)-F12b total energy           -40.454061716894

 Timing summary (sec):

 STEP                 CPU(USER)    SYS     CPU(TOT)    WALL
 Transformation          5.56      0.69      6.25      6.29
 CCSD iterations        38.27      3.29     41.56     42.07
 Triples                21.74      0.35     22.09     22.09
 MP2-F12                10.45      0.42     10.87     12.57
 F12b energy             3.32      0.32      3.64      3.64

 Program statistics:

 Available memory in ccsd:              2999999786
 Min. memory needed in ccsd:               1609972
 Max. memory used in ccsd:                 1864434
 Max. memory used in cckext:               1252381 (11 integral passes)



 **********************************************************************************************************************************
 DATASETS  * FILE   NREC   LENGTH (MB)   RECORD NAMES
              1      20     2072.49       500      610      700      900      950      970     1000      129      960     1100   
                                          VAR    BASINP    GEOM    SYMINP    ZMAT    AOBASIS   BASIS     P2S    ABASIS      S 
                                         1400     1410     1200     1210     1080     1600     1650     1300     1700     1380   
                                           T        V       H0       H01     AOSYM     SMH    MOLCAS    ERIS     OPER     JKOP   

              2       7        8.14       700     1000      520     2100     7360     7350     2101   
                                         GEOM     BASIS   MCVARS     RHF    F12ABS    EF12      RHF  

 PROGRAMS   *        TOTAL   CCSD(T)        HF       INT   CCSD(T)        HF       INT
 CPU TIMES  *       418.57     79.39     20.38      0.06    278.22     24.81     15.57
 REAL TIME  *       508.05 SEC
 DISK USED  *         5.23 GB      
 **********************************************************************************************************************************
 SETTING E_F12_A(1)     =       -40.45758695  AU                              
 SETTING E_F12_A(2)     =       -40.45406172  AU                              

 Dummy atoms: C1  H1  H2  H3  H4


 Recomputing one-electron integrals since nuclear charges changed


 PROGRAM * SEWARD (Integral evaluation for generally contracted gaussian basis sets)     Author: Roland Lindh, 1990

 Geometry written to block  1 of record 700


 Point group  C1  



 ATOMIC COORDINATES

 NR  ATOM    CHARGE       X              Y              Z

   1  C1      0.00   -6.193010455    2.801518980    2.403542658
   2  H1      0.00   -4.656285171    1.699997622    3.119937832
   3  H2      0.00   -5.973046335    4.726205038    2.982932688
   4  H3      0.00   -7.940251230    2.077186956    3.118237078
   5  H4      0.00   -6.176569838    2.685300823    0.384937212
   6  O1      8.00  -12.400004884    5.677493169    4.606774346
   7  H5      1.00  -12.146781583    3.932709038    5.214888213
   8  H6      1.00  -11.104030708    6.694165824    5.446946581

 Bond lengths in Bohr (Angstrom)

 1-2  2.021904040  1-3  2.022002335  1-4  2.021953343  1-5  2.022015060  6-7  1.864992273
     ( 1.069945541)     ( 1.069997556)     ( 1.069971630)     ( 1.070004290)     ( 0.986911409)

 6-8  1.849070506
     ( 0.978485973)

 Bond angles

  2-1-3  109.53398059   2-1-4  109.65604535   2-1-5  108.43490854   3-1-4  109.49436728

  3-1-5  109.86987750   4-1-5  109.83468330   7-6-8  105.72790617

 NUCLEAR CHARGE:                   10
 NUMBER OF PRIMITIVE AOS:         270
 NUMBER OF SYMMETRY AOS:          246
 NUMBER OF CONTRACTIONS:          214   ( 214A   )
 NUMBER OF CORE ORBITALS:           1   (   1A   )
 NUMBER OF VALENCE ORBITALS:        6   (   6A   )

 MOLECULE CHANGED: INITIALIZING OCCUPATION AND DUMP RECORDS


 NUCLEAR REPULSION ENERGY    8.95379726


 Eigenvalues of metric

         1 0.732E-04 0.210E-03 0.317E-03 0.321E-03 0.333E-03 0.456E-03 0.551E-03 0.561E-03


 Contracted 2-electron integrals neglected if value below      1.0D-19

 OPERATOR DM      FOR CENTER  0  COORDINATES:    0.000000    0.000000    0.000000


 **********************************************************************************************************************************
 DATASETS  * FILE   NREC   LENGTH (MB)   RECORD NAMES
              1      19     1919.48       500      610      700      900      950      970     1000      129      960     1100   
                                          VAR    BASINP    GEOM    SYMINP    ZMAT    AOBASIS   BASIS     P2S    ABASIS      S 
                                         1400     1410     1200     1210     1080     1600     1650     1300     1700   
                                           T        V       H0       H01     AOSYM     SMH    MOLCAS    ERIS     OPER   

              2       7        8.14       700     1000      520     2100     7360     7350     2101   
                                         GEOM     BASIS   MCVARS     RHF    F12ABS    EF12      RHF  

 PROGRAMS   *        TOTAL       INT   CCSD(T)        HF       INT   CCSD(T)        HF       INT
 CPU TIMES  *       418.64      0.07     79.39     20.38      0.06    278.22     24.81     15.57
 REAL TIME  *       508.32 SEC
 DISK USED  *         5.23 GB      
 **********************************************************************************************************************************


 PROGRAM * RHF-SCF (CLOSED SHELL)       Authors: W. Meyer, H.-J. Werner


 NUMBER OF ELECTRONS:       5+    5-    SPACE SYMMETRY=1    SPIN SYMMETRY: Singlet 
 CONVERGENCE THRESHOLDS:    1.00E-04 (Density)    1.00E-09 (Energy)
 MAX. NUMBER OF ITERATIONS:       60
 INTERPOLATION TYPE:            DIIS
 INTERPOLATION STEPS:              2 (START)      1 (STEP)
 LEVEL SHIFTS:                  0.00 (CLOSED)  0.00 (OPEN) 



 Orbital guess generated from atomic densities. Full valence occupancy:    7

 Molecular orbital dump at record        2102.2

 Initial occupancy:   5

 ITERATION    DDIFF          GRAD             ENERGY        2-EL.EN.            DIPOLE MOMENTS         DIIS   ORB.
    1      0.000D+00      0.000D+00       -76.02365877     77.344496    0.79521   -0.37683    0.74380    0    start
    2      0.000D+00      0.671D-02       -76.05040236     73.678924    0.46327   -0.21650    0.43317    1    diag
    3      0.464D-02      0.428D-02       -76.06205717     75.309387    0.54607   -0.25590    0.51040    2    diag
    4      0.163D-02      0.402D-03       -76.06225465     75.216678    0.54274   -0.25375    0.50717    3    diag
    5      0.231D-03      0.113D-03       -76.06227622     75.231294    0.54151   -0.25293    0.50596    4    diag
    6      0.819D-04      0.227D-04       -76.06227765     75.230188    0.54120   -0.25270    0.50565    5    diag
    7      0.240D-04      0.463D-05       -76.06227772     75.230344    0.54110   -0.25263    0.50554    6    diag
    8      0.546D-05      0.887D-06       -76.06227772     75.230330    0.54107   -0.25262    0.50551    7    diag
    9      0.936D-06      0.120D-06       -76.06227772     75.230321    0.54107   -0.25261    0.50551    8    diag
   10      0.183D-06      0.270D-07       -76.06227772     75.230326    0.54107   -0.25261    0.50551    0    orth

 Final occupancy:   5

 !RHF STATE 1.1 Energy                -76.062277724743
 Nuclear energy                         8.95379726
 One-electron energy                 -122.63123779
 Two-electron energy                   37.61516281
 Virial quotient                       -1.00218006
 !RHF STATE 1.1 Dipole moment           0.54106880    -0.25261424     0.50551092
 Dipole moment /Debye                   1.37516965    -0.64203931     1.28479645

 Orbital energies:

         1.1          2.1          3.1          4.1          5.1          6.1          7.1
    -20.568739    -1.339392    -0.706399    -0.577801    -0.508126     0.037254     0.062742

 HOMO      5.1    -0.508126 =     -13.8268eV
 LUMO      6.1     0.037254 =       1.0137eV
 LUMO-HOMO         0.545380 =      14.8406eV


 **********************************************************************************************************************************
 DATASETS  * FILE   NREC   LENGTH (MB)   RECORD NAMES
              1      19     1919.48       500      610      700      900      950      970     1000      129      960     1100   
                                          VAR    BASINP    GEOM    SYMINP    ZMAT    AOBASIS   BASIS     P2S    ABASIS      S 
                                         1400     1410     1200     1210     1080     1600     1650     1300     1700   
                                           T        V       H0       H01     AOSYM     SMH    MOLCAS    ERIS     OPER   

              2       8       12.47       700     1000      520     2100     7360     7350     2101     2102   
                                         GEOM     BASIS   MCVARS     RHF    F12ABS    EF12      RHF      RHF  

 PROGRAMS   *        TOTAL        HF       INT   CCSD(T)        HF       INT   CCSD(T)        HF       INT
 CPU TIMES  *       443.62     24.98      0.07     79.39     20.38      0.06    278.22     24.81     15.57
 REAL TIME  *       537.15 SEC
 DISK USED  *         5.23 GB      
 **********************************************************************************************************************************
 SETTING E_HF_B         =       -76.06227772  AU                              


 PROGRAM * CCSD (Closed-shell coupled cluster)     Authors: C. Hampel, H.-J. Werner, 1991, M. Deegan, P.J. Knowles, 1992

                                  CCSD-F12 implementation by  H.-J. Werner, 2007

                   Density fitting integral evaluation by F.R. Manby, 2003,2007, G. Knizia, 2010

 Basis set CC-PVTZ/JKFIT generated.      Number of basis functions:   338 
 Basis set CC-PVTZ-F12/OPTRI generated.  Number of basis functions:   396 
 Basis set AUG-CC-PVTZ/MP2FIT generated. Number of basis functions:   488 

 Convergence thresholds:  THRVAR = 1.00D-08  THRDEN = 1.00D-08

 CCSD(T)     terms to be evaluated (factor= 1.000)


 Number of core orbitals:           1 (   1 )
 Number of closed-shell orbitals:   4 (   4 )
 Number of external orbitals:     209 ( 209 )

 Molecular orbitals read from record     2102.2  Type=RHF/CANONICAL (state 1.1)

 MP2-F12 correlation treatment (H.-J. Werner, 2006)
 ==================================================

 Using MP2-F12 with ansatz 3C(FIX)

 Using projected zeroth-order Hamiltonian (+Z)

 FOCKRIB=T FOCKRIC=T FOCKRIP=T CABSP=T CABSA=T CABSK=T CABSF=T GBC=F EBC=F DMAT=T NOFIK=T NOPAO=1 SOLVE=-1  USEPAO=0
 EXCH_A= T EXCH_B= F EXCH_C= F EXCH_P= F
 
 Geminal basis:    OPTFULL  GEM_TYPE=SLATER  BETA=1.0  NGEM=6

 Optimizing Gaussian exponents for each gem_beta

 Geminal optimization for beta= 1.0000
 Weight function:   m=0, omega= 1.4646

 Augmented Hessian optimization of geminal fit. Trust ratio= 0.40000
 Convergence reached after   2 iterations. Final gradient= 8.26D-16, Step= 4.26D-06, Delta= 1.28D-09
 
 Alpha:                 0.19532     0.81920     2.85917     9.50073    35.69989   197.79328
 Coeff:                 0.27070     0.30552     0.18297     0.10986     0.06810     0.04224
 

 All pairs explicitly correlated. Number of r12-pairs:           10

 Excluding core orbitals from MO domains
 
 AO(A)-basis ORBITAL           loaded. Number of functions:     214
 RI(R)-basis CC-PVTZ-F12/OPTRI loaded. Number of functions:     396
 DF-basis CC-PVTZ/JKFIT        loaded. Number of functions:     338

 Screening thresholds:   THRAO=  1.00D-10  THRMO=  1.00D-09  THRPROD=  1.00D-09
                         THRSW=  1.00D-05  THROV=  1.00D-12  THRAOF12=   1.00D-08

 CPU time for Fock operators                      2.67 sec
 
 Construction of ABS:
 Smallest eigenvalue of S          3.86E-04  (threshold= 1.00E-08)
 Ratio eigmin/eigmax               4.96E-05  (threshold= 1.00E-09)
 Smallest eigenvalue of S kept     3.86E-04  (threshold= 3.86E-04, 0 functions deleted, 396 kept)
 
 Construction of CABS:
 Smallest eigenvalue of S          8.33E-07  (threshold= 1.00E-08)
 Ratio eigmin/eigmax               8.33E-07  (threshold= 1.00E-09)
 Smallest eigenvalue of S kept     8.33E-07  (threshold= 8.33E-07, 0 functions deleted, 396 kept)
 
 CPU time for CABS singles                        0.11 sec

 CABS-singles contribution of  -0.00096407 patched into reference energy.
 New reference energy         -76.06324179
 
 AO(A)-basis ORBITAL           loaded. Number of functions:     214
 RI(R)-basis CC-PVTZ-F12/OPTRI loaded. Number of functions:     396
 DF-basis AUG-CC-PVTZ/MP2FIT   loaded. Number of functions:     488

 Screening thresholds:   THRAO=  1.00D-10  THRMO=  1.00D-09  THRPROD=  1.00D-09
                         THRSW=  1.00D-05  THROV=  1.00D-12  THRAOF12=   1.00D-08

 CPU time for 3-index integral evaluation         5.86 sec
 CPU time for first  half transformation          0.48 sec ( 5364.3 MFLOP/sec)
 CPU time for second half transformation          0.04 sec (  731.0 MFLOP/sec)
 CPU time for fitting                             0.03 sec (39690.7 MFLOP/sec)
 CPU time for tilde quantities                    0.04 sec (39722.4 MFLOP/sec)
 CPU time for assembly                            0.22 sec (36254.9 MFLOP/sec)
 CPU time for tranop_f12                          0.28 sec (34220.1 MFLOP/sec)
 CPU time for f12 integrals (total)               7.41 sec, Elapsed time:      7.85 sec
 CPU time for f12 matrices (total)                0.08 sec, Elapsed time:      0.10 sec

 Diagonal F12 approximation with fixed coefficients:  TSING= 0.500,  TTRIP= 0.250 (scaled by -1/beta)

 DF-MP2-F12 energy corrections:
 ==============================
 Approx.                                    Singlet             Triplet             Total
 DF-MP2-F12/3*C(DX,FIX)                -0.025094421073     -0.002992395328     -0.028086816401
 DF-MP2-F12/3*C(FIX)                   -0.023329319098     -0.002707554596     -0.026036873694
 DF-MP2-F12/3C(FIX)                    -0.023259197681     -0.002804815567     -0.026064013248

 DF-MP2-F12 correlation energies:
 ================================
 Approx.                                    Singlet             Triplet             Ecorr            Total Energy
 DF-MP2                                -0.175140734403     -0.099860865958     -0.275001600361    -76.338243393738
 DF-MP2-F12/3*C(DX,FIX)                -0.200235155476     -0.102853261286     -0.303088416762    -76.366330210139
 DF-MP2-F12/3*C(FIX)                   -0.198470053501     -0.102568420554     -0.301038474055    -76.364280267432
 DF-MP2-F12/3C(FIX)                    -0.198399932084     -0.102665681525     -0.301065613609    -76.364307406986

 SCS-DF-MP2 energies (F_SING= 1.20000  F_TRIP= 0.62222  F_PARALLEL= 0.33333):
 ============================================================================
 SCS-DF-MP2                            -0.272304531213    -76.335546324590
 SCS-DF-MP2-F12/3*C(DX,FIX)            -0.304279771372    -76.367521564749
 SCS-DF-MP2-F12/3*C(FIX)               -0.301984414768    -76.365226208145
 SCS-DF-MP2-F12/3C(FIX)                -0.301960787005    -76.365202580382
 Symmetry transformation completed.

 Number of N-1 electron functions:               4
 Number of N-2 electron functions:              10
 Number of singly external CSFs:               836
 Number of doubly external CSFs:            349866
 Total number of CSFs:                      350703

 Length of J-op  integral file:              53.89 MB
 Length of K-op  integral file:              87.81 MB
 Length of 3-ext integral record:             0.00 MB

 Memory could be reduced to 60.96 Mwords without degradation in triples

 Integral transformation finished. Total CPU:   5.55 sec, npass=  1  Memory used:  26.32 MW

 Reference energy:                    -76.06324179

 Adding F12 terms to K(Cij), methodcc=6,  factor= 1.0

 ITER.      SQ.NORM     CORR.ENERGY   TOTAL ENERGY   ENERGY CHANGE        DEN1      VAR(S)    VAR(P)  DIIS     TIME  TIME/IT
   1      1.06294680    -0.27508822   -76.33833001    -0.00004648     0.00599951  0.78D-03  0.10D-02  1  1    19.63     3.87
   2      1.06639276    -0.27484075   -76.33808254     0.00024747    -0.00472378  0.14D-04  0.11D-03  2  2    23.48     4.02
   3      1.06763642    -0.27497873   -76.33822052    -0.00013798    -0.00083350  0.97D-05  0.75D-05  3  3    27.33     4.07
   4      1.06820973    -0.27500150   -76.33824330    -0.00002278    -0.00036998  0.48D-06  0.63D-06  4  4    31.20     4.10
   5      1.06830874    -0.27500001   -76.33824180     0.00000149    -0.00002257  0.15D-06  0.45D-07  5  5    35.05     4.15
   6      1.06833671    -0.27499860   -76.33824040     0.00000141    -0.00000432  0.16D-07  0.46D-08  6  6    38.91     4.15
   7      1.06834469    -0.27499818   -76.33823998     0.00000042    -0.00000174  0.14D-08  0.64D-09  6  1    42.77     4.16
   8      1.06834641    -0.27499818   -76.33823997     0.00000000    -0.00000014  0.22D-09  0.77D-10  6  2    46.60     4.16
   9      1.06834700    -0.27499819   -76.33823998    -0.00000001     0.00000005  0.19D-10  0.10D-10  6  3    50.44     4.16

 Norm of t1 vector:      0.03672225      S-energy:    -0.00000005      T1 diagnostic:  0.00918056
                                                                       D1 diagnostic:  0.01852107

 Adding energy correction from Wij-K(Fij), methodcc=6  factor= 1.0
 
  CCSD correlation energy              -0.274998188290
  MP2-F12 correction (uncoupled)       -0.024940189416
  C*T doubles correction               -0.000835887930
  f12b correction                       0.004281780072

 Total CPU time for triples:     21.73 sec

  Ecorr(MP2)                           -0.275041740638
  Ecorr(MP2-F12)                       -0.301105753886
  Scale factor for triples energy       1.094763846345


 RESULTS
 =======

  Reference energy                    -76.062277724743
  F12 singles correction               -0.000964068634

 F12 singles corrections added to reference energy

  New reference energy                -76.063241793377

  F12a singlet correction              -0.023078198523
  F12a triplet correction              -0.002697878823
  F12a total correction                -0.025776077346

 F12a corrections for ansatz F12/3C(FIX) added to CCSD energy
 
  CCSD-F12a singlet pair energy        -0.209901452477
  CCSD-F12a triplet pair energy        -0.090872759903
  CCSD-F12a correlation energy         -0.300774265636

  Triples (T) contribution (scaled)    -0.009820446382
  Total correlation energy             -0.310594712018

  CCSD-F12a total energy              -76.364016059013
  CCSD[T]-F12a energy                 -76.374179171593
  CCSD-T-F12a energy                  -76.373686775319
 !CCSD(T)-F12a total energy           -76.373836505395

 F12b corrections for ansatz F12/3C(FIX) added to CCSD(T)-F12a energy

  CCSD-F12b singlet pair energy        -0.205929665033
  CCSD-F12b triplet pair energy        -0.090562767276
  CCSD-F12b correlation energy         -0.296492485564

  Triples (T) contribution (scaled)    -0.009820446382
  Total correlation energy             -0.306312931947

  CCSD-F12b total energy              -76.359734278941
  CCSD[T]-F12b energy                 -76.369897391521
  CCSD-T-F12b energy                  -76.369404995247
 !CCSD(T)-F12b total energy           -76.369554725324

 Timing summary (sec):

 STEP                 CPU(USER)    SYS     CPU(TOT)    WALL
 Transformation          5.58      0.67      6.25      6.28
 CCSD iterations        34.44      2.97     37.41     37.58
 Triples                21.73      0.35     22.08     22.08
 MP2-F12                10.43      0.42     10.85     11.75
 F12b energy             3.36      0.27      3.63      3.64

 Program statistics:

 Available memory in ccsd:              2999999786
 Min. memory needed in ccsd:               1609972
 Max. memory used in ccsd:                 1864434
 Max. memory used in cckext:               1252381 (10 integral passes)



 **********************************************************************************************************************************
 DATASETS  * FILE   NREC   LENGTH (MB)   RECORD NAMES
              1      20     2072.49       500      610      700      900      950      970     1000      129      960     1100   
                                          VAR    BASINP    GEOM    SYMINP    ZMAT    AOBASIS   BASIS     P2S    ABASIS      S 
                                         1400     1410     1200     1210     1080     1600     1650     1300     1700     1380   
                                           T        V       H0       H01     AOSYM     SMH    MOLCAS    ERIS     OPER     JKOP   

              2       8       12.47       700     1000      520     2100     7360     7350     2101     2102   
                                         GEOM     BASIS   MCVARS     RHF    F12ABS    EF12      RHF      RHF  

 PROGRAMS   *        TOTAL   CCSD(T)        HF       INT   CCSD(T)        HF       INT   CCSD(T)        HF       INT
 CPU TIMES  *       519.19     75.57     24.98      0.07     79.39     20.38      0.06    278.22     24.81     15.57
 REAL TIME  *       629.44 SEC
 DISK USED  *         5.23 GB      
 **********************************************************************************************************************************
 SETTING E_F12_B(1)     =       -76.37383651  AU                              
 SETTING E_F12_B(2)     =       -76.36955473  AU                              
 SETTING E_INT_HF       =         0.00070223  AU                              
 SETTING E_INT_F12(1)   =        -0.00022531  AU                              
 SETTING E_INT_F12(2)   =        -0.00021717  AU                              
 E_INT_HF         =         0.00070223 AU
 E_INT_F12(1:2)   = [      -0.00022531    -0.00021717] AU

 CCSD(T)-F12/cc-pVTZ-F12 energy=    -76.369554725324

     CCSD(T)-F12        HF-SCF       CCSD(T)-F12        HF-SCF       CCSD(T)-F12        HF-SCF  
    -76.36955473    -76.06227772    -40.45406172    -40.21549104   -116.82383361   -116.27706653
 **********************************************************************************************************************************
 Molpro calculation terminated
 Variable memory released
