
 Primary working directories    : /scratch.ssd/kelum/job_380608.cerit-pbs.cerit-sc.cz/molpro.12RdYnqmhu
 Secondary working directories  : /scratch.ssd/kelum/job_380608.cerit-pbs.cerit-sc.cz/molpro.12RdYnqmhu
 Wavefunction directory         : /scratch.ssd/kelum/job_380608.cerit-pbs.cerit-sc.cz/
 Main file repository           : /scratch.ssd/kelum/job_380608.cerit-pbs.cerit-sc.cz/molpro.12RdYnqmhu/

 id        : karlovklimes

 Nodes             nprocs
 zelda2.cerit-sc.cz    4

 Using customized tuning parameters: mindgm=1; mindgv=20; mindgc=4; mindgr=1; noblas=0; minvec=7
 default implementation of scratch files=sf  


 Variables initialized (934), CPU time= 0.01 sec
                                                                                 !gdirect
 memory,4000,m
 gthresh,orbital=1d-10,energy=1d-10
 
 symmetry,nosym
 angstrom
 geometry={
 O10        -3.744400000000      0.396600000000     -2.499800000000
 H19        -4.617400000000      0.462100000000     -2.021700000000
 H20        -3.968900000000      0.126100000000     -3.399000000000
 C1        -3.277200000000      1.482500000000      1.271900000000
 H41        -2.464000000000      0.899600000000      1.651000000000
 H42        -3.160800000000      2.501000000000      1.578500000000
 H43        -4.201800000000      1.099200000000      1.650100000000
 H44        -3.268500000000      1.421000000000      0.203700000000
 }
 
 nkerna=1
 nkernb=1
 
 gf=0
 sing=1
 thrdum=1d-4
 gridthr=1d-8
 
 basis={
 set,orbital
 default,av5z
 set,jkfit
 default,av5z/jkfit
 set,mp2fit
 default,av5z/mp2fit
 set,ri
 default,av5z/optri
 set,tddft
 default,av5z/mp2fit
 }
 
 proc set_monomer1
 dummy,4,5,6,7,8
 endproc
 
 proc set_monomer2
 dummy,1,2,3
 endproc
 
                                                                                 !12 energy
 {hf,accu=1.d-16}
 {ccsd(t)-f12,df_basis=mp2fit,df_basis_exch=jkfit,ri_basis=ri,scale_trip=1,THRAOF12=1d-10}
 
 set_monomer1
 {hf,accu=1.d-16}
 {ccsd(t)-f12,df_basis=mp2fit,df_basis_exch=jkfit,ri_basis=ri,scale_trip=1,THRAOF12=1d-10}
 
 set_monomer2
 {hf,accu=1.d-16}
 {ccsd(t)-f12,df_basis=mp2fit,df_basis_exch=jkfit,ri_basis=ri,scale_trip=1,THRAOF12=1d-10}
 
 Commands  initialized (763), CPU time= 0.01 sec, 617 directives.
 Default parameters read. Elapsed time= 0.25 sec

 Checking input...
 Passed
1


                                         ***  PROGRAM SYSTEM MOLPRO  ***
                                       Copyright, TTI GmbH Stuttgart, 2015
                                    Version 2019.2 linked Jun  8 2019 11:26:33


 **********************************************************************************************************************************
 LABEL *                                                                                 
  64 bit mpp version                                                                     DATE: 24-Mar-20          TIME: 11:25:55  
 **********************************************************************************************************************************

 SHA1:             8135a10abc80eafa5b3ae28ffc55be4890dc4c84
 **********************************************************************************************************************************

 THRESHOLDS:

 ZERO    =  1.00D-12  ONEINT  =  1.00D-12  TWOINT  =  1.00D-11  PREFAC  =  1.00D-14  XXXXXX  =  1.00D-09  EORDER  =  1.00D-04
 ENERGY  =  1.00D-10  ETEST   =  0.00D+00  EDENS   =  0.00D+00  THRDEDEF=  1.00D-06  GRADIENT=  1.00D-02  STEP    =  1.00D-03
 ORBITAL =  1.00D-10  CIVEC   =  1.00D-05  COEFF   =  1.00D-04  PRINTCI =  5.00D-02  PUNCHCI =  9.90D+01  OPTGRAD =  3.00D-04
 OPTENERG=  1.00D-06  OPTSTEP =  3.00D-04  THRGRAD =  1.00D-10  COMPRESS=  1.00D-11  VARMIN  =  1.00D-07  VARMAX  =  1.00D-03
 THRDOUB =  0.00D+00  THRDIV  =  1.00D-05  THRRED  =  1.00D-07  THRPSP  =  1.00D+00  THRDC   =  1.00D-10  THRCS   =  1.00D-10
 THRNRM  =  1.00D-08  THREQ   =  0.00D+00  THRDE   =  1.00D+00  THRREF  =  1.00D-05  SPARFAC =  1.00D+00  THRDLP  =  1.00D-07
 THRDIA  =  1.00D-10  THRDLS  =  1.00D-07  THRGPS  =  0.00D+00  THRKEX  =  0.00D+00  THRDIS  =  2.00D-01  THRVAR  =  1.00D-10
 THRLOC  =  1.00D-06  THRGAP  =  1.00D-06  THRLOCT = -1.00D+00  THRGAPT = -1.00D+00  THRORB  =  1.00D-06  THRMLTP =  0.00D+00
 THRCPQCI=  1.00D-10  KEXTA   =  0.00D+00  THRCOARS=  0.00D+00  SYMTOL  =  1.00D-06  GRADTOL =  1.00D-06  THROVL  =  1.00D-08
 THRORTH =  1.00D-08  GRID    =  1.00D-06  GRIDMAX =  1.00D-03  DTMAX   =  0.00D+00  THROCCDE=  1.00D-01  THROCCDE=  1.00D-01
 THRPRINT=  2.50D-01


 Variable memory set to 4000000000 words,  buffer space 

 ZSYMEL=NOSYM
 ZUNIT=ANG


Geometry recognized as XYZ

 SETTING NKERNA         =         1.00000000                                  
 SETTING NKERNB         =         1.00000000                                  
 SETTING GF             =     0.00000000D+00                                  
 SETTING SING           =         1.00000000                                  
 SETTING THRDUM         =     1.00000000D-04                                  
 SETTING GRIDTHR        =     1.00000000D-08                                  
 SETTING BASIS          =    AV5Z


 Recomputing integrals since basis changed


 Using spherical harmonics

 Library entry O      S aug-cc-pV5Z          selected for orbital group  1
 Library entry O      P aug-cc-pV5Z          selected for orbital group  1
 Library entry O      D aug-cc-pV5Z          selected for orbital group  1
 Library entry O      F aug-cc-pV5Z          selected for orbital group  1
 Library entry O      G aug-cc-pV5Z          selected for orbital group  1
 Library entry O      H aug-cc-pV5Z          selected for orbital group  1
 Library entry H      S aug-cc-pV5Z          selected for orbital group  2
 Library entry H      P aug-cc-pV5Z          selected for orbital group  2
 Library entry H      D aug-cc-pV5Z          selected for orbital group  2
 Library entry H      F aug-cc-pV5Z          selected for orbital group  2
 Library entry H      G aug-cc-pV5Z          selected for orbital group  2
 Library entry C      S aug-cc-pV5Z          selected for orbital group  3
 Library entry C      P aug-cc-pV5Z          selected for orbital group  3
 Library entry C      D aug-cc-pV5Z          selected for orbital group  3
 Library entry C      F aug-cc-pV5Z          selected for orbital group  3
 Library entry C      G aug-cc-pV5Z          selected for orbital group  3
 Library entry C      H aug-cc-pV5Z          selected for orbital group  3


 PROGRAM * SEWARD (Integral evaluation for generally contracted gaussian basis sets)     Author: Roland Lindh, 1990

 Geometry written to block  1 of record 700


 Point group  C1  



 ATOMIC COORDINATES

 NR  ATOM    CHARGE       X              Y              Z

   1  O10     8.00   -7.075890501    0.749465381   -4.723937366
   2  H19     1.00   -8.725621408    0.873242442   -3.820459306
   3  H20     1.00   -7.500134016    0.238294464   -6.423179097
   4  C1      6.00   -6.193010455    2.801518980    2.403542658
   5  H41     1.00   -4.656285171    1.699997622    3.119937832
   6  H42     1.00   -5.973046335    4.726205038    2.982932688
   7  H43     1.00   -7.940251230    2.077186956    3.118237078
   8  H44     1.00   -6.176569838    2.685300823    0.384937212

 Bond lengths in Bohr (Angstrom)

 1-2  1.884994809  1-3  1.824472726  4-5  2.021904040  4-6  2.022002335  4-7  2.021953343
     ( 0.997496296)     ( 0.965469388)     ( 1.069945541)     ( 1.069997556)     ( 1.069971630)

 4-8  2.022015060
     ( 1.070004290)

 Bond angles

  2-1-3  105.14667399   5-4-6  109.53398059   5-4-7  109.65604535   5-4-8  108.43490854

  6-4-7  109.49436728   6-4-8  109.86987750   7-4-8  109.83468330

 NUCLEAR CHARGE:                   20
 NUMBER OF PRIMITIVE AOS:        1046
 NUMBER OF SYMMETRY AOS:          786
 NUMBER OF CONTRACTIONS:          734   (  734A   )
 NUMBER OF CORE ORBITALS:           2   (    2A   )
 NUMBER OF VALENCE ORBITALS:       14   (   14A   )


 NUCLEAR REPULSION ENERGY   35.92323390


 Basis set:  JKFIT                   
 Basis size:  1104
 Attributes:
 Sphericals:   T
 Basis set:  MP2FIT                  
 Basis size:  1246
 Attributes:
 Sphericals:   T
 Basis set:  RI                      
 Basis size:   730
 Attributes:
 Sphericals:   T
 Basis set:  TDDFT                   
 Basis size:  1246
 Attributes:
 Sphericals:   T

 **********************************************************************************************************************************


 Eigenvalues of metric

         1 0.162E-05 0.211E-05 0.329E-05 0.422E-05 0.530E-05 0.654E-05 0.838E-05 0.939E-05


 Contracted 2-electron integrals neglected if value below      1.0D-14
 AO integral compression algorithm  1   Integral accuracy      1.0D-14

     139685.528 MB (compressed) written to integral file ( 44.2%)

     Node minimum: 32511.099 MB, node maximum: 37047.763 MB


 NUMBER OF SORTED TWO-ELECTRON INTEGRALS: 9095363064.     BUFFER LENGTH:  32768
 NUMBER OF SEGMENTS: 190  SEGMENT LENGTH:   47999780      RECORD LENGTH: 131072

 Memory used in sort:      48.16 MW

 SORT1 READ 39470497185. AND WROTE  6419041585. INTEGRALS IN  73561 RECORDS. CPU TIME:   501.89 SEC, REAL TIME:   605.37 SEC
 SORT2 READ 25685737943. AND WROTE 36381317385. INTEGRALS IN 496080 RECORDS. CPU TIME:   133.70 SEC, REAL TIME:   208.27 SEC

 Node minimum:  9095228192.  Node maximum:  9095430501. integrals

 OPERATOR DM      FOR CENTER  0  COORDINATES:    0.000000    0.000000    0.000000


 **********************************************************************************************************************************
 DATASETS  * FILE   NREC   LENGTH (MB)   RECORD NAMES
              1      18       49.80       500      610      700      900      950      970     1000      129      960     1100   
                                          VAR    BASINP    GEOM    SYMINP    ZMAT    AOBASIS   BASIS     P2S    ABASIS      S 
                                         1400     1410     1200     1210     1080     1600     1650     1700   
                                           T        V       H0       H01     AOSYM     SMH    MOLCAS    OPER   

 PROGRAMS   *        TOTAL       INT
 CPU TIMES  *      1387.87   1387.66
 REAL TIME  *      1608.67 SEC
 DISK USED  *        50.44 MB (local),      447.76 GB (total)
 GA USED    *         0.00 MB       (max)       0.00 MB       (current)
 **********************************************************************************************************************************


 PROGRAM * RHF-SCF (CLOSED SHELL)       Authors: W. Meyer, H.-J. Werner


 NUMBER OF ELECTRONS:      10+   10-    SPACE SYMMETRY=1    SPIN SYMMETRY: Singlet 
 CONVERGENCE THRESHOLDS:    1.00E-08 (Density)    1.00E-11 (Energy)
 MAX. NUMBER OF ITERATIONS:       60
 INTERPOLATION TYPE:            DIIS
 INTERPOLATION STEPS:              2 (START)      1 (STEP)
 LEVEL SHIFTS:                  0.00 (CLOSED)  0.00 (OPEN) 



 Orbital guess generated from atomic densities. Full valence occupancy:   16

 Molecular orbital dump at record        2100.2

 Initial occupancy:  10

 ITERATION    DDIFF          GRAD             ENERGY        2-EL.EN.            DIPOLE MOMENTS         DIIS   ORB.
    1      0.000D+00      0.000D+00      -116.22240317    157.547731   -1.06327   -0.20037   -0.40357    0    start
    2      0.000D+00      0.291D-02      -116.26638901    152.533821   -0.58091   -0.12720   -0.28438    1    diag
    3      0.162D-02      0.171D-02      -116.28004158    154.615643   -0.70364   -0.14565   -0.31713    2    diag
    4      0.559D-03      0.255D-03      -116.28070347    154.502198   -0.69276   -0.14370   -0.31451    3    diag
    5      0.126D-03      0.750D-04      -116.28077345    154.497739   -0.69192   -0.14360   -0.31514    4    diag
    6      0.518D-04      0.182D-04      -116.28077741    154.503345   -0.69101   -0.14343   -0.31501    5    diag
    7      0.184D-04      0.370D-05      -116.28077765    154.501717   -0.69098   -0.14341   -0.31504    6    diag
    8      0.543D-05      0.945D-06      -116.28077767    154.501901   -0.69089   -0.14340   -0.31504    7    diag
    9      0.127D-05      0.224D-06      -116.28077767    154.501874   -0.69087   -0.14340   -0.31504    8    diag
   10      0.322D-06      0.265D-07      -116.28077767    154.501875   -0.69087   -0.14340   -0.31504    9    orth
   11      0.619D-07      0.602D-08      -116.28077767    154.501876   -0.69087   -0.14340   -0.31504    9    diag
   12      0.646D-08      0.154D-08      -116.28077767    154.501876   -0.69087   -0.14340   -0.31504    0    orth

 Final occupancy:  10

 !RHF STATE  1.1 Energy              -116.280777674217
 Nuclear energy                        35.92323390
 One-electron energy                 -229.45494962
 Two-electron energy                   77.25093805
 Virial quotient                       -1.00074021
 !RHF STATE  1.1 Dipole moment         -0.69086643    -0.14339564    -0.31503768
 Dipole moment /Debye                  -1.75589229    -0.36445148    -0.80069348

 Orbital energies:

         1.1          2.1          3.1          4.1          5.1          6.1          7.1          8.1          9.1         10.1
    -20.568851   -11.190313    -1.341442    -0.945269    -0.707366    -0.580772    -0.546142    -0.545187    -0.541645    -0.509550

        11.1         12.1
      0.019690     0.031690


 HOMO     10.1    -0.509550 =     -13.8656eV
 LUMO     11.1     0.019690 =       0.5358eV
 LUMO-HOMO         0.529241 =      14.4014eV


 **********************************************************************************************************************************
 DATASETS  * FILE   NREC   LENGTH (MB)   RECORD NAMES
              1      18       49.80       500      610      700      900      950      970     1000      129      960     1100   
                                          VAR    BASINP    GEOM    SYMINP    ZMAT    AOBASIS   BASIS     P2S    ABASIS      S 
                                         1400     1410     1200     1210     1080     1600     1650     1700   
                                           T        V       H0       H01     AOSYM     SMH    MOLCAS    OPER   

              2       4       13.79       700     1000      520     2100   
                                         GEOM     BASIS   MCVARS     RHF  

 PROGRAMS   *        TOTAL    HF-SCF       INT
 CPU TIMES  *      3375.62   1987.75   1387.66
 REAL TIME  *      3830.74 SEC
 DISK USED  *       102.61 MB (local),      447.97 GB (total)
 SF USED    *         2.16 MB
 GA USED    *         0.00 MB       (max)       0.00 MB       (current)
 **********************************************************************************************************************************

 Basis set:  JKFIT                   
 Basis size:  1104
 Attributes:
 Sphericals:   T
 Basis set:  MP2FIT                  
 Basis size:  1246
 Attributes:
 Sphericals:   T
 Basis set:  RI                      
 Basis size:   730
 Attributes:
 Sphericals:   T
 Basis set:  TDDFT                   
 Basis size:  1246
 Attributes:
 Sphericals:   T

 PROGRAM * CCSD (Closed-shell coupled cluster)     Authors: C. Hampel, H.-J. Werner, 1991, M. Deegan, P.J. Knowles, 1992

                                  CCSD-F12 implementation by  H.-J. Werner, 2007

                   Density fitting integral evaluation by F.R. Manby, 2003,2007, G. Knizia, 2010



 Convergence thresholds:  THRVAR = 1.00D-08  THRDEN = 1.00D-10

 CCSD(T)     terms to be evaluated (factor= 1.000)


 Number of core orbitals:           2 (   2 )
 Number of closed-shell orbitals:   8 (   8 )
 Number of external orbitals:     724 ( 724 )

 Molecular orbitals read from record     2100.2  Type=RHF/CANONICAL (state 1.1)

 MP2-F12 correlation treatment (H.-J. Werner, 2006)
 ==================================================

 Using MP2-F12 with ansatz 3C(FIX)

 Using projected zeroth-order Hamiltonian (+Z)

 FOCKRIB=T FOCKRIC=T FOCKRIP=T CABSP=T CABSA=T CABSK=T CABSF=T GBC=F EBC=F DMAT=T NOFIK=T NOPAO=1 SOLVE=-1  USEPAO=0
 EXCH_A= T EXCH_B= F EXCH_C= F EXCH_P= F

 Geminal basis:    OPTFULL  GEM_TYPE=SLATER  BETA=1.0  NGEM=6

 Optimizing Gaussian exponents for each gem_beta

 Geminal optimization for beta= 1.0000
 Weight function:   m=0, omega= 1.4646

 Augmented Hessian optimization of geminal fit. Trust ratio= 0.40000
 Convergence reached after   2 iterations. Final gradient= 8.53D-16, Step= 4.26D-06, Delta= 1.28D-09

 Alpha:                 0.19532     0.81920     2.85917     9.50073    35.69989   197.79328
 Coeff:                 0.27070     0.30552     0.18297     0.10986     0.06810     0.04224


 All pairs explicitly correlated. Number of r12-pairs:           36

 Excluding core orbitals from MO domains

 AO(A)-basis ORBITAL           loaded. Number of functions:     734
 RI(R)-basis RI                loaded. Number of functions:     730
 DF-basis JKFIT                loaded. Number of functions:    1104

 Screening thresholds:   THRAO=  1.00D-10  THRMO=  1.00D-09  THRPROD=  1.00D-09
                         THRSW=  1.00D-05  THROV=  1.00D-12  THRAOF12= 1.00D-10

 CPU time for Fock operators                     10.16 sec

 Construction of ABS:
 Smallest eigenvalue of S          2.25E-04  (threshold= 1.00E-08)
 Ratio eigmin/eigmax               3.92E-05  (threshold= 1.00E-09)
 Smallest eigenvalue of S kept     2.25E-04  (threshold= 2.25E-04, 0 functions deleted, 730 kept)

 Construction of CABS:
 Smallest eigenvalue of S          9.13E-09  (threshold= 1.00E-08)
 Ratio eigmin/eigmax               9.13E-09  (threshold= 1.00E-09)
 Smallest eigenvalue of S kept     7.86E-08  (threshold= 7.86E-08, 1 functions deleted, 729 kept)

 CPU time for CABS singles                        1.10 sec

 CABS-singles contribution of  -0.00007929 patched into reference energy.
 New reference energy        -116.28085696

 AO(A)-basis ORBITAL           loaded. Number of functions:     734
 RI(R)-basis RI                loaded. Number of functions:     730
 DF-basis MP2FIT               loaded. Number of functions:    1246

 Screening thresholds:   THRAO=  1.00D-10  THRMO=  1.00D-09  THRPROD=  1.00D-09
                         THRSW=  1.00D-05  THROV=  1.00D-12  THRAOF12= 1.00D-10

 CPU time for 3-index integral evaluation        28.59 sec
 CPU time for first  half transformation          3.70 sec ( 8183.0 MFLOP/sec)
 CPU time for second half transformation          0.14 sec ( 1887.2 MFLOP/sec)
 CPU time for sorting                             0.36 sec
 CPU time for fitting                             0.28 sec (33135.1 MFLOP/sec)
 CPU time for tilde quantities                    0.41 sec (33594.9 MFLOP/sec)
 CPU time for assembly                            3.13 sec (42014.6 MFLOP/sec)
 CPU time for tranop_f12                          4.29 sec (37024.5 MFLOP/sec)
 CPU time for f12 integrals (total)              46.66 sec, Elapsed time:     51.28 sec
 F12-matrices built in  4 passes.
 F12-matrices built in  4 passes.
 F12-matrices built in  4 passes.
 F12-matrices built in  4 passes.
 FC-matrix built in  4 passes.
 CPU time for f12 matrices (total)                3.92 sec, Elapsed time:      4.24 sec

 Diagonal F12 approximation with fixed coefficients:  TSING= 0.500,  TTRIP= 0.250 (scaled by -1/beta)

 DF-MP2-F12 energy corrections:
 ==============================
 Approx.                                    Singlet             Triplet             Total
 DF-MP2-F12/3*C(DX,FIX)                -0.011200181015     -0.000786674149     -0.011986855164
 DF-MP2-F12/3*C(FIX)                   -0.010391209433     -0.000515683003     -0.010906892436
 DF-MP2-F12/3C(FIX)                    -0.010504287758     -0.000531105205     -0.011035392963

 DF-MP2-F12 correlation energies:
 ================================
 Approx.                                    Singlet             Triplet             Ecorr            Total Energy
 DF-MP2                                -0.350373560938     -0.159725323526     -0.510098884464   -116.790955849207
 DF-MP2-F12/3*C(DX,FIX)                -0.361573741953     -0.160511997675     -0.522085739628   -116.802942704371
 DF-MP2-F12/3*C(FIX)                   -0.360764770370     -0.160241006529     -0.521005776900   -116.801862741643
 DF-MP2-F12/3C(FIX)                    -0.360877848696     -0.160256428731     -0.521134277427   -116.801991242170

 SCS-DF-MP2 energies (F_SING= 1.20000  F_TRIP= 0.62222  F_PARALLEL= 0.33333):
 ============================================================================
 SCS-DF-MP2                            -0.519832918875   -116.800689883618
 SCS-DF-MP2-F12/3*C(DX,FIX)            -0.533762622230   -116.814619586973
 SCS-DF-MP2-F12/3*C(FIX)               -0.532623239618   -116.813480204361
 SCS-DF-MP2-F12/3C(FIX)                -0.532768529645   -116.813625494389
 Symmetry transformation completed.

 Number of N-1 electron functions:               8
 Number of N-2 electron functions:              36
 Number of singly external CSFs:              5792
 Number of doubly external CSFs:          16776528
 Total number of CSFs:                    16782321

 Pair and operator lists are different

 Length of J-op  integral file:               1.47 GB
 Length of K-op  integral file:               2.18 GB
 Length of 3-ext integral record:             0.00 MB

 For full I/O caching in triples, increase memory by 34.16 Mwords to 4034.21 Mwords.

 Integral transformation finished. Total CPU:1068.71 sec, npass=  1  Memory used:1826.21 MW

 Reference energy:                   -116.28085696

 Adding F12 terms to K(Cij), methodcc=6,  factor= 1.0

 ITER.      SQ.NORM     CORR.ENERGY   TOTAL ENERGY   ENERGY CHANGE        DEN1      VAR(S)    VAR(P)  DIIS     TIME  TIME/IT
   1      1.13444909    -0.52202432  -116.80288129    -0.01191257     0.00004221  0.14D-02  0.20D-02  1  1  1434.72   317.30
   2      1.14272536    -0.52306888  -116.80392584    -0.00104455    -0.01024036  0.32D-04  0.25D-03  2  2  1743.90   323.85
   3      1.14596032    -0.52323458  -116.80409154    -0.00016570    -0.00234425  0.11D-04  0.14D-04  3  3  2060.25   328.87
   4      1.14692053    -0.52324007  -116.80409704    -0.00000550    -0.00053110  0.68D-06  0.13D-05  4  4  2387.52   334.08
   5      1.14708765    -0.52324204  -116.80409900    -0.00000197    -0.00004151  0.20D-06  0.93D-07  5  5  2695.12   333.09
   6      1.14713315    -0.52323932  -116.80409629     0.00000271    -0.00000813  0.22D-07  0.80D-08  6  6  3018.54   335.37
   7      1.14714404    -0.52323812  -116.80409508     0.00000121    -0.00000277  0.23D-08  0.97D-09  6  2  3323.59   334.14
   8      1.14714688    -0.52323789  -116.80409485     0.00000023    -0.00000038  0.31D-09  0.95D-10  6  1  3632.53   333.84
   9      1.14714774    -0.52323785  -116.80409482     0.00000003    -0.00000003  0.25D-10  0.16D-10  6  3  3948.54   334.28
  10      1.14714786    -0.52323786  -116.80409483    -0.00000001     0.00000010  0.25D-11  0.17D-11  6  4  4253.12   333.57
  11      1.14714783    -0.52323787  -116.80409483    -0.00000001     0.00000007  0.37D-12  0.23D-12  6  5  4573.46   334.29
  12      1.14714781    -0.52323787  -116.80409483    -0.00000000     0.00000002  0.77D-13  0.31D-13  6  6  4885.04   334.38
  13      1.14714779    -0.52323787  -116.80409483    -0.00000000     0.00000001  0.16D-13  0.41D-14  6  2  5215.54   335.86
  14      1.14714778    -0.52323787  -116.80409483    -0.00000000     0.00000000  0.26D-14  0.86D-15  6  1  5511.03   334.51
  15      1.14714778    -0.52323787  -116.80409483    -0.00000000     0.00000000  0.33D-15  0.14D-15  6  3  5802.91   332.99
  16      1.14714778    -0.52323787  -116.80409484    -0.00000000    -0.00000000  0.53D-16  0.23D-16  6  4  6093.23   331.66
  17      1.14714778    -0.52323787  -116.80409484    -0.00000000    -0.00000000  0.17D-16  0.64D-17  6  5  6410.84   332.18

 Norm of t1 vector:      0.04954228      S-energy:    -0.00000000      T1 diagnostic:  0.00875792
                                                                       D1 diagnostic:  0.01903508

 Adding energy correction from Wij-K(Fij), methodcc=6  factor= 1.0

  CCSD correlation energy              -0.523237870268
  MP2-F12 correction (uncoupled)       -0.010853418987
  C*T doubles correction               -0.000161714103
  f12b correction                       0.002686051897

   CPU time for triples:   1932.13 sec for i =  1 -  6 /  8 (~  44.6 % done)
   CPU time for triples:   2592.05 sec for i =  7 -  8 /  8 (  100.0 % done)

 Total CPU time for triples:   4617.49 sec

  Ecorr(MP2)                           -0.510111753990
  Ecorr(MP2-F12)                       -0.521147146953
  Scale factor for triples energy       1.021633285014


 RESULTS
 =======

  Reference energy                   -116.280777674220
  F12 singles correction               -0.000079290523

 F12 singles corrections added to reference energy

  New reference energy               -116.280856964743

  F12a singlet correction              -0.010443462719
  F12a triplet correction              -0.000571670372
  F12a total correction                -0.011015133090

 F12a corrections for ansatz F12/3C(FIX) added to CCSD energy

  CCSD-F12a singlet pair energy        -0.387735900332
  CCSD-F12a triplet pair energy        -0.146517102771
  CCSD-F12a correlation energy         -0.534253003358

  Triples (T) contribution (scaled)    -0.017308847175
  Total correlation energy             -0.551561850533

  CCSD-F12a total energy             -116.815109968101
  CCSD[T]-F12a energy                -116.832976652882
  CCSD-T-F12a energy                 -116.832208909456
 !CCSD(T)-F12a total energy          -116.832418815276

 F12b corrections for ansatz F12/3C(FIX) added to CCSD(T)-F12a energy

  CCSD-F12b singlet pair energy        -0.385142616015
  CCSD-F12b triplet pair energy        -0.146424335192
  CCSD-F12b correlation energy         -0.531566951461

  Triples (T) contribution (scaled)    -0.017308847175
  Total correlation energy             -0.548875798636

  CCSD-F12b total energy             -116.812423916205
  CCSD[T]-F12b energy                -116.830290600985
  CCSD-T-F12b energy                 -116.829522857560
 !CCSD(T)-F12b total energy          -116.829732763379

 Timing summary (sec):

 STEP                 CPU(USER)    SYS     CPU(TOT)    WALL
 Transformation       1070.03     48.23   1118.26   1122.34
 CCSD iterations      5275.29    353.52   5628.81   5647.62
 Triples              4617.49     42.77   4660.26   4675.81
 MP2-F12                65.72      5.92     71.64     72.56
 F12b energy           266.42     14.26    280.68    281.62

 Program statistics:

 Available memory in ccsd:              3999999554
 Min. memory needed in ccsd:              48689265
 Max. memory used in ccsd:                63255345
 Max. memory used in cckext:              42753482 (18 integral passes)



 **********************************************************************************************************************************
 DATASETS  * FILE   NREC   LENGTH (MB)   RECORD NAMES
              1      19    12452.16       500      610      700      900      950      970     1000      129      960     1100   
                                          VAR    BASINP    GEOM    SYMINP    ZMAT    AOBASIS   BASIS     P2S    ABASIS      S 
                                         1400     1410     1200     1210     1080     1600     1650     1700     1380   
                                           T        V       H0       H01     AOSYM     SMH    MOLCAS    OPER     JKOP   

              2       6       24.60       700     1000      520     2100     7360     7350   
                                         GEOM     BASIS   MCVARS     RHF    F12ABS    EF12   

 PROGRAMS   *        TOTAL   CCSD(T)    HF-SCF       INT
 CPU TIMES  *     14670.80  11295.18   1987.75   1387.66
 REAL TIME  *     15634.37 SEC
 DISK USED  *        14.29 GB (local),      499.28 GB (total)
 SF USED    *        17.68 GB
 GA USED    *         4.87 MB       (max)       0.00 MB       (current)
 **********************************************************************************************************************************

 Running procedure: SET_MONOMER1

 Dummy atoms: C1  H41  H42  H43  H44


 Recomputing one-electron integrals since nuclear charges changed


 PROGRAM * SEWARD (Integral evaluation for generally contracted gaussian basis sets)     Author: Roland Lindh, 1990

 Geometry written to block  1 of record 700


 Point group  C1  



 ATOMIC COORDINATES

 NR  ATOM    CHARGE       X              Y              Z

   1  O10     8.00   -7.075890501    0.749465381   -4.723937366
   2  H19     1.00   -8.725621408    0.873242442   -3.820459306
   3  H20     1.00   -7.500134016    0.238294464   -6.423179097
   4  C1      0.00   -6.193010455    2.801518980    2.403542658
   5  H41     0.00   -4.656285171    1.699997622    3.119937832
   6  H42     0.00   -5.973046335    4.726205038    2.982932688
   7  H43     0.00   -7.940251230    2.077186956    3.118237078
   8  H44     0.00   -6.176569838    2.685300823    0.384937212

 Bond lengths in Bohr (Angstrom)

 1-2  1.884994809  1-3  1.824472726  4-5  2.021904040  4-6  2.022002335  4-7  2.021953343
     ( 0.997496296)     ( 0.965469388)     ( 1.069945541)     ( 1.069997556)     ( 1.069971630)

 4-8  2.022015060
     ( 1.070004290)

 Bond angles

  2-1-3  105.14667399   5-4-6  109.53398059   5-4-7  109.65604535   5-4-8  108.43490854

  6-4-7  109.49436728   6-4-8  109.86987750   7-4-8  109.83468330

 NUCLEAR CHARGE:                   10
 NUMBER OF PRIMITIVE AOS:        1046
 NUMBER OF SYMMETRY AOS:          786
 NUMBER OF CONTRACTIONS:          734   (  734A   )
 NUMBER OF CORE ORBITALS:           1   (    1A   )
 NUMBER OF VALENCE ORBITALS:        6   (    6A   )

 MOLECULE CHANGED: INITIALIZING OCCUPATION AND DUMP RECORDS


 NUCLEAR REPULSION ENERGY    8.96831117

 Basis set:  JKFIT                   
 Basis size:  1104
 Attributes:
 Sphericals:   T
 Basis set:  MP2FIT                  
 Basis size:  1246
 Attributes:
 Sphericals:   T
 Basis set:  RI                      
 Basis size:   730
 Attributes:
 Sphericals:   T
 Basis set:  TDDFT                   
 Basis size:  1246
 Attributes:
 Sphericals:   T

 Eigenvalues of metric

         1 0.162E-05 0.211E-05 0.329E-05 0.422E-05 0.530E-05 0.654E-05 0.838E-05 0.939E-05


 Contracted 2-electron integrals neglected if value below      1.0D-14

 OPERATOR DM      FOR CENTER  0  COORDINATES:    0.000000    0.000000    0.000000


 **********************************************************************************************************************************
 DATASETS  * FILE   NREC   LENGTH (MB)   RECORD NAMES
              1      18       49.80       500      610      700      900      950      970     1000      129      960     1100   
                                          VAR    BASINP    GEOM    SYMINP    ZMAT    AOBASIS   BASIS     P2S    ABASIS      S 
                                         1400     1410     1200     1210     1080     1600     1650     1700   
                                           T        V       H0       H01     AOSYM     SMH    MOLCAS    OPER   

              2       7       24.63       700     1000      520     2100     7360     7350      200   
                                         GEOM     BASIS   MCVARS     RHF    F12ABS    EF12    OPTIONS    

 PROGRAMS   *        TOTAL       INT   CCSD(T)    HF-SCF       INT
 CPU TIMES  *     14671.31      0.51  11295.18   1987.75   1387.66
 REAL TIME  *     15638.07 SEC
 DISK USED  *        14.29 GB (local),      499.28 GB (total)
 SF USED    *        17.68 GB
 GA USED    *         4.87 MB       (max)       0.00 MB       (current)
 **********************************************************************************************************************************


 PROGRAM * RHF-SCF (CLOSED SHELL)       Authors: W. Meyer, H.-J. Werner


 NUMBER OF ELECTRONS:       5+    5-    SPACE SYMMETRY=1    SPIN SYMMETRY: Singlet 
 CONVERGENCE THRESHOLDS:    1.00E-08 (Density)    1.00E-11 (Energy)
 MAX. NUMBER OF ITERATIONS:       60
 INTERPOLATION TYPE:            DIIS
 INTERPOLATION STEPS:              2 (START)      1 (STEP)
 LEVEL SHIFTS:                  0.00 (CLOSED)  0.00 (OPEN) 



 Orbital guess generated from atomic densities. Full valence occupancy:    7

 Molecular orbital dump at record        2101.2

 Initial occupancy:   5

 ITERATION    DDIFF          GRAD             ENERGY        2-EL.EN.            DIPOLE MOMENTS         DIIS   ORB.
    1      0.000D+00      0.000D+00       -76.02524603     77.376854   -1.06807   -0.19634   -0.39856    0    start
    2      0.000D+00      0.361D-02       -76.05210723     73.701220   -0.61345   -0.11569   -0.23930    1    diag
    3      0.132D-02      0.231D-02       -76.06385102     75.336947   -0.72625   -0.13631   -0.28097    2    diag
    4      0.501D-03      0.216D-03       -76.06404947     75.245185   -0.72073   -0.13586   -0.28094    3    diag
    5      0.634D-04      0.611D-04       -76.06407140     75.259915   -0.71864   -0.13572   -0.28101    4    diag
    6      0.208D-04      0.124D-04       -76.06407288     75.258793   -0.71811   -0.13570   -0.28110    5    diag
    7      0.572D-05      0.255D-05       -76.06407295     75.258938   -0.71795   -0.13569   -0.28111    6    diag
    8      0.159D-05      0.477D-06       -76.06407295     75.258926   -0.71790   -0.13569   -0.28111    7    diag
    9      0.324D-06      0.660D-07       -76.06407295     75.258916   -0.71790   -0.13569   -0.28111    8    diag
   10      0.519D-07      0.153D-07       -76.06407295     75.258919   -0.71790   -0.13569   -0.28111    9    orth
   11      0.125D-07      0.346D-08       -76.06407295     75.258919   -0.71790   -0.13569   -0.28111    9    diag
   12      0.213D-08      0.679D-09       -76.06407295     75.258918   -0.71790   -0.13569   -0.28111    0    orth

 Final occupancy:   5

 !RHF STATE  1.1 Energy               -76.064072954781
 Nuclear energy                         8.96831117
 One-electron energy                 -122.66184333
 Two-electron energy                   37.62945921
 Virial quotient                       -1.00205448
 !RHF STATE  1.1 Dipole moment         -0.71789728    -0.13568687    -0.28110696
 Dipole moment /Debye                  -1.82459336    -0.34485904    -0.71445582

 Orbital energies:

         1.1          2.1          3.1          4.1          5.1          6.1          7.1
    -20.567849    -1.340254    -0.705944    -0.579007    -0.508409     0.017154     0.029505


 HOMO      5.1    -0.508409 =     -13.8345eV
 LUMO      6.1     0.017154 =       0.4668eV
 LUMO-HOMO         0.525563 =      14.3013eV


 **********************************************************************************************************************************
 DATASETS  * FILE   NREC   LENGTH (MB)   RECORD NAMES
              1      18       49.80       500      610      700      900      950      970     1000      129      960     1100   
                                          VAR    BASINP    GEOM    SYMINP    ZMAT    AOBASIS   BASIS     P2S    ABASIS      S 
                                         1400     1410     1200     1210     1080     1600     1650     1700   
                                           T        V       H0       H01     AOSYM     SMH    MOLCAS    OPER   

              2       8       38.40       700     1000      520     2100     7360     7350      200     2101   
                                         GEOM     BASIS   MCVARS     RHF    F12ABS    EF12    OPTIONS    RHF  

 PROGRAMS   *        TOTAL    HF-SCF       INT   CCSD(T)    HF-SCF       INT
 CPU TIMES  *     16706.23   2034.91      0.51  11295.18   1987.75   1387.66
 REAL TIME  *     17895.49 SEC
 DISK USED  *        14.29 GB (local),      499.28 GB (total)
 SF USED    *        17.68 GB
 GA USED    *         4.87 MB       (max)       0.00 MB       (current)
 **********************************************************************************************************************************

 Basis set:  JKFIT                   
 Basis size:  1104
 Attributes:
 Sphericals:   T
 Basis set:  MP2FIT                  
 Basis size:  1246
 Attributes:
 Sphericals:   T
 Basis set:  RI                      
 Basis size:   730
 Attributes:
 Sphericals:   T
 Basis set:  TDDFT                   
 Basis size:  1246
 Attributes:
 Sphericals:   T

 PROGRAM * CCSD (Closed-shell coupled cluster)     Authors: C. Hampel, H.-J. Werner, 1991, M. Deegan, P.J. Knowles, 1992

                                  CCSD-F12 implementation by  H.-J. Werner, 2007

                   Density fitting integral evaluation by F.R. Manby, 2003,2007, G. Knizia, 2010



 Convergence thresholds:  THRVAR = 1.00D-08  THRDEN = 1.00D-10

 CCSD(T)     terms to be evaluated (factor= 1.000)


 Number of core orbitals:           1 (   1 )
 Number of closed-shell orbitals:   4 (   4 )
 Number of external orbitals:     729 ( 729 )

 Molecular orbitals read from record     2101.2  Type=RHF/CANONICAL (state 1.1)

 MP2-F12 correlation treatment (H.-J. Werner, 2006)
 ==================================================

 Using MP2-F12 with ansatz 3C(FIX)

 Using projected zeroth-order Hamiltonian (+Z)

 FOCKRIB=T FOCKRIC=T FOCKRIP=T CABSP=T CABSA=T CABSK=T CABSF=T GBC=F EBC=F DMAT=T NOFIK=T NOPAO=1 SOLVE=-1  USEPAO=0
 EXCH_A= T EXCH_B= F EXCH_C= F EXCH_P= F

 Geminal basis:    OPTFULL  GEM_TYPE=SLATER  BETA=1.0  NGEM=6

 Optimizing Gaussian exponents for each gem_beta

 Geminal optimization for beta= 1.0000
 Weight function:   m=0, omega= 1.4646

 Augmented Hessian optimization of geminal fit. Trust ratio= 0.40000
 Convergence reached after   2 iterations. Final gradient= 8.53D-16, Step= 4.26D-06, Delta= 1.28D-09

 Alpha:                 0.19532     0.81920     2.85917     9.50073    35.69989   197.79328
 Coeff:                 0.27070     0.30552     0.18297     0.10986     0.06810     0.04224


 All pairs explicitly correlated. Number of r12-pairs:           10

 Excluding core orbitals from MO domains

 AO(A)-basis ORBITAL           loaded. Number of functions:     734
 RI(R)-basis RI                loaded. Number of functions:     730
 DF-basis JKFIT                loaded. Number of functions:    1104

 Screening thresholds:   THRAO=  1.00D-10  THRMO=  1.00D-09  THRPROD=  1.00D-09
                         THRSW=  1.00D-05  THROV=  1.00D-12  THRAOF12= 1.00D-10

 CPU time for Fock operators                      9.13 sec

 Construction of ABS:
 Smallest eigenvalue of S          2.25E-04  (threshold= 1.00E-08)
 Ratio eigmin/eigmax               3.92E-05  (threshold= 1.00E-09)
 Smallest eigenvalue of S kept     2.25E-04  (threshold= 2.25E-04, 0 functions deleted, 730 kept)

 Construction of CABS:
 Smallest eigenvalue of S          9.12E-09  (threshold= 1.00E-08)
 Ratio eigmin/eigmax               9.12E-09  (threshold= 1.00E-09)
 Smallest eigenvalue of S kept     7.86E-08  (threshold= 7.86E-08, 1 functions deleted, 729 kept)

 CPU time for CABS singles                        0.97 sec

 CABS-singles contribution of  -0.00003843 patched into reference energy.
 New reference energy         -76.06411138

 AO(A)-basis ORBITAL           loaded. Number of functions:     734
 RI(R)-basis RI                loaded. Number of functions:     730
 DF-basis MP2FIT               loaded. Number of functions:    1246

 Screening thresholds:   THRAO=  1.00D-10  THRMO=  1.00D-09  THRPROD=  1.00D-09
                         THRSW=  1.00D-05  THROV=  1.00D-12  THRAOF12= 1.00D-10

 CPU time for 3-index integral evaluation        29.13 sec
 CPU time for first  half transformation          3.63 sec ( 4021.2 MFLOP/sec)
 CPU time for second half transformation          0.03 sec ( 2243.0 MFLOP/sec)
 CPU time for sorting                             0.20 sec
 CPU time for fitting                             0.26 sec (17770.3 MFLOP/sec)
 CPU time for tilde quantities                    0.30 sec (30553.5 MFLOP/sec)
 CPU time for assembly                            1.08 sec (33491.3 MFLOP/sec)
 CPU time for tranop_f12                          1.37 sec (25974.1 MFLOP/sec)
 CPU time for f12 integrals (total)              38.30 sec, Elapsed time:     39.96 sec
 F12-matrices built in  4 passes.
 F12-matrices built in  4 passes.
 F12-matrices built in  4 passes.
 F12-matrices built in  4 passes.
 FC-matrix built in  4 passes.
 CPU time for f12 matrices (total)                1.13 sec, Elapsed time:      1.18 sec

 Diagonal F12 approximation with fixed coefficients:  TSING= 0.500,  TTRIP= 0.250 (scaled by -1/beta)

 DF-MP2-F12 energy corrections:
 ==============================
 Approx.                                    Singlet             Triplet             Total
 DF-MP2-F12/3*C(DX,FIX)                -0.007261471515     -0.000572370207     -0.007833841722
 DF-MP2-F12/3*C(FIX)                   -0.006615729927     -0.000353356174     -0.006969086101
 DF-MP2-F12/3C(FIX)                    -0.006681807850     -0.000365518481     -0.007047326330

 DF-MP2-F12 correlation energies:
 ================================
 Approx.                                    Singlet             Triplet             Ecorr            Total Energy
 DF-MP2                                -0.192345253619     -0.102364373599     -0.294709627218    -76.358821010223
 DF-MP2-F12/3*C(DX,FIX)                -0.199606725135     -0.102936743806     -0.302543468941    -76.366654851946
 DF-MP2-F12/3*C(FIX)                   -0.198960983546     -0.102717729773     -0.301678713319    -76.365790096324
 DF-MP2-F12/3C(FIX)                    -0.199027061469     -0.102729892080     -0.301756953549    -76.365868336554

 SCS-DF-MP2 energies (F_SING= 1.20000  F_TRIP= 0.62222  F_PARALLEL= 0.33333):
 ============================================================================
 SCS-DF-MP2                            -0.294507692360    -76.358619075365
 SCS-DF-MP2-F12/3*C(DX,FIX)            -0.303577599641    -76.367688982646
 SCS-DF-MP2-F12/3*C(FIX)               -0.302666434336    -76.366777817341
 SCS-DF-MP2-F12/3C(FIX)                -0.302753295501    -76.366864678506
 Symmetry transformation completed.

 Number of N-1 electron functions:               4
 Number of N-2 electron functions:              10
 Number of singly external CSFs:              2916
 Number of doubly external CSFs:           4252986
 Total number of CSFs:                     4255903

 Pair and operator lists are different

 Length of J-op  integral file:             411.24 MB
 Length of K-op  integral file:             721.80 MB
 Length of 3-ext integral record:             0.00 MB

 Memory could be reduced to 2535.14 Mwords without degradation in triples

 Integral transformation finished. Total CPU: 615.57 sec, npass=  1  Memory used:1009.99 MW

 Reference energy:                    -76.06411138

 Adding F12 terms to K(Cij), methodcc=6,  factor= 1.0

 ITER.      SQ.NORM     CORR.ENERGY   TOTAL ENERGY   ENERGY CHANGE        DEN1      VAR(S)    VAR(P)  DIIS     TIME  TIME/IT
   1      1.06389672    -0.29312109   -76.35723247     0.00159475     0.00770086  0.80D-03  0.11D-02  1  1   833.84   184.32
   2      1.06746198    -0.29321686   -76.35732824    -0.00009577    -0.00501465  0.16D-04  0.12D-03  2  2  1007.94   188.31
   3      1.06882279    -0.29331161   -76.35742299    -0.00009475    -0.00096080  0.83D-05  0.74D-05  3  3  1189.94   193.10
   4      1.06934720    -0.29331731   -76.35742869    -0.00000570    -0.00028467  0.53D-06  0.74D-06  4  4  1364.69   192.75
   5      1.06945268    -0.29331606   -76.35742744     0.00000125    -0.00003080  0.17D-06  0.54D-07  5  5  1531.01   191.18
   6      1.06948737    -0.29331377   -76.35742515     0.00000229    -0.00000598  0.18D-07  0.44D-08  6  6  1708.61   192.32
   7      1.06949572    -0.29331323   -76.35742461     0.00000054    -0.00000128  0.13D-08  0.67D-09  6  2  1879.86   192.03
   8      1.06949751    -0.29331312   -76.35742451     0.00000011    -0.00000000  0.17D-09  0.67D-10  6  1  2041.39   190.47
   9      1.06949811    -0.29331309   -76.35742448     0.00000003     0.00000000  0.13D-10  0.81D-11  6  3  2222.64   191.64
  10      1.06949822    -0.29331309   -76.35742447     0.00000001     0.00000004  0.18D-11  0.86D-12  6  4  2403.75   192.17
  11      1.06949821    -0.29331309   -76.35742447    -0.00000000     0.00000003  0.37D-12  0.14D-12  6  5  2577.90   192.30
  12      1.06949820    -0.29331309   -76.35742447    -0.00000000     0.00000001  0.76D-13  0.20D-13  6  6  2757.02   192.72
  13      1.06949819    -0.29331309   -76.35742447    -0.00000000     0.00000000  0.12D-13  0.32D-14  6  2  2953.66   194.76
  14      1.06949819    -0.29331309   -76.35742447    -0.00000000     0.00000000  0.14D-14  0.67D-15  6  1  3139.96   195.69
  15      1.06949819    -0.29331309   -76.35742447    -0.00000000    -0.00000000  0.15D-15  0.93D-16  6  3  3306.91   195.07
  16      1.06949819    -0.29331309   -76.35742447    -0.00000000    -0.00000000  0.20D-16  0.12D-16  6  4  3474.88   194.60

 Norm of t1 vector:      0.03696770      S-energy:    -0.00000000      T1 diagnostic:  0.00924192
                                                                       D1 diagnostic:  0.01884633

 Adding energy correction from Wij-K(Fij), methodcc=6  factor= 1.0

  CCSD correlation energy              -0.293313091499
  MP2-F12 correction (uncoupled)       -0.006962972144
  C*T doubles correction               -0.000092501836
  f12b correction                       0.001583584956


 Total CPU time for triples:    698.26 sec

  Ecorr(MP2)                           -0.294715840875
  Ecorr(MP2-F12)                       -0.301763167205
  Scale factor for triples energy       1.023912275328


 RESULTS
 =======

  Reference energy                    -76.064072954779
  F12 singles correction               -0.000038428226

 F12 singles corrections added to reference energy

  New reference energy                -76.064111383005

  F12a singlet correction              -0.006656507481
  F12a triplet correction              -0.000398966499
  F12a total correction                -0.007055473980

 F12a corrections for ansatz F12/3C(FIX) added to CCSD energy

  CCSD-F12a singlet pair energy        -0.209563945179
  CCSD-F12a triplet pair energy        -0.090804620237
  CCSD-F12a correlation energy         -0.300368565479

  Triples (T) contribution (scaled)    -0.010083668420
  Total correlation energy             -0.310452233898

  CCSD-F12a total energy              -76.364479948484
  CCSD[T]-F12a energy                 -76.374884501945
  CCSD-T-F12a energy                  -76.374422759271
 !CCSD(T)-F12a total energy           -76.374563616903

 F12b corrections for ansatz F12/3C(FIX) added to CCSD(T)-F12a energy

  CCSD-F12b singlet pair energy        -0.208043675941
  CCSD-F12b triplet pair energy        -0.090741304519
  CCSD-F12b correlation energy         -0.298784980523

  Triples (T) contribution (scaled)    -0.010083668420
  Total correlation energy             -0.308868648942

  CCSD-F12b total energy              -76.362896363528
  CCSD[T]-F12b energy                 -76.373300916990
  CCSD-T-F12b energy                  -76.372839174315
 !CCSD(T)-F12b total energy           -76.372980031947

 Timing summary (sec):

 STEP                 CPU(USER)    SYS     CPU(TOT)    WALL
 Transformation        616.02     31.27    647.29    649.49
 CCSD iterations      2807.89    295.78   3103.67   3114.02
 Triples               698.26      8.53    706.79    709.13
 MP2-F12                51.20      2.15     53.35     53.59
 F12b energy           172.08     17.58    189.66    190.32

 Program statistics:

 Available memory in ccsd:              3999999871
 Min. memory needed in ccsd:              19260852
 Max. memory used in ccsd:                22423154
 Max. memory used in cckext:              14628952 (17 integral passes)



 **********************************************************************************************************************************
 DATASETS  * FILE   NREC   LENGTH (MB)   RECORD NAMES
              1      19     6330.34       500      610      700      900      950      970     1000      129      960     1100   
                                          VAR    BASINP    GEOM    SYMINP    ZMAT    AOBASIS   BASIS     P2S    ABASIS      S 
                                         1400     1410     1200     1210     1080     1600     1650     1700     1380   
                                           T        V       H0       H01     AOSYM     SMH    MOLCAS    OPER     JKOP   

              2       8       38.40       700     1000      520     2100     7360     7350      200     2101   
                                         GEOM     BASIS   MCVARS     RHF    F12ABS    EF12    OPTIONS    RHF  

 PROGRAMS   *        TOTAL   CCSD(T)    HF-SCF       INT   CCSD(T)    HF-SCF       INT
 CPU TIMES  *     21051.99   4345.75   2034.91      0.51  11295.18   1987.75   1387.66
 REAL TIME  *     22613.96 SEC
 DISK USED  *        14.29 GB (local),      499.28 GB (total)
 SF USED    *        17.68 GB
 GA USED    *         4.87 MB       (max)       0.00 MB       (current)
 **********************************************************************************************************************************

 Running procedure: SET_MONOMER2

 Dummy atoms: O10  H19  H20


 Recomputing one-electron integrals since nuclear charges changed


 PROGRAM * SEWARD (Integral evaluation for generally contracted gaussian basis sets)     Author: Roland Lindh, 1990

 Geometry written to block  1 of record 700


 Point group  C1  



 ATOMIC COORDINATES

 NR  ATOM    CHARGE       X              Y              Z

   1  O10     0.00   -7.075890501    0.749465381   -4.723937366
   2  H19     0.00   -8.725621408    0.873242442   -3.820459306
   3  H20     0.00   -7.500134016    0.238294464   -6.423179097
   4  C1      6.00   -6.193010455    2.801518980    2.403542658
   5  H41     1.00   -4.656285171    1.699997622    3.119937832
   6  H42     1.00   -5.973046335    4.726205038    2.982932688
   7  H43     1.00   -7.940251230    2.077186956    3.118237078
   8  H44     1.00   -6.176569838    2.685300823    0.384937212

 Bond lengths in Bohr (Angstrom)

 1-2  1.884994809  1-3  1.824472726  4-5  2.021904040  4-6  2.022002335  4-7  2.021953343
     ( 0.997496296)     ( 0.965469388)     ( 1.069945541)     ( 1.069997556)     ( 1.069971630)

 4-8  2.022015060
     ( 1.070004290)

 Bond angles

  2-1-3  105.14667399   5-4-6  109.53398059   5-4-7  109.65604535   5-4-8  108.43490854

  6-4-7  109.49436728   6-4-8  109.86987750   7-4-8  109.83468330

 NUCLEAR CHARGE:                   10
 NUMBER OF PRIMITIVE AOS:        1046
 NUMBER OF SYMMETRY AOS:          786
 NUMBER OF CONTRACTIONS:          734   (  734A   )
 NUMBER OF CORE ORBITALS:           1   (    1A   )
 NUMBER OF VALENCE ORBITALS:        8   (    8A   )

 MOLECULE CHANGED: INITIALIZING OCCUPATION AND DUMP RECORDS


 NUCLEAR REPULSION ENERGY   13.68681606

 Basis set:  JKFIT                   
 Basis size:  1104
 Attributes:
 Sphericals:   T
 Basis set:  MP2FIT                  
 Basis size:  1246
 Attributes:
 Sphericals:   T
 Basis set:  RI                      
 Basis size:   730
 Attributes:
 Sphericals:   T
 Basis set:  TDDFT                   
 Basis size:  1246
 Attributes:
 Sphericals:   T

 Eigenvalues of metric

         1 0.162E-05 0.211E-05 0.329E-05 0.422E-05 0.530E-05 0.654E-05 0.838E-05 0.939E-05


 Contracted 2-electron integrals neglected if value below      1.0D-14

 OPERATOR DM      FOR CENTER  0  COORDINATES:    0.000000    0.000000    0.000000


 **********************************************************************************************************************************
 DATASETS  * FILE   NREC   LENGTH (MB)   RECORD NAMES
              1      18       49.80       500      610      700      900      950      970     1000      129      960     1100   
                                          VAR    BASINP    GEOM    SYMINP    ZMAT    AOBASIS   BASIS     P2S    ABASIS      S 
                                         1400     1410     1200     1210     1080     1600     1650     1700   
                                           T        V       H0       H01     AOSYM     SMH    MOLCAS    OPER   

              2       8       38.40       700     1000      520     2100     7360     7350      200     2101   
                                         GEOM     BASIS   MCVARS     RHF    F12ABS    EF12    OPTIONS    RHF  

 PROGRAMS   *        TOTAL       INT   CCSD(T)    HF-SCF       INT   CCSD(T)    HF-SCF       INT
 CPU TIMES  *     21052.59      0.59   4345.75   2034.91      0.51  11295.18   1987.75   1387.66
 REAL TIME  *     22616.20 SEC
 DISK USED  *        14.29 GB (local),      499.28 GB (total)
 SF USED    *        17.68 GB
 GA USED    *         4.87 MB       (max)       0.00 MB       (current)
 **********************************************************************************************************************************


 PROGRAM * RHF-SCF (CLOSED SHELL)       Authors: W. Meyer, H.-J. Werner


 NUMBER OF ELECTRONS:       5+    5-    SPACE SYMMETRY=1    SPIN SYMMETRY: Singlet 
 CONVERGENCE THRESHOLDS:    1.00E-08 (Density)    1.00E-11 (Energy)
 MAX. NUMBER OF ITERATIONS:       60
 INTERPOLATION TYPE:            DIIS
 INTERPOLATION STEPS:              2 (START)      1 (STEP)
 LEVEL SHIFTS:                  0.00 (CLOSED)  0.00 (OPEN) 



 Orbital guess generated from atomic densities. Full valence occupancy:    9

 Molecular orbital dump at record        2102.2

 Initial occupancy:   5

 ITERATION    DDIFF          GRAD             ENERGY        2-EL.EN.            DIPOLE MOMENTS         DIIS   ORB.
    1      0.000D+00      0.000D+00       -40.19676540     53.509905    0.00411   -0.00276   -0.00130    0    start
    2      0.000D+00      0.198D-02       -40.21405760     52.218481    0.00128   -0.00087   -0.00038    1    diag
    3      0.948D-03      0.769D-03       -40.21634103     52.673988    0.00182   -0.00123   -0.00055    2    diag
    4      0.260D-03      0.192D-03       -40.21666136     52.619250    0.00162   -0.00110   -0.00048    3    diag
    5      0.102D-03      0.248D-04       -40.21666684     52.621408    0.00159   -0.00108   -0.00047    4    diag
    6      0.343D-04      0.204D-05       -40.21666688     52.621536    0.00159   -0.00108   -0.00047    5    diag
    7      0.583D-05      0.166D-06       -40.21666688     52.621499    0.00159   -0.00108   -0.00047    6    diag
    8      0.332D-06      0.136D-07       -40.21666688     52.621499    0.00159   -0.00108   -0.00047    7    diag
    9      0.566D-07      0.167D-08       -40.21666688     52.621499    0.00159   -0.00108   -0.00047    8    diag
   10      0.101D-07      0.465D-09       -40.21666688     52.621499    0.00159   -0.00108   -0.00047    9    orth
   11      0.105D-08      0.667D-10       -40.21666688     52.621499    0.00159   -0.00108   -0.00047    0    orth

 Final occupancy:   5

 !RHF STATE  1.1 Energy               -40.216666881954
 Nuclear energy                        13.68681606
 One-electron energy                  -80.21423254
 Two-electron energy                   26.31074960
 Virial quotient                       -0.99832812
 !RHF STATE  1.1 Dipole moment          0.00158652    -0.00107782    -0.00047009
 Dipole moment /Debye                   0.00403227    -0.00273936    -0.00119478

 Orbital energies:

         1.1          2.1          3.1          4.1          5.1          6.1          7.1
    -11.196017    -0.950605    -0.551931    -0.549996    -0.547818     0.020344     0.032051


 HOMO      5.1    -0.547818 =     -14.9069eV
 LUMO      6.1     0.020344 =       0.5536eV
 LUMO-HOMO         0.568161 =      15.4605eV


 **********************************************************************************************************************************
 DATASETS  * FILE   NREC   LENGTH (MB)   RECORD NAMES
              1      18       49.80       500      610      700      900      950      970     1000      129      960     1100   
                                          VAR    BASINP    GEOM    SYMINP    ZMAT    AOBASIS   BASIS     P2S    ABASIS      S 
                                         1400     1410     1200     1210     1080     1600     1650     1700   
                                           T        V       H0       H01     AOSYM     SMH    MOLCAS    OPER   

              2       9       62.49       700     1000      520     2100     7360     7350      200     2101     2102   
                                         GEOM     BASIS   MCVARS     RHF    F12ABS    EF12    OPTIONS    RHF      RHF  

 PROGRAMS   *        TOTAL    HF-SCF       INT   CCSD(T)    HF-SCF       INT   CCSD(T)    HF-SCF       INT
 CPU TIMES  *     22931.14   1878.55      0.59   4345.75   2034.91      0.51  11295.18   1987.75   1387.66
 REAL TIME  *     24695.43 SEC
 DISK USED  *        14.29 GB (local),      499.28 GB (total)
 SF USED    *        17.68 GB
 GA USED    *         4.87 MB       (max)       0.00 MB       (current)
 **********************************************************************************************************************************

 Basis set:  JKFIT                   
 Basis size:  1104
 Attributes:
 Sphericals:   T
 Basis set:  MP2FIT                  
 Basis size:  1246
 Attributes:
 Sphericals:   T
 Basis set:  RI                      
 Basis size:   730
 Attributes:
 Sphericals:   T
 Basis set:  TDDFT                   
 Basis size:  1246
 Attributes:
 Sphericals:   T

 PROGRAM * CCSD (Closed-shell coupled cluster)     Authors: C. Hampel, H.-J. Werner, 1991, M. Deegan, P.J. Knowles, 1992

                                  CCSD-F12 implementation by  H.-J. Werner, 2007

                   Density fitting integral evaluation by F.R. Manby, 2003,2007, G. Knizia, 2010



 Convergence thresholds:  THRVAR = 1.00D-08  THRDEN = 1.00D-10

 CCSD(T)     terms to be evaluated (factor= 1.000)


 Number of core orbitals:           1 (   1 )
 Number of closed-shell orbitals:   4 (   4 )
 Number of external orbitals:     729 ( 729 )

 Molecular orbitals read from record     2102.2  Type=RHF/CANONICAL (state 1.1)

 MP2-F12 correlation treatment (H.-J. Werner, 2006)
 ==================================================

 Using MP2-F12 with ansatz 3C(FIX)

 Using projected zeroth-order Hamiltonian (+Z)

 FOCKRIB=T FOCKRIC=T FOCKRIP=T CABSP=T CABSA=T CABSK=T CABSF=T GBC=F EBC=F DMAT=T NOFIK=T NOPAO=1 SOLVE=-1  USEPAO=0
 EXCH_A= T EXCH_B= F EXCH_C= F EXCH_P= F

 Geminal basis:    OPTFULL  GEM_TYPE=SLATER  BETA=1.0  NGEM=6

 Optimizing Gaussian exponents for each gem_beta

 Geminal optimization for beta= 1.0000
 Weight function:   m=0, omega= 1.4646

 Augmented Hessian optimization of geminal fit. Trust ratio= 0.40000
 Convergence reached after   2 iterations. Final gradient= 8.53D-16, Step= 4.26D-06, Delta= 1.28D-09

 Alpha:                 0.19532     0.81920     2.85917     9.50073    35.69989   197.79328
 Coeff:                 0.27070     0.30552     0.18297     0.10986     0.06810     0.04224


 All pairs explicitly correlated. Number of r12-pairs:           10

 Excluding core orbitals from MO domains

 AO(A)-basis ORBITAL           loaded. Number of functions:     734
 RI(R)-basis RI                loaded. Number of functions:     730
 DF-basis JKFIT                loaded. Number of functions:    1104

 Screening thresholds:   THRAO=  1.00D-10  THRMO=  1.00D-09  THRPROD=  1.00D-09
                         THRSW=  1.00D-05  THROV=  1.00D-12  THRAOF12= 1.00D-10

 CPU time for Fock operators                      9.56 sec

 Construction of ABS:
 Smallest eigenvalue of S          2.25E-04  (threshold= 1.00E-08)
 Ratio eigmin/eigmax               3.92E-05  (threshold= 1.00E-09)
 Smallest eigenvalue of S kept     2.25E-04  (threshold= 2.25E-04, 0 functions deleted, 730 kept)

 Construction of CABS:
 Smallest eigenvalue of S          9.13E-09  (threshold= 1.00E-08)
 Ratio eigmin/eigmax               9.13E-09  (threshold= 1.00E-09)
 Smallest eigenvalue of S kept     7.86E-08  (threshold= 7.86E-08, 1 functions deleted, 729 kept)

 CPU time for CABS singles                        1.49 sec

 CABS-singles contribution of  -0.00004076 patched into reference energy.
 New reference energy         -40.21670764

 AO(A)-basis ORBITAL           loaded. Number of functions:     734
 RI(R)-basis RI                loaded. Number of functions:     730
 DF-basis MP2FIT               loaded. Number of functions:    1246

 Screening thresholds:   THRAO=  1.00D-10  THRMO=  1.00D-09  THRPROD=  1.00D-09
                         THRSW=  1.00D-05  THROV=  1.00D-12  THRAOF12= 1.00D-10

 CPU time for 3-index integral evaluation        29.46 sec
 CPU time for first  half transformation          5.24 sec ( 2828.4 MFLOP/sec)
 CPU time for second half transformation          0.07 sec (  780.5 MFLOP/sec)
 CPU time for sorting                             0.18 sec
 CPU time for fitting                             0.25 sec (36490.3 MFLOP/sec)
 CPU time for tilde quantities                    0.35 sec (39043.6 MFLOP/sec)
 CPU time for assembly                            1.04 sec (34751.5 MFLOP/sec)
 CPU time for tranop_f12                          1.37 sec (31726.6 MFLOP/sec)
 CPU time for f12 integrals (total)              40.26 sec, Elapsed time:     42.18 sec
 F12-matrices built in  4 passes.
 F12-matrices built in  4 passes.
 F12-matrices built in  4 passes.
 F12-matrices built in  4 passes.
 FC-matrix built in  4 passes.
 CPU time for f12 matrices (total)                1.10 sec, Elapsed time:      1.15 sec

 Diagonal F12 approximation with fixed coefficients:  TSING= 0.500,  TTRIP= 0.250 (scaled by -1/beta)

 DF-MP2-F12 energy corrections:
 ==============================
 Approx.                                    Singlet             Triplet             Total
 DF-MP2-F12/3*C(DX,FIX)                -0.003932883080     -0.000213002035     -0.004145885114
 DF-MP2-F12/3*C(FIX)                   -0.003769731907     -0.000160881028     -0.003930612936
 DF-MP2-F12/3C(FIX)                    -0.003816483754     -0.000163904235     -0.003980387989

 DF-MP2-F12 correlation energies:
 ================================
 Approx.                                    Singlet             Triplet             Ecorr            Total Energy
 DF-MP2                                -0.157870762943     -0.056825029679     -0.214695792621    -40.431403436497
 DF-MP2-F12/3*C(DX,FIX)                -0.161803646022     -0.057038031713     -0.218841677736    -40.435549321612
 DF-MP2-F12/3*C(FIX)                   -0.161640494850     -0.056985910707     -0.218626405557    -40.435334049433
 DF-MP2-F12/3C(FIX)                    -0.161687246697     -0.056988933913     -0.218676180610    -40.435383824486

 SCS-DF-MP2 energies (F_SING= 1.20000  F_TRIP= 0.62222  F_PARALLEL= 0.33333):
 ============================================================================
 SCS-DF-MP2                            -0.224802711776    -40.441510355652
 SCS-DF-MP2-F12/3*C(DX,FIX)            -0.229654706071    -40.446362349947
 SCS-DF-MP2-F12/3*C(FIX)               -0.229426493816    -40.446134137692
 SCS-DF-MP2-F12/3C(FIX)                -0.229484477138    -40.446192121014
 Symmetry transformation completed.

 Number of N-1 electron functions:               4
 Number of N-2 electron functions:              10
 Number of singly external CSFs:              2916
 Number of doubly external CSFs:           4252986
 Total number of CSFs:                     4255903

 Pair and operator lists are different

 Length of J-op  integral file:             411.24 MB
 Length of K-op  integral file:             721.80 MB
 Length of 3-ext integral record:             0.00 MB

 Memory could be reduced to 2535.14 Mwords without degradation in triples

 Integral transformation finished. Total CPU: 637.84 sec, npass=  1  Memory used:1009.99 MW

 Reference energy:                    -40.21670764

 Adding F12 terms to K(Cij), methodcc=6,  factor= 1.0

 ITER.      SQ.NORM     CORR.ENERGY   TOTAL ENERGY   ENERGY CHANGE        DEN1      VAR(S)    VAR(P)  DIIS     TIME  TIME/IT
   1      1.07033691    -0.22827337   -40.44498101    -0.01357087    -0.00771652  0.62D-03  0.94D-03  1  1   863.33   186.98
   2      1.07515868    -0.22923060   -40.44593825    -0.00095723    -0.00531233  0.16D-04  0.11D-03  2  2  1038.66   189.70
   3      1.07694848    -0.22929796   -40.44600560    -0.00006736    -0.00133790  0.22D-05  0.64D-05  3  3  1241.64   199.85
   4      1.07735127    -0.22930040   -40.44600804    -0.00000244    -0.00021859  0.16D-06  0.39D-06  4  4  1441.48   204.60
   5      1.07740856    -0.22930397   -40.44601161    -0.00000357    -0.00000965  0.14D-07  0.24D-07  5  5  1618.26   203.03
   6      1.07741881    -0.22930262   -40.44601026     0.00000135    -0.00000404  0.89D-09  0.18D-08  6  6  1785.16   200.16
   7      1.07742032    -0.22930223   -40.44600987     0.00000039    -0.00000090  0.55D-10  0.13D-09  6  1  1970.70   200.75
   8      1.07742025    -0.22930229   -40.44600993    -0.00000006     0.00000024  0.60D-11  0.84D-11  6  3  2149.72   200.54
   9      1.07742039    -0.22930227   -40.44600991     0.00000002    -0.00000009  0.40D-12  0.58D-12  6  2  2337.50   201.23
  10      1.07742039    -0.22930227   -40.44600991     0.00000000     0.00000001  0.57D-13  0.62D-13  6  4  2523.33   201.42
  11      1.07742040    -0.22930227   -40.44600991     0.00000000    -0.00000000  0.58D-14  0.65D-14  6  5  2703.48   201.24
  12      1.07742040    -0.22930227   -40.44600991     0.00000000     0.00000000  0.16D-15  0.66D-15  6  6  2869.59   200.02
  13      1.07742039    -0.22930227   -40.44600991    -0.00000000     0.00000000  0.12D-16  0.73D-16  6  1  3047.68   199.85
  14      1.07742039    -0.22930227   -40.44600991    -0.00000000     0.00000000  0.20D-17  0.12D-16  6  3  3228.10   199.72

 Norm of t1 vector:      0.03268885      S-energy:     0.00000000      T1 diagnostic:  0.00817221
                                                                       D1 diagnostic:  0.01311238

 Adding energy correction from Wij-K(Fij), methodcc=6  factor= 1.0

  CCSD correlation energy              -0.229302266414
  MP2-F12 correction (uncoupled)       -0.003883904814
  C*T doubles correction               -0.000068603189
  f12b correction                       0.001100167007

 Total CPU time for triples:    696.92 sec

  Ecorr(MP2)                           -0.214702500427
  Ecorr(MP2-F12)                       -0.218682888416
  Scale factor for triples energy       1.018539085390


 RESULTS
 =======

  Reference energy                    -40.216666881954
  F12 singles correction               -0.000040761922

 F12 singles corrections added to reference energy

  New reference energy                -40.216707643876

  F12a singlet correction              -0.003781300954
  F12a triplet correction              -0.000171207049
  F12a total correction                -0.003952508003

 F12a corrections for ansatz F12/3C(FIX) added to CCSD energy

  CCSD-F12a singlet pair energy        -0.178096198207
  CCSD-F12a triplet pair energy        -0.055158576216
  CCSD-F12a correlation energy         -0.233254774417

  Triples (T) contribution (scaled)    -0.007109329161
  Total correlation energy             -0.240364103578

  CCSD-F12a total energy              -40.449962418293
  CCSD[T]-F12a energy                 -40.457307363296
  CCSD-T-F12a energy                  -40.457003904984
 !CCSD(T)-F12a total energy           -40.457071747454

 F12b corrections for ansatz F12/3C(FIX) added to CCSD(T)-F12a energy

  CCSD-F12b singlet pair energy        -0.177025162216
  CCSD-F12b triplet pair energy        -0.055129445199
  CCSD-F12b correlation energy         -0.232154607410

  Triples (T) contribution (scaled)    -0.007109329161
  Total correlation energy             -0.239263936571

  CCSD-F12b total energy              -40.448862251286
  CCSD[T]-F12b energy                 -40.456207196289
  CCSD-T-F12b energy                  -40.455903737977
 !CCSD(T)-F12b total energy           -40.455971580447

 Timing summary (sec):

 STEP                 CPU(USER)    SYS     CPU(TOT)    WALL
 Transformation        638.35     32.49    670.84    673.18
 CCSD iterations      2535.66    251.20   2786.86   2796.39
 Triples               696.92      9.23    706.15    708.55
 MP2-F12                54.24      2.45     56.69     57.00
 F12b energy           165.53     17.64    183.17    183.79

 Program statistics:

 Available memory in ccsd:              3999999866
 Min. memory needed in ccsd:              19260852
 Max. memory used in ccsd:                22423154
 Max. memory used in cckext:              14628952 (15 integral passes)



 **********************************************************************************************************************************
 DATASETS  * FILE   NREC   LENGTH (MB)   RECORD NAMES
              1      19     6330.34       500      610      700      900      950      970     1000      129      960     1100   
                                          VAR    BASINP    GEOM    SYMINP    ZMAT    AOBASIS   BASIS     P2S    ABASIS      S 
                                         1400     1410     1200     1210     1080     1600     1650     1700     1380   
                                           T        V       H0       H01     AOSYM     SMH    MOLCAS    OPER     JKOP   

              2       9       62.49       700     1000      520     2100     7360     7350      200     2101     2102   
                                         GEOM     BASIS   MCVARS     RHF    F12ABS    EF12    OPTIONS    RHF      RHF  

 PROGRAMS   *        TOTAL   CCSD(T)    HF-SCF       INT   CCSD(T)    HF-SCF       INT   CCSD(T)    HF-SCF       INT
 CPU TIMES  *     27022.17   4091.02   1878.55      0.59   4345.75   2034.91      0.51  11295.18   1987.75   1387.66
 REAL TIME  *     29116.41 SEC
 DISK USED  *        14.29 GB (local),      499.28 GB (total)
 SF USED    *        17.68 GB
 GA USED    *         4.87 MB       (max)       0.00 MB       (current)
 **********************************************************************************************************************************
 Molecular orbitals read from record     2102.2  Type=RHF/CANONICAL (state 1.1)
 Occupation numbers read from record     2102.2  Type=RHF/RHF (state 1.1)
 Orbital energies read from record       2102.2  Type=RHF/CANONICAL (state 1.1)
 Redundancy group numbers read from rec  2102.2  Type=RHF/RHF (state 1.1)

 CCSD(T)-F12/aug-cc-pV5Z energy=    -40.455971580447

     CCSD(T)-F12          HF-SCF     CCSD(T)-F12          HF-SCF     CCSD(T)-F12          HF-SCF
    -40.45597158    -40.21666688    -76.37298003    -76.06407295   -116.82973276   -116.28077767
 **********************************************************************************************************************************
 Molpro calculation terminated
