
 Primary working directories    : /scratch/klimes/383230/molpro.8dfm96pKKy
 Secondary working directories  : /scratch/klimes/383230/molpro.8dfm96pKKy
 Wavefunction directory         : /scratch/klimes/383230/
 Main file repository           : /scratch/klimes/383230/molpro.8dfm96pKKy/

 id        : karlovklimes

 Nodes                      nprocs
 nc-03.cc.karlov.mff.cuni.cz    4

 Using customized tuning parameters: mindgm=1; mindgv=20; mindgc=4; mindgr=1; noblas=0; minvec=7
 default implementation of scratch files=sf  


 Variables initialized (930), CPU time= 0.01 sec
                                                                                 !gdirect
 memory,2000,m
 gthresh,orbital=1d-10,energy=1d-10,grid=1d-8
 
 symmetry,nosym
 angstrom
 geometry={
 O1         0.000000000000      0.000000000000      0.000000000000
 H1         0.000000000000      0.000000000000      0.974900000000
 H2         0.000000000000      0.942300000000     -0.261200000000
 C1        -3.277200000000      1.482500000000      1.271900000000
 H41        -2.464000000000      0.899600000000      1.651000000000
 H42        -3.160800000000      2.501000000000      1.578500000000
 H43        -4.201800000000      1.099200000000      1.650100000000
 H44        -3.268500000000      1.421000000000      0.203700000000
 }
 
 nkerna=1
 nkernb=1
 
 gf=0
 sing=1
 thrdum=1d-4
 gridthr=1d-8
 
 basis={
 set,orbital
 default,avqz
 set,jkfit
 default,av5z/jkfit
 set,mp2fit
 default,av5z/mp2fit
 set,ri
 default,av5z/optri
 set,tddft
 default,av5z/mp2fit
 }
 
 proc set_monomer1
 dummy,4,5,6,7,8
 endproc
 
 proc set_monomer2
 dummy,1,2,3
 endproc
 
                                                                                 !12 energy
 {hf,accu=1.d-16}
 {ccsd(t)-f12,df_basis=mp2fit,df_basis_exch=jkfit,ri_basis=ri,scale_trip=1,THRAOF12=1d-10}
 
 set_monomer1
 {hf,accu=1.d-16}
 {ccsd(t)-f12,df_basis=mp2fit,df_basis_exch=jkfit,ri_basis=ri,scale_trip=1,THRAOF12=1d-10}
 
 set_monomer2
 {hf,accu=1.d-16}
 {ccsd(t)-f12,df_basis=mp2fit,df_basis_exch=jkfit,ri_basis=ri,scale_trip=1,THRAOF12=1d-10}
 
 Commands  initialized (760), CPU time= 0.02 sec, 617 directives.
 Default parameters read. Elapsed time= 0.20 sec

 Checking input...
 Passed
1


                                         ***  PROGRAM SYSTEM MOLPRO  ***
                                       Copyright, TTI GmbH Stuttgart, 2015
                                    Version 2019.1 linked Jan 14 2019 13:09:19


 **********************************************************************************************************************************
 LABEL *                                                                                 
  64 bit mpp version                                                                     DATE: 11-Mar-20          TIME: 16:31:12  
 **********************************************************************************************************************************

 SHA1:             d688ac825633d238f2093ded1675ba87ccd55965
 **********************************************************************************************************************************

 THRESHOLDS:

 ZERO    =  1.00D-12  ONEINT  =  1.00D-12  TWOINT  =  1.00D-11  PREFAC  =  1.00D-14  XXXXXX  =  1.00D-09  EORDER  =  1.00D-04
 ENERGY  =  1.00D-10  ETEST   =  0.00D+00  EDENS   =  0.00D+00  THRDEDEF=  1.00D-06  GRADIENT=  1.00D-02  STEP    =  1.00D-03
 ORBITAL =  1.00D-10  CIVEC   =  1.00D-05  COEFF   =  1.00D-04  PRINTCI =  5.00D-02  PUNCHCI =  9.90D+01  OPTGRAD =  3.00D-04
 OPTENERG=  1.00D-06  OPTSTEP =  3.00D-04  THRGRAD =  1.00D-10  COMPRESS=  1.00D-11  VARMIN  =  1.00D-07  VARMAX  =  1.00D-03
 THRDOUB =  0.00D+00  THRDIV  =  1.00D-05  THRRED  =  1.00D-07  THRPSP  =  1.00D+00  THRDC   =  1.00D-10  THRCS   =  1.00D-10
 THRNRM  =  1.00D-08  THREQ   =  0.00D+00  THRDE   =  1.00D+00  THRREF  =  1.00D-05  SPARFAC =  1.00D+00  THRDLP  =  1.00D-07
 THRDIA  =  1.00D-10  THRDLS  =  1.00D-07  THRGPS  =  0.00D+00  THRKEX  =  0.00D+00  THRDIS  =  2.00D-01  THRVAR  =  1.00D-10
 THRLOC  =  1.00D-06  THRGAP  =  1.00D-06  THRLOCT = -1.00D+00  THRGAPT = -1.00D+00  THRORB  =  1.00D-06  THRMLTP =  0.00D+00
 THRCPQCI=  1.00D-10  KEXTA   =  0.00D+00  THRCOARS=  0.00D+00  SYMTOL  =  1.00D-06  GRADTOL =  1.00D-06  THROVL  =  1.00D-08
 THRORTH =  1.00D-08  GRID    =  1.00D-08  GRIDMAX =  1.00D-03  DTMAX   =  0.00D+00  THROCCDE=  1.00D-01  THROCCDE=  1.00D-01
 THRPRINT=  2.50D-01


 Variable memory set to 2000000000 words,  buffer space 

 ZSYMEL=NOSYM
 ZUNIT=ANG


Geometry recognized as XYZ

 SETTING NKERNA         =         1.00000000                                  
 SETTING NKERNB         =         1.00000000                                  
 SETTING GF             =     0.00000000D+00                                  
 SETTING SING           =         1.00000000                                  
 SETTING THRDUM         =     1.00000000D-04                                  
 SETTING GRIDTHR        =     1.00000000D-08                                  
 SETTING BASIS          =    AVQZ


 Recomputing integrals since basis changed


 Using spherical harmonics

 Library entry O      S aug-cc-pVQZ          selected for orbital group  1
 Library entry O      P aug-cc-pVQZ          selected for orbital group  1
 Library entry O      D aug-cc-pVQZ          selected for orbital group  1
 Library entry O      F aug-cc-pVQZ          selected for orbital group  1
 Library entry O      G aug-cc-pVQZ          selected for orbital group  1
 Library entry H      S aug-cc-pVQZ          selected for orbital group  2
 Library entry H      P aug-cc-pVQZ          selected for orbital group  2
 Library entry H      D aug-cc-pVQZ          selected for orbital group  2
 Library entry H      F aug-cc-pVQZ          selected for orbital group  2
 Library entry C      S aug-cc-pVQZ          selected for orbital group  3
 Library entry C      P aug-cc-pVQZ          selected for orbital group  3
 Library entry C      D aug-cc-pVQZ          selected for orbital group  3
 Library entry C      F aug-cc-pVQZ          selected for orbital group  3
 Library entry C      G aug-cc-pVQZ          selected for orbital group  3


 PROGRAM * SEWARD (Integral evaluation for generally contracted gaussian basis sets)     Author: Roland Lindh, 1990

 Geometry written to block  1 of record 700


 Point group  C1  



 ATOMIC COORDINATES

 NR  ATOM    CHARGE       X              Y              Z

   1  O1      8.00    0.000000000    0.000000000    0.000000000
   2  H1      1.00    0.000000000    0.000000000    1.842293999
   3  H2      1.00    0.000000000    1.780688927   -0.493596464
   4  C1      6.00   -6.193010455    2.801518980    2.403542658
   5  H41     1.00   -4.656285171    1.699997622    3.119937832
   6  H42     1.00   -5.973046335    4.726205038    2.982932688
   7  H43     1.00   -7.940251230    2.077186956    3.118237078
   8  H44     1.00   -6.176569838    2.685300823    0.384937212

 Bond lengths in Bohr (Angstrom)

 1-2  1.842293999  1-3  1.847834009  4-5  2.021904040  4-6  2.022002335  4-7  2.021953343
     ( 0.974900000)     ( 0.977831647)     ( 1.069945541)     ( 1.069997556)     ( 1.069971630)

 4-8  2.022015060
     ( 1.070004290)

 Bond angles

  2-1-3  105.49305961   5-4-6  109.53398059   5-4-7  109.65604535   5-4-8  108.43490854

  6-4-7  109.49436728   6-4-8  109.86987750   7-4-8  109.83468330

 NUCLEAR CHARGE:                   20
 NUMBER OF PRIMITIVE AOS:         578
 NUMBER OF SYMMETRY AOS:          474
 NUMBER OF CONTRACTIONS:          436   (  436A   )
 NUMBER OF CORE ORBITALS:           2   (    2A   )
 NUMBER OF VALENCE ORBITALS:       14   (   14A   )


 NUCLEAR REPULSION ENERGY   36.71209306


 Basis set:  JKFIT                   
 Basis size:  1104
 Attributes:
 Sphericals:   T
 Basis set:  MP2FIT                  
 Basis size:  1246
 Attributes:
 Sphericals:   T
 Basis set:  RI                      
 Basis size:   730
 Attributes:
 Sphericals:   T
 Basis set:  TDDFT                   
 Basis size:  1246
 Attributes:
 Sphericals:   T

 **********************************************************************************************************************************


 Eigenvalues of metric

         1 0.155E-04 0.265E-04 0.287E-04 0.362E-04 0.626E-04 0.925E-04 0.947E-04 0.102E-03


 Contracted 2-electron integrals neglected if value below      1.0D-14
 AO integral compression algorithm  1   Integral accuracy      1.0D-14

     23038.001 MB (compressed) written to integral file ( 57.5%)

     Node minimum: 5367.398 MB, node maximum: 6043.468 MB


 NUMBER OF SORTED TWO-ELECTRON INTEGRALS: 1134451344.     BUFFER LENGTH:  32768
 NUMBER OF SEGMENTS:  36  SEGMENT LENGTH:   31999984      RECORD LENGTH: 524288

 Memory used in sort:      32.56 MW

 SORT1 READ  5012305700. AND WROTE   968643922. INTEGRALS IN   2790 RECORDS. CPU TIME:   268.71 SEC, REAL TIME:   294.00 SEC
 SORT2 READ  3874830241. AND WROTE  4537853011. INTEGRALS IN  85548 RECORDS. CPU TIME:    21.61 SEC, REAL TIME:    88.36 SEC

 Node minimum:  1134427528.  Node maximum:  1134498978. integrals

 OPERATOR DM      FOR CENTER  0  COORDINATES:    0.000000    0.000000    0.000000


 **********************************************************************************************************************************
 DATASETS  * FILE   NREC   LENGTH (MB)   RECORD NAMES
              1      18       37.12       500      610      700      900      950      970     1000      129      960     1100   
                                          VAR    BASINP    GEOM    SYMINP    ZMAT    AOBASIS   BASIS     P2S    ABASIS      S 
                                         1400     1410     1200     1210     1080     1600     1650     1700   
                                           T        V       H0       H01     AOSYM     SMH    MOLCAS    OPER   

 PROGRAMS   *        TOTAL       INT
 CPU TIMES  *       355.55    355.30
 REAL TIME  *       463.19 SEC
 DISK USED  *        37.64 MB (local),       69.40 GB (total)
 GA USED    *         0.00 MB       (max)       0.00 MB       (current)
 **********************************************************************************************************************************


 PROGRAM * RHF-SCF (CLOSED SHELL)       Authors: W. Meyer, H.-J. Werner


 NUMBER OF ELECTRONS:      10+   10-    SPACE SYMMETRY=1    SPIN SYMMETRY: Singlet 
 CONVERGENCE THRESHOLDS:    1.00E-08 (Density)    1.00E-11 (Energy)
 MAX. NUMBER OF ITERATIONS:       60
 INTERPOLATION TYPE:            DIIS
 INTERPOLATION STEPS:              2 (START)      1 (STEP)
 LEVEL SHIFTS:                  0.00 (CLOSED)  0.00 (OPEN) 



 Orbital guess generated from atomic densities. Full valence occupancy:   16

 Molecular orbital dump at record        2100.2

 Initial occupancy:  10

 ITERATION    DDIFF          GRAD             ENERGY        2-EL.EN.            DIPOLE MOMENTS         DIIS   ORB.
    1      0.000D+00      0.000D+00      -116.22106209    158.827583    0.00414    0.91018    0.68723    0    start
    2      0.000D+00      0.379D-02      -116.26516165    154.008487   -0.03228    0.51255    0.37910    1    diag
    3      0.273D-02      0.221D-02      -116.27860172    156.023878   -0.02154    0.61382    0.45746    2    diag
    4      0.944D-03      0.330D-03      -116.27926082    155.911881   -0.02041    0.60506    0.45142    3    diag
    5      0.204D-03      0.965D-04      -116.27932940    155.906493   -0.02095    0.60463    0.45134    4    diag
    6      0.820D-04      0.235D-04      -116.27933323    155.912196   -0.02105    0.60393    0.45097    5    diag
    7      0.222D-04      0.468D-05      -116.27933346    155.910528   -0.02108    0.60393    0.45102    6    diag
    8      0.653D-05      0.118D-05      -116.27933348    155.910699   -0.02110    0.60387    0.45100    7    diag
    9      0.149D-05      0.278D-06      -116.27933348    155.910672   -0.02110    0.60386    0.45098    8    diag
   10      0.418D-06      0.335D-07      -116.27933348    155.910674   -0.02110    0.60386    0.45098    9    orth
   11      0.437D-07      0.822D-08      -116.27933348    155.910675   -0.02110    0.60386    0.45098    9    diag
   12      0.904D-08      0.227D-08      -116.27933348    155.910675   -0.02110    0.60386    0.45098    0    orth

 Final occupancy:  10

 !RHF STATE  1.1 Energy              -116.279333477625
 Nuclear energy                        36.71209306
 One-electron energy                 -230.94676387
 Two-electron energy                   77.95533734
 Virial quotient                       -1.00064642
 !RHF STATE  1.1 Dipole moment         -0.02110214     0.60385546     0.45098323
 Dipole moment /Debye                  -0.05363278     1.53474697     1.14620995

 Orbital energies:

         1.1          2.1          3.1          4.1          5.1          6.1          7.1          8.1          9.1         10.1
    -20.566909   -11.199374    -1.342121    -0.953914    -0.708902    -0.579569    -0.555360    -0.553309    -0.551147    -0.507440

        11.1         12.1
      0.023454     0.038187


 HOMO     10.1    -0.507440 =     -13.8081eV
 LUMO     11.1     0.023454 =       0.6382eV
 LUMO-HOMO         0.530893 =      14.4463eV


 **********************************************************************************************************************************
 DATASETS  * FILE   NREC   LENGTH (MB)   RECORD NAMES
              1      18       37.12       500      610      700      900      950      970     1000      129      960     1100   
                                          VAR    BASINP    GEOM    SYMINP    ZMAT    AOBASIS   BASIS     P2S    ABASIS      S 
                                         1400     1410     1200     1210     1080     1600     1650     1700   
                                           T        V       H0       H01     AOSYM     SMH    MOLCAS    OPER   

              2       4        6.75       700     1000      520     2100   
                                         GEOM     BASIS   MCVARS     RHF  

 PROGRAMS   *        TOTAL    HF-SCF       INT
 CPU TIMES  *       616.34    260.79    355.30
 REAL TIME  *       758.85 SEC
 DISK USED  *        57.70 MB (local),       69.48 GB (total)
 SF USED    *         0.76 MB
 GA USED    *         0.00 MB       (max)       0.00 MB       (current)
 **********************************************************************************************************************************

 Basis set:  JKFIT                   
 Basis size:  1104
 Attributes:
 Sphericals:   T
 Basis set:  MP2FIT                  
 Basis size:  1246
 Attributes:
 Sphericals:   T
 Basis set:  RI                      
 Basis size:   730
 Attributes:
 Sphericals:   T
 Basis set:  TDDFT                   
 Basis size:  1246
 Attributes:
 Sphericals:   T

 PROGRAM * CCSD (Closed-shell coupled cluster)     Authors: C. Hampel, H.-J. Werner, 1991, M. Deegan, P.J. Knowles, 1992

                                  CCSD-F12 implementation by  H.-J. Werner, 2007

                   Density fitting integral evaluation by F.R. Manby, 2003,2007, G. Knizia, 2010



 Convergence thresholds:  THRVAR = 1.00D-08  THRDEN = 1.00D-10

 CCSD(T)     terms to be evaluated (factor= 1.000)


 Number of core orbitals:           2 (   2 )
 Number of closed-shell orbitals:   8 (   8 )
 Number of external orbitals:     426 ( 426 )

 Molecular orbitals read from record     2100.2  Type=RHF/CANONICAL (state 1.1)

 MP2-F12 correlation treatment (H.-J. Werner, 2006)
 ==================================================

 Using MP2-F12 with ansatz 3C(FIX)

 Using projected zeroth-order Hamiltonian (+Z)

 FOCKRIB=T FOCKRIC=T FOCKRIP=T CABSP=T CABSA=T CABSK=T CABSF=T GBC=F EBC=F DMAT=T NOFIK=T NOPAO=1 SOLVE=-1  USEPAO=0
 EXCH_A= T EXCH_B= F EXCH_C= F EXCH_P= F

 Geminal basis:    OPTFULL  GEM_TYPE=SLATER  BETA=1.0  NGEM=6

 Optimizing Gaussian exponents for each gem_beta

 Geminal optimization for beta= 1.0000
 Weight function:   m=0, omega= 1.4646

 Augmented Hessian optimization of geminal fit. Trust ratio= 0.40000
 Convergence reached after   2 iterations. Final gradient= 7.85D-16, Step= 4.26D-06, Delta= 1.28D-09

 Alpha:                 0.19532     0.81920     2.85917     9.50073    35.69989   197.79328
 Coeff:                 0.27070     0.30552     0.18297     0.10986     0.06810     0.04224


 All pairs explicitly correlated. Number of r12-pairs:           36

 Excluding core orbitals from MO domains

 AO(A)-basis ORBITAL           loaded. Number of functions:     436
 RI(R)-basis RI                loaded. Number of functions:     730
 DF-basis JKFIT                loaded. Number of functions:    1104

 Screening thresholds:   THRAO=  1.00D-10  THRMO=  1.00D-09  THRPROD=  1.00D-09
                         THRSW=  1.00D-05  THROV=  1.00D-12  THRAOF12= 1.00D-10

 CPU time for Fock operators                     12.51 sec

 Construction of ABS:
 Smallest eigenvalue of S          2.27E-04  (threshold= 1.00E-08)
 Ratio eigmin/eigmax               3.94E-05  (threshold= 1.00E-09)
 Smallest eigenvalue of S kept     2.27E-04  (threshold= 2.27E-04, 0 functions deleted, 730 kept)

 Construction of CABS:
 Smallest eigenvalue of S          1.55E-08  (threshold= 1.00E-08)
 Ratio eigmin/eigmax               1.55E-08  (threshold= 1.00E-09)
 Smallest eigenvalue of S kept     1.55E-08  (threshold= 1.55E-08, 0 functions deleted, 730 kept)

 CPU time for CABS singles                        2.31 sec

 CABS-singles contribution of  -0.00053756 patched into reference energy.
 New reference energy        -116.27987104

 AO(A)-basis ORBITAL           loaded. Number of functions:     436
 RI(R)-basis RI                loaded. Number of functions:     730
 DF-basis MP2FIT               loaded. Number of functions:    1246

 Screening thresholds:   THRAO=  1.00D-10  THRMO=  1.00D-09  THRPROD=  1.00D-09
                         THRSW=  1.00D-05  THROV=  1.00D-12  THRAOF12= 1.00D-10

 CPU time for 3-index integral evaluation        19.85 sec
 CPU time for first  half transformation          5.56 sec ( 2335.4 MFLOP/sec)
 CPU time for second half transformation          0.12 sec ( 1287.7 MFLOP/sec)
 CPU time for sorting                             0.21 sec
 CPU time for fitting                             1.91 sec ( 3888.6 MFLOP/sec)
 CPU time for tilde quantities                    2.29 sec ( 4398.6 MFLOP/sec)
 CPU time for assembly                           16.65 sec ( 4259.3 MFLOP/sec)
 CPU time for tranop_f12                         16.64 sec ( 4142.1 MFLOP/sec)
 CPU time for f12 integrals (total)              85.97 sec, Elapsed time:     89.11 sec
 F12-matrices built in  4 passes.
 F12-matrices built in  4 passes.
 F12-matrices built in  4 passes.
 F12-matrices built in  4 passes.
 FC-matrix built in  4 passes.
 CPU time for f12 matrices (total)                6.08 sec, Elapsed time:      6.25 sec

 Diagonal F12 approximation with fixed coefficients:  TSING= 0.500,  TTRIP= 0.250 (scaled by -1/beta)

 DF-MP2-F12 energy corrections:
 ==============================
 Approx.                                    Singlet             Triplet             Total
 DF-MP2-F12/3*C(DX,FIX)                -0.021219748977     -0.002109576828     -0.023329325804
 DF-MP2-F12/3*C(FIX)                   -0.019150482857     -0.001555058629     -0.020705541485
 DF-MP2-F12/3C(FIX)                    -0.019165444122     -0.001606441187     -0.020771885309

 DF-MP2-F12 correlation energies:
 ================================
 Approx.                                    Singlet             Triplet             Ecorr            Total Energy
 DF-MP2                                -0.340688592820     -0.158348699119     -0.499037291940   -116.778908332583
 DF-MP2-F12/3*C(DX,FIX)                -0.361908341797     -0.160458275947     -0.522366617744   -116.802237658387
 DF-MP2-F12/3*C(FIX)                   -0.359839075677     -0.159903757748     -0.519742833425   -116.799613874068
 DF-MP2-F12/3C(FIX)                    -0.359854036942     -0.159955140306     -0.519809177248   -116.799680217892

 SCS-DF-MP2 energies (F_SING= 1.20000  F_TRIP= 0.62222  F_PARALLEL= 0.33333):
 ============================================================================
 SCS-DF-MP2                            -0.507354390836   -116.787225431480
 SCS-DF-MP2-F12/3*C(DX,FIX)            -0.534130715190   -116.814001755834
 SCS-DF-MP2-F12/3*C(FIX)               -0.531302562300   -116.811173602943
 SCS-DF-MP2-F12/3C(FIX)                -0.531352487188   -116.811223527831
 Symmetry transformation completed.

 Number of N-1 electron functions:               8
 Number of N-2 electron functions:              36
 Number of singly external CSFs:              3408
 Number of doubly external CSFs:           5808936
 Total number of CSFs:                     5812345

 Pair and operator lists are different

 Length of J-op  integral file:               0.75 GB
 Length of K-op  integral file:               0.98 GB
 Length of 3-ext integral record:             0.00 MB

 Memory could be reduced to 828.63 Mwords without degradation in triples

 Integral transformation finished. Total CPU: 326.68 sec, npass=  1  Memory used: 389.45 MW

 Reference energy:                   -116.27987104

 Adding F12 terms to K(Cij), methodcc=6,  factor= 1.0

 ITER.      SQ.NORM     CORR.ENERGY   TOTAL ENERGY   ENERGY CHANGE        DEN1      VAR(S)    VAR(P)  DIIS     TIME  TIME/IT
   1      1.13390007    -0.51271602  -116.79258706    -0.01366943    -0.00177080  0.14D-02  0.20D-02  1  1   611.20   171.01
   2      1.14215090    -0.51336656  -116.79323761    -0.00065055    -0.00998397  0.29D-04  0.24D-03  2  2   783.28   172.95
   3      1.14518495    -0.51355744  -116.79342848    -0.00019087    -0.00213854  0.13D-04  0.14D-04  3  3   955.33   173.46
   4      1.14616259    -0.51357637  -116.79344741    -0.00001893    -0.00058235  0.66D-06  0.13D-05  4  4  1127.12   173.76
   5      1.14633122    -0.51357606  -116.79344711     0.00000030    -0.00004017  0.21D-06  0.90D-07  5  5  1298.80   173.98
   6      1.14637463    -0.51357324  -116.79344428     0.00000283    -0.00000615  0.22D-07  0.80D-08  6  6  1470.99   174.14
   7      1.14638621    -0.51357199  -116.79344303     0.00000125    -0.00000348  0.20D-08  0.86D-09  6  1  1642.89   174.22
   8      1.14638783    -0.51357200  -116.79344304    -0.00000001     0.00000032  0.38D-09  0.11D-09  6  3  1815.22   174.30
   9      1.14638903    -0.51357194  -116.79344298     0.00000007    -0.00000034  0.32D-10  0.18D-10  6  2  1987.43   174.38
  10      1.14638906    -0.51357194  -116.79344298    -0.00000000     0.00000011  0.87D-11  0.40D-11  6  3  2159.54   174.44
  11      1.14638919    -0.51357194  -116.79344298     0.00000000     0.00000000  0.59D-12  0.29D-12  6  4  2331.75   174.49
  12      1.14638917    -0.51357194  -116.79344298    -0.00000000     0.00000002  0.11D-12  0.51D-13  6  6  2504.08   174.54
  13      1.14638916    -0.51357194  -116.79344298    -0.00000000     0.00000001  0.20D-13  0.53D-14  6  5  2675.95   174.55
  14      1.14638916    -0.51357194  -116.79344298    -0.00000000     0.00000000  0.39D-14  0.11D-14  6  1  2847.76   174.56
  15      1.14638916    -0.51357194  -116.79344298    -0.00000000    -0.00000000  0.60D-15  0.21D-15  6  2  3020.07   174.59
  16      1.14638916    -0.51357194  -116.79344298    -0.00000000    -0.00000000  0.10D-15  0.31D-16  6  4  3191.83   174.58

 Norm of t1 vector:      0.04985715      S-energy:    -0.00000000      T1 diagnostic:  0.00881358
                                                                       D1 diagnostic:  0.01919865

 Adding energy correction from Wij-K(Fij), methodcc=6  factor= 1.0

  CCSD correlation energy              -0.513571941056
  MP2-F12 correction (uncoupled)       -0.020209115986
  C*T doubles correction               -0.000545507942
  f12b correction                       0.004652198551

   CPU time for triples:   2047.06 sec for i =  1 -  7 /  8 (~  68.8 % done)
   CPU time for triples:    971.63 sec for i =  8 -  8 /  8 (  100.0 % done)

 Total CPU time for triples:   3022.76 sec

  Ecorr(MP2)                           -0.499046591375
  Ecorr(MP2-F12)                       -0.519818476684
  Scale factor for triples energy       1.041623138335


 RESULTS
 =======

  Reference energy                   -116.279333477631
  F12 singles correction               -0.000537563013

 F12 singles corrections added to reference energy

  New reference energy               -116.279871040644

  F12a singlet correction              -0.019137090598
  F12a triplet correction              -0.001617533329
  F12a total correction                -0.020754623928

 F12a corrections for ansatz F12/3C(FIX) added to CCSD energy

  CCSD-F12a singlet pair energy        -0.387779359121
  CCSD-F12a triplet pair energy        -0.146547205673
  CCSD-F12a correlation energy         -0.534326564984

  Triples (T) contribution (scaled)    -0.017111931668
  Total correlation energy             -0.551438496652

  CCSD-F12a total energy             -116.814197605628
  CCSD[T]-F12a energy                -116.831875561770
  CCSD-T-F12a energy                 -116.831096059300
 !CCSD(T)-F12a total energy          -116.831309537295

 F12b corrections for ansatz F12/3C(FIX) added to CCSD(T)-F12a energy

  CCSD-F12b singlet pair energy        -0.383342233105
  CCSD-F12b triplet pair energy        -0.146332133137
  CCSD-F12b correlation energy         -0.529674366433

  Triples (T) contribution (scaled)    -0.017111931668
  Total correlation energy             -0.546786298101

  CCSD-F12b total energy             -116.809545407076
  CCSD[T]-F12b energy                -116.827223363219
  CCSD-T-F12b energy                 -116.826443860749
 !CCSD(T)-F12b total energy          -116.826657338744

 Timing summary (sec):

 STEP                 CPU(USER)    SYS     CPU(TOT)    WALL
 Transformation        327.79     10.42    338.21    341.62
 CCSD iterations      2749.73     39.42   2789.15   2793.57
 Triples              3022.76     21.92   3044.68   3048.97
 MP2-F12               114.42      3.79    118.21    118.36
 F12b energy           148.23      1.75    149.98    150.20

 Program statistics:

 Available memory in ccsd:              1999999554
 Min. memory needed in ccsd:              16971337
 Max. memory used in ccsd:                21987113
 Max. memory used in cckext:              15122080 (17 integral passes)



 **********************************************************************************************************************************
 DATASETS  * FILE   NREC   LENGTH (MB)   RECORD NAMES
              1      19     2602.04       500      610      700      900      950      970     1000      129      960     1100   
                                          VAR    BASINP    GEOM    SYMINP    ZMAT    AOBASIS   BASIS     P2S    ABASIS      S 
                                         1400     1410     1200     1210     1080     1600     1650     1700     1380   
                                           T        V       H0       H01     AOSYM     SMH    MOLCAS    OPER     JKOP   

              2       6       10.56       700     1000      520     2100     7360     7350   
                                         GEOM     BASIS   MCVARS     RHF    F12ABS    EF12   

 PROGRAMS   *        TOTAL   CCSD(T)    HF-SCF       INT
 CPU TIMES  *      6979.51   6363.16    260.79    355.30
 REAL TIME  *      7213.02 SEC
 DISK USED  *         3.24 GB (local),       80.32 GB (total)
 SF USED    *         5.12 GB
 GA USED    *         4.87 MB       (max)       0.00 MB       (current)
 **********************************************************************************************************************************

 Running procedure: SET_MONOMER1

 Dummy atoms: C1  H41  H42  H43  H44


 Recomputing one-electron integrals since nuclear charges changed


 PROGRAM * SEWARD (Integral evaluation for generally contracted gaussian basis sets)     Author: Roland Lindh, 1990

 Geometry written to block  1 of record 700


 Point group  C1  



 ATOMIC COORDINATES

 NR  ATOM    CHARGE       X              Y              Z

   1  O1      8.00    0.000000000    0.000000000    0.000000000
   2  H1      1.00    0.000000000    0.000000000    1.842293999
   3  H2      1.00    0.000000000    1.780688927   -0.493596464
   4  C1      0.00   -6.193010455    2.801518980    2.403542658
   5  H41     0.00   -4.656285171    1.699997622    3.119937832
   6  H42     0.00   -5.973046335    4.726205038    2.982932688
   7  H43     0.00   -7.940251230    2.077186956    3.118237078
   8  H44     0.00   -6.176569838    2.685300823    0.384937212

 Bond lengths in Bohr (Angstrom)

 1-2  1.842293999  1-3  1.847834009  4-5  2.021904040  4-6  2.022002335  4-7  2.021953343
     ( 0.974900000)     ( 0.977831647)     ( 1.069945541)     ( 1.069997556)     ( 1.069971630)

 4-8  2.022015060
     ( 1.070004290)

 Bond angles

  2-1-3  105.49305961   5-4-6  109.53398059   5-4-7  109.65604535   5-4-8  108.43490854

  6-4-7  109.49436728   6-4-8  109.86987750   7-4-8  109.83468330

 NUCLEAR CHARGE:                   10
 NUMBER OF PRIMITIVE AOS:         578
 NUMBER OF SYMMETRY AOS:          474
 NUMBER OF CONTRACTIONS:          436   (  436A   )
 NUMBER OF CORE ORBITALS:           1   (    1A   )
 NUMBER OF VALENCE ORBITALS:        6   (    6A   )

 MOLECULE CHANGED: INITIALIZING OCCUPATION AND DUMP RECORDS


 NUCLEAR REPULSION ENERGY    9.01226390

 Basis set:  JKFIT                   
 Basis size:  1104
 Attributes:
 Sphericals:   T
 Basis set:  MP2FIT                  
 Basis size:  1246
 Attributes:
 Sphericals:   T
 Basis set:  RI                      
 Basis size:   730
 Attributes:
 Sphericals:   T
 Basis set:  TDDFT                   
 Basis size:  1246
 Attributes:
 Sphericals:   T

 Eigenvalues of metric

         1 0.155E-04 0.265E-04 0.287E-04 0.362E-04 0.626E-04 0.925E-04 0.947E-04 0.102E-03


 Contracted 2-electron integrals neglected if value below      1.0D-14

 OPERATOR DM      FOR CENTER  0  COORDINATES:    0.000000    0.000000    0.000000


 **********************************************************************************************************************************
 DATASETS  * FILE   NREC   LENGTH (MB)   RECORD NAMES
              1      18       37.12       500      610      700      900      950      970     1000      129      960     1100   
                                          VAR    BASINP    GEOM    SYMINP    ZMAT    AOBASIS   BASIS     P2S    ABASIS      S 
                                         1400     1410     1200     1210     1080     1600     1650     1700   
                                           T        V       H0       H01     AOSYM     SMH    MOLCAS    OPER   

              2       7       10.59       700     1000      520     2100     7360     7350      200   
                                         GEOM     BASIS   MCVARS     RHF    F12ABS    EF12    OPTIONS    

 PROGRAMS   *        TOTAL       INT   CCSD(T)    HF-SCF       INT
 CPU TIMES  *      6979.91      0.38   6363.16    260.79    355.30
 REAL TIME  *      7214.35 SEC
 DISK USED  *         3.24 GB (local),       80.32 GB (total)
 SF USED    *         5.12 GB
 GA USED    *         4.87 MB       (max)       0.00 MB       (current)
 **********************************************************************************************************************************


 PROGRAM * RHF-SCF (CLOSED SHELL)       Authors: W. Meyer, H.-J. Werner


 NUMBER OF ELECTRONS:       5+    5-    SPACE SYMMETRY=1    SPIN SYMMETRY: Singlet 
 CONVERGENCE THRESHOLDS:    1.00E-08 (Density)    1.00E-11 (Energy)
 MAX. NUMBER OF ITERATIONS:       60
 INTERPOLATION TYPE:            DIIS
 INTERPOLATION STEPS:              2 (START)      1 (STEP)
 LEVEL SHIFTS:                  0.00 (CLOSED)  0.00 (OPEN) 



 Orbital guess generated from atomic densities. Full valence occupancy:    7

 Molecular orbital dump at record        2101.2

 Initial occupancy:   5

 ITERATION    DDIFF          GRAD             ENERGY        2-EL.EN.            DIPOLE MOMENTS         DIIS   ORB.
    1      0.000D+00      0.000D+00       -76.02552207     77.430635   -0.00001    0.91365    0.69077    0    start
    2      0.000D+00      0.467D-02       -76.05227935     73.783975   -0.00003    0.53120    0.40278    1    diag
    3      0.222D-02      0.297D-02       -76.06376604     75.400685   -0.00002    0.62626    0.47460    2    diag
    4      0.841D-03      0.278D-03       -76.06395889     75.309577   -0.00002    0.62240    0.47191    3    diag
    5      0.106D-03      0.773D-04       -76.06397947     75.323783   -0.00002    0.62096    0.47091    4    diag
    6      0.334D-04      0.153D-04       -76.06398079     75.322777   -0.00002    0.62064    0.47070    5    diag
    7      0.868D-05      0.309D-05       -76.06398085     75.322923   -0.00002    0.62054    0.47063    6    diag
    8      0.253D-05      0.587D-06       -76.06398085     75.322909   -0.00002    0.62050    0.47060    7    diag
    9      0.471D-06      0.785D-07       -76.06398085     75.322900   -0.00002    0.62050    0.47060    8    diag
   10      0.492D-07      0.176D-07       -76.06398085     75.322903   -0.00002    0.62050    0.47060    9    orth
   11      0.128D-07      0.298D-08       -76.06398085     75.322903   -0.00002    0.62050    0.47060    9    diag
   12      0.229D-08      0.480D-09       -76.06398085     75.322903   -0.00002    0.62050    0.47060    0    orth

 Final occupancy:   5

 !RHF STATE  1.1 Energy               -76.063980854803
 Nuclear energy                         9.01226390
 One-electron energy                 -122.73769615
 Two-electron energy                   37.66145139
 Virial quotient                       -1.00191140
 !RHF STATE  1.1 Dipole moment         -0.00001652     0.62049958     0.47060141
 Dipole moment /Debye                  -0.00004198     1.57704931     1.19607113

 Orbital energies:

         1.1          2.1          3.1          4.1          5.1          6.1          7.1
    -20.567593    -1.342507    -0.709243    -0.579409    -0.508644     0.017681     0.036129


 HOMO      5.1    -0.508644 =     -13.8409eV
 LUMO      6.1     0.017681 =       0.4811eV
 LUMO-HOMO         0.526326 =      14.3221eV


 **********************************************************************************************************************************
 DATASETS  * FILE   NREC   LENGTH (MB)   RECORD NAMES
              1      18       37.12       500      610      700      900      950      970     1000      129      960     1100   
                                          VAR    BASINP    GEOM    SYMINP    ZMAT    AOBASIS   BASIS     P2S    ABASIS      S 
                                         1400     1410     1200     1210     1080     1600     1650     1700   
                                           T        V       H0       H01     AOSYM     SMH    MOLCAS    OPER   

              2       8       17.39       700     1000      520     2100     7360     7350      200     2101   
                                         GEOM     BASIS   MCVARS     RHF    F12ABS    EF12    OPTIONS    RHF  

 PROGRAMS   *        TOTAL    HF-SCF       INT   CCSD(T)    HF-SCF       INT
 CPU TIMES  *      7251.84    271.92      0.38   6363.16    260.79    355.30
 REAL TIME  *      7517.21 SEC
 DISK USED  *         3.24 GB (local),       80.32 GB (total)
 SF USED    *         5.12 GB
 GA USED    *         4.87 MB       (max)       0.00 MB       (current)
 **********************************************************************************************************************************

 Basis set:  JKFIT                   
 Basis size:  1104
 Attributes:
 Sphericals:   T
 Basis set:  MP2FIT                  
 Basis size:  1246
 Attributes:
 Sphericals:   T
 Basis set:  RI                      
 Basis size:   730
 Attributes:
 Sphericals:   T
 Basis set:  TDDFT                   
 Basis size:  1246
 Attributes:
 Sphericals:   T

 PROGRAM * CCSD (Closed-shell coupled cluster)     Authors: C. Hampel, H.-J. Werner, 1991, M. Deegan, P.J. Knowles, 1992

                                  CCSD-F12 implementation by  H.-J. Werner, 2007

                   Density fitting integral evaluation by F.R. Manby, 2003,2007, G. Knizia, 2010



 Convergence thresholds:  THRVAR = 1.00D-08  THRDEN = 1.00D-10

 CCSD(T)     terms to be evaluated (factor= 1.000)


 Number of core orbitals:           1 (   1 )
 Number of closed-shell orbitals:   4 (   4 )
 Number of external orbitals:     431 ( 431 )

 Molecular orbitals read from record     2101.2  Type=RHF/CANONICAL (state 1.1)

 MP2-F12 correlation treatment (H.-J. Werner, 2006)
 ==================================================

 Using MP2-F12 with ansatz 3C(FIX)

 Using projected zeroth-order Hamiltonian (+Z)

 FOCKRIB=T FOCKRIC=T FOCKRIP=T CABSP=T CABSA=T CABSK=T CABSF=T GBC=F EBC=F DMAT=T NOFIK=T NOPAO=1 SOLVE=-1  USEPAO=0
 EXCH_A= T EXCH_B= F EXCH_C= F EXCH_P= F

 Geminal basis:    OPTFULL  GEM_TYPE=SLATER  BETA=1.0  NGEM=6

 Optimizing Gaussian exponents for each gem_beta

 Geminal optimization for beta= 1.0000
 Weight function:   m=0, omega= 1.4646

 Augmented Hessian optimization of geminal fit. Trust ratio= 0.40000
 Convergence reached after   2 iterations. Final gradient= 8.31D-16, Step= 4.24D-06, Delta= 1.28D-09

 Alpha:                 0.19532     0.81920     2.85917     9.50073    35.69989   197.79328
 Coeff:                 0.27070     0.30552     0.18297     0.10986     0.06810     0.04224


 All pairs explicitly correlated. Number of r12-pairs:           10

 Excluding core orbitals from MO domains

 AO(A)-basis ORBITAL           loaded. Number of functions:     436
 RI(R)-basis RI                loaded. Number of functions:     730
 DF-basis JKFIT                loaded. Number of functions:    1104

 Screening thresholds:   THRAO=  1.00D-10  THRMO=  1.00D-09  THRPROD=  1.00D-09
                         THRSW=  1.00D-05  THROV=  1.00D-12  THRAOF12= 1.00D-10

 CPU time for Fock operators                     10.66 sec

 Construction of ABS:
 Smallest eigenvalue of S          2.27E-04  (threshold= 1.00E-08)
 Ratio eigmin/eigmax               3.94E-05  (threshold= 1.00E-09)
 Smallest eigenvalue of S kept     2.27E-04  (threshold= 2.27E-04, 0 functions deleted, 730 kept)

 Construction of CABS:
 Smallest eigenvalue of S          1.55E-08  (threshold= 1.00E-08)
 Ratio eigmin/eigmax               1.55E-08  (threshold= 1.00E-09)
 Smallest eigenvalue of S kept     1.55E-08  (threshold= 1.55E-08, 0 functions deleted, 730 kept)

 CPU time for CABS singles                        2.35 sec

 CABS-singles contribution of  -0.00029305 patched into reference energy.
 New reference energy         -76.06427390

 AO(A)-basis ORBITAL           loaded. Number of functions:     436
 RI(R)-basis RI                loaded. Number of functions:     730
 DF-basis MP2FIT               loaded. Number of functions:    1246

 Screening thresholds:   THRAO=  1.00D-10  THRMO=  1.00D-09  THRPROD=  1.00D-09
                         THRSW=  1.00D-05  THROV=  1.00D-12  THRAOF12= 1.00D-10

 CPU time for 3-index integral evaluation        19.46 sec
 CPU time for first  half transformation          3.46 sec ( 1881.3 MFLOP/sec)
 CPU time for second half transformation          0.03 sec ( 1269.6 MFLOP/sec)
 CPU time for sorting                             0.06 sec
 CPU time for fitting                             1.06 sec ( 5597.8 MFLOP/sec)
 CPU time for tilde quantities                    1.51 sec ( 4836.4 MFLOP/sec)
 CPU time for assembly                            5.00 sec ( 3760.2 MFLOP/sec)
 CPU time for tranop_f12                          4.44 sec ( 3174.2 MFLOP/sec)
 CPU time for f12 integrals (total)              42.05 sec, Elapsed time:     43.28 sec
 F12-matrices built in  4 passes.
 F12-matrices built in  4 passes.
 F12-matrices built in  4 passes.
 F12-matrices built in  4 passes.
 FC-matrix built in  4 passes.
 CPU time for f12 matrices (total)                1.61 sec, Elapsed time:      1.64 sec

 Diagonal F12 approximation with fixed coefficients:  TSING= 0.500,  TTRIP= 0.250 (scaled by -1/beta)

 DF-MP2-F12 energy corrections:
 ==============================
 Approx.                                    Singlet             Triplet             Total
 DF-MP2-F12/3*C(DX,FIX)                -0.013716785017     -0.001530350036     -0.015247135052
 DF-MP2-F12/3*C(FIX)                   -0.012094947931     -0.001076010927     -0.013170958857
 DF-MP2-F12/3C(FIX)                    -0.012080606080     -0.001113185911     -0.013193791991

 DF-MP2-F12 correlation energies:
 ================================
 Approx.                                    Singlet             Triplet             Ecorr            Total Energy
 DF-MP2                                -0.186056230105     -0.101307602115     -0.287363832220    -76.351637735041
 DF-MP2-F12/3*C(DX,FIX)                -0.199773015122     -0.102837952151     -0.302610967272    -76.366884870093
 DF-MP2-F12/3*C(FIX)                   -0.198151178035     -0.102383613042     -0.300534791078    -76.364808693898
 DF-MP2-F12/3C(FIX)                    -0.198136836185     -0.102420788026     -0.300557624212    -76.364831527032

 SCS-DF-MP2 energies (F_SING= 1.20000  F_TRIP= 0.62222  F_PARALLEL= 0.33333):
 ============================================================================
 SCS-DF-MP2                            -0.286303317442    -76.350577220263
 SCS-DF-MP2-F12/3*C(DX,FIX)            -0.303715677262    -76.367989580083
 SCS-DF-MP2-F12/3*C(FIX)               -0.301486772869    -76.365760675690
 SCS-DF-MP2-F12/3C(FIX)                -0.301492693750    -76.365766596571
 Symmetry transformation completed.

 Number of N-1 electron functions:               4
 Number of N-2 electron functions:              10
 Number of singly external CSFs:              1724
 Number of doubly external CSFs:           1486950
 Total number of CSFs:                     1488675

 Pair and operator lists are different

 Length of J-op  integral file:             203.65 MB
 Length of K-op  integral file:             338.08 MB
 Length of 3-ext integral record:             0.00 MB

 Memory could be reduced to 526.20 Mwords without degradation in triples

 Integral transformation finished. Total CPU: 172.79 sec, npass=  1  Memory used: 214.75 MW

 Reference energy:                    -76.06427390

 Adding F12 terms to K(Cij), methodcc=6,  factor= 1.0

 ITER.      SQ.NORM     CORR.ENERGY   TOTAL ENERGY   ENERGY CHANGE        DEN1      VAR(S)    VAR(P)  DIIS     TIME  TIME/IT
   1      1.06336401    -0.28682028   -76.35109419     0.00054755     0.00667896  0.78D-03  0.10D-02  1  1   289.20    56.01
   2      1.06686875    -0.28662268   -76.35089658     0.00019761    -0.00485574  0.13D-04  0.11D-03  2  2   343.34    56.26
   3      1.06808214    -0.28671787   -76.35099177    -0.00009519    -0.00081291  0.96D-05  0.74D-05  3  3   397.66    56.35
   4      1.06862719    -0.28673260   -76.35100651    -0.00001473    -0.00033559  0.52D-06  0.72D-06  4  4   452.38    56.45
   5      1.06873101    -0.28673098   -76.35100488     0.00000163    -0.00002921  0.17D-06  0.56D-07  5  5   507.25    56.54
   6      1.06876352    -0.28672887   -76.35100277     0.00000211    -0.00000398  0.20D-07  0.47D-08  6  6   561.99    56.57
   7      1.06877273    -0.28672827   -76.35100217     0.00000060    -0.00000186  0.15D-08  0.74D-09  6  1   616.62    56.58
   8      1.06877412    -0.28672825   -76.35100215     0.00000002     0.00000019  0.31D-09  0.96D-10  6  3   670.98    56.57
   9      1.06877513    -0.28672819   -76.35100210     0.00000005    -0.00000025  0.22D-10  0.10D-10  6  2   725.38    56.56
  10      1.06877532    -0.28672818   -76.35100209     0.00000001     0.00000000  0.20D-11  0.12D-11  6  4   779.28    56.55
  11      1.06877531    -0.28672818   -76.35100209    -0.00000000     0.00000003  0.48D-12  0.17D-12  6  5   833.89    56.58
  12      1.06877531    -0.28672818   -76.35100209    -0.00000000     0.00000001  0.82D-13  0.25D-13  6  6   888.57    56.61
  13      1.06877530    -0.28672818   -76.35100209    -0.00000000     0.00000000  0.14D-13  0.43D-14  6  1   942.53    56.61
  14      1.06877530    -0.28672818   -76.35100209    -0.00000000     0.00000000  0.20D-14  0.78D-15  6  3   996.71    56.61
  15      1.06877530    -0.28672818   -76.35100209    -0.00000000    -0.00000000  0.18D-15  0.11D-15  6  2  1050.04    56.53
  16      1.06877530    -0.28672818   -76.35100209     0.00000000    -0.00000000  0.39D-16  0.17D-16  6  4  1102.48    56.40

 Norm of t1 vector:      0.03660878      S-energy:    -0.00000000      T1 diagnostic:  0.00915220
                                                                       D1 diagnostic:  0.01856910

 Adding energy correction from Wij-K(Fij), methodcc=6  factor= 1.0

  CCSD correlation energy              -0.286728184633
  MP2-F12 correction (uncoupled)       -0.012757193373
  C*T doubles correction               -0.000417481781
  f12b correction                       0.002711261940


 Total CPU time for triples:    461.78 sec

  Ecorr(MP2)                           -0.287367836332
  Ecorr(MP2-F12)                       -0.300561628323
  Scale factor for triples energy       1.045912556394


 RESULTS
 =======

  Reference energy                    -76.063980854802
  F12 singles correction               -0.000293048019

 F12 singles corrections added to reference energy

  New reference energy                -76.064273902821

  F12a singlet correction              -0.012052291416
  F12a triplet correction              -0.001122383737
  F12a total correction                -0.013174675153

 F12a corrections for ansatz F12/3C(FIX) added to CCSD energy

  CCSD-F12a singlet pair energy        -0.209173422885
  CCSD-F12a triplet pair energy        -0.090729436851
  CCSD-F12a correlation energy         -0.299902859787

  Triples (T) contribution (scaled)    -0.009904110963
  Total correlation energy             -0.309806970750

  CCSD-F12a total energy              -76.364176762607
  CCSD[T]-F12a energy                 -76.374405288268
  CCSD-T-F12a energy                  -76.373940189607
 !CCSD(T)-F12a total energy           -76.374080873571

 F12b corrections for ansatz F12/3C(FIX) added to CCSD(T)-F12a energy

  CCSD-F12b singlet pair energy        -0.206608864837
  CCSD-F12b triplet pair energy        -0.090582732959
  CCSD-F12b correlation energy         -0.297191597846

  Triples (T) contribution (scaled)    -0.009904110963
  Total correlation energy             -0.307095708809

  CCSD-F12b total energy              -76.361465500667
  CCSD[T]-F12b energy                 -76.371694026327
  CCSD-T-F12b energy                  -76.371228927667
 !CCSD(T)-F12b total energy           -76.371369611630

 Timing summary (sec):

 STEP                 CPU(USER)    SYS     CPU(TOT)    WALL
 Transformation        173.19      6.09    179.28    179.74
 CCSD iterations       867.45     33.75    901.20    902.58
 Triples               461.78      4.35    466.13    466.79
 MP2-F12                61.94      1.29     63.23     63.59
 F12b energy            49.57      1.98     51.55     51.64

 Program statistics:

 Available memory in ccsd:              1999999871
 Min. memory needed in ccsd:               6763924
 Max. memory used in ccsd:                 7862874
 Max. memory used in cckext:               5171974 (17 integral passes)



 **********************************************************************************************************************************
 DATASETS  * FILE   NREC   LENGTH (MB)   RECORD NAMES
              1      19     1346.98       500      610      700      900      950      970     1000      129      960     1100   
                                          VAR    BASINP    GEOM    SYMINP    ZMAT    AOBASIS   BASIS     P2S    ABASIS      S 
                                         1400     1410     1200     1210     1080     1600     1650     1700     1380   
                                           T        V       H0       H01     AOSYM     SMH    MOLCAS    OPER     JKOP   

              2       8       17.39       700     1000      520     2100     7360     7350      200     2101   
                                         GEOM     BASIS   MCVARS     RHF    F12ABS    EF12    OPTIONS    RHF  

 PROGRAMS   *        TOTAL   CCSD(T)    HF-SCF       INT   CCSD(T)    HF-SCF       INT
 CPU TIMES  *      8866.00   1614.15    271.92      0.38   6363.16    260.79    355.30
 REAL TIME  *      9182.61 SEC
 DISK USED  *         3.24 GB (local),       80.32 GB (total)
 SF USED    *         5.12 GB
 GA USED    *         4.87 MB       (max)       0.00 MB       (current)
 **********************************************************************************************************************************

 Running procedure: SET_MONOMER2

 Dummy atoms: O1  H1  H2


 Recomputing one-electron integrals since nuclear charges changed


 PROGRAM * SEWARD (Integral evaluation for generally contracted gaussian basis sets)     Author: Roland Lindh, 1990

 Geometry written to block  1 of record 700


 Point group  C1  



 ATOMIC COORDINATES

 NR  ATOM    CHARGE       X              Y              Z

   1  O1      0.00    0.000000000    0.000000000    0.000000000
   2  H1      0.00    0.000000000    0.000000000    1.842293999
   3  H2      0.00    0.000000000    1.780688927   -0.493596464
   4  C1      6.00   -6.193010455    2.801518980    2.403542658
   5  H41     1.00   -4.656285171    1.699997622    3.119937832
   6  H42     1.00   -5.973046335    4.726205038    2.982932688
   7  H43     1.00   -7.940251230    2.077186956    3.118237078
   8  H44     1.00   -6.176569838    2.685300823    0.384937212

 Bond lengths in Bohr (Angstrom)

 1-2  1.842293999  1-3  1.847834009  4-5  2.021904040  4-6  2.022002335  4-7  2.021953343
     ( 0.974900000)     ( 0.977831647)     ( 1.069945541)     ( 1.069997556)     ( 1.069971630)

 4-8  2.022015060
     ( 1.070004290)

 Bond angles

  2-1-3  105.49305961   5-4-6  109.53398059   5-4-7  109.65604535   5-4-8  108.43490854

  6-4-7  109.49436728   6-4-8  109.86987750   7-4-8  109.83468330

 NUCLEAR CHARGE:                   10
 NUMBER OF PRIMITIVE AOS:         578
 NUMBER OF SYMMETRY AOS:          474
 NUMBER OF CONTRACTIONS:          436   (  436A   )
 NUMBER OF CORE ORBITALS:           1   (    1A   )
 NUMBER OF VALENCE ORBITALS:        8   (    8A   )

 MOLECULE CHANGED: INITIALIZING OCCUPATION AND DUMP RECORDS


 NUCLEAR REPULSION ENERGY   13.68681606

 Basis set:  JKFIT                   
 Basis size:  1104
 Attributes:
 Sphericals:   T
 Basis set:  MP2FIT                  
 Basis size:  1246
 Attributes:
 Sphericals:   T
 Basis set:  RI                      
 Basis size:   730
 Attributes:
 Sphericals:   T
 Basis set:  TDDFT                   
 Basis size:  1246
 Attributes:
 Sphericals:   T

 Eigenvalues of metric

         1 0.155E-04 0.265E-04 0.287E-04 0.362E-04 0.626E-04 0.925E-04 0.947E-04 0.102E-03


 Contracted 2-electron integrals neglected if value below      1.0D-14

 OPERATOR DM      FOR CENTER  0  COORDINATES:    0.000000    0.000000    0.000000


 **********************************************************************************************************************************
 DATASETS  * FILE   NREC   LENGTH (MB)   RECORD NAMES
              1      18       37.12       500      610      700      900      950      970     1000      129      960     1100   
                                          VAR    BASINP    GEOM    SYMINP    ZMAT    AOBASIS   BASIS     P2S    ABASIS      S 
                                         1400     1410     1200     1210     1080     1600     1650     1700   
                                           T        V       H0       H01     AOSYM     SMH    MOLCAS    OPER   

              2       8       17.39       700     1000      520     2100     7360     7350      200     2101   
                                         GEOM     BASIS   MCVARS     RHF    F12ABS    EF12    OPTIONS    RHF  

 PROGRAMS   *        TOTAL       INT   CCSD(T)    HF-SCF       INT   CCSD(T)    HF-SCF       INT
 CPU TIMES  *      8866.43      0.42   1614.15    271.92      0.38   6363.16    260.79    355.30
 REAL TIME  *      9183.77 SEC
 DISK USED  *         3.24 GB (local),       80.32 GB (total)
 SF USED    *         5.12 GB
 GA USED    *         4.87 MB       (max)       0.00 MB       (current)
 **********************************************************************************************************************************


 PROGRAM * RHF-SCF (CLOSED SHELL)       Authors: W. Meyer, H.-J. Werner


 NUMBER OF ELECTRONS:       5+    5-    SPACE SYMMETRY=1    SPIN SYMMETRY: Singlet 
 CONVERGENCE THRESHOLDS:    1.00E-08 (Density)    1.00E-11 (Energy)
 MAX. NUMBER OF ITERATIONS:       60
 INTERPOLATION TYPE:            DIIS
 INTERPOLATION STEPS:              2 (START)      1 (STEP)
 LEVEL SHIFTS:                  0.00 (CLOSED)  0.00 (OPEN) 



 Orbital guess generated from atomic densities. Full valence occupancy:    9

 Molecular orbital dump at record        2102.2

 Initial occupancy:   5

 ITERATION    DDIFF          GRAD             ENERGY        2-EL.EN.            DIPOLE MOMENTS         DIIS   ORB.
    1      0.000D+00      0.000D+00       -40.19609571     53.506289    0.00410   -0.00276   -0.00130    0    start
    2      0.000D+00      0.257D-02       -40.21334980     52.217622    0.00128   -0.00087   -0.00038    1    diag
    3      0.158D-02      0.998D-03       -40.21562572     52.672082    0.00182   -0.00123   -0.00055    2    diag
    4      0.442D-03      0.249D-03       -40.21594518     52.617269    0.00161   -0.00109   -0.00049    3    diag
    5      0.166D-03      0.322D-04       -40.21595067     52.619416    0.00159   -0.00107   -0.00048    4    diag
    6      0.411D-04      0.264D-05       -40.21595071     52.619553    0.00158   -0.00107   -0.00048    5    diag
    7      0.545D-05      0.212D-06       -40.21595071     52.619514    0.00158   -0.00107   -0.00048    6    diag
    8      0.222D-06      0.170D-07       -40.21595071     52.619515    0.00158   -0.00107   -0.00048    7    diag
    9      0.824D-07      0.218D-08       -40.21595071     52.619515    0.00158   -0.00107   -0.00048    8    diag
   10      0.826D-08      0.595D-09       -40.21595071     52.619515    0.00158   -0.00107   -0.00048    0    orth

 Final occupancy:   5

 !RHF STATE  1.1 Energy               -40.215950711330
 Nuclear energy                        13.68681606
 One-electron energy                  -80.21252412
 Two-electron energy                   26.30975736
 Virial quotient                       -0.99838103
 !RHF STATE  1.1 Dipole moment          0.00158331    -0.00107296    -0.00047579
 Dipole moment /Debye                   0.00402411    -0.00272703    -0.00120926

 Orbital energies:

         1.1          2.1          3.1          4.1          5.1          6.1          7.1
    -11.196224    -0.950661    -0.551889    -0.549955    -0.547776     0.024867     0.037911


 HOMO      5.1    -0.547776 =     -14.9057eV
 LUMO      6.1     0.024867 =       0.6767eV
 LUMO-HOMO         0.572642 =      15.5824eV


 **********************************************************************************************************************************
 DATASETS  * FILE   NREC   LENGTH (MB)   RECORD NAMES
              1      18       37.12       500      610      700      900      950      970     1000      129      960     1100   
                                          VAR    BASINP    GEOM    SYMINP    ZMAT    AOBASIS   BASIS     P2S    ABASIS      S 
                                         1400     1410     1200     1210     1080     1600     1650     1700   
                                           T        V       H0       H01     AOSYM     SMH    MOLCAS    OPER   

              2       9       27.51       700     1000      520     2100     7360     7350      200     2101     2102   
                                         GEOM     BASIS   MCVARS     RHF    F12ABS    EF12    OPTIONS    RHF      RHF  

 PROGRAMS   *        TOTAL    HF-SCF       INT   CCSD(T)    HF-SCF       INT   CCSD(T)    HF-SCF       INT
 CPU TIMES  *      9085.75    219.31      0.42   1614.15    271.92      0.38   6363.16    260.79    355.30
 REAL TIME  *      9427.47 SEC
 DISK USED  *         3.24 GB (local),       80.32 GB (total)
 SF USED    *         5.12 GB
 GA USED    *         4.87 MB       (max)       0.00 MB       (current)
 **********************************************************************************************************************************

 Basis set:  JKFIT                   
 Basis size:  1104
 Attributes:
 Sphericals:   T
 Basis set:  MP2FIT                  
 Basis size:  1246
 Attributes:
 Sphericals:   T
 Basis set:  RI                      
 Basis size:   730
 Attributes:
 Sphericals:   T
 Basis set:  TDDFT                   
 Basis size:  1246
 Attributes:
 Sphericals:   T

 PROGRAM * CCSD (Closed-shell coupled cluster)     Authors: C. Hampel, H.-J. Werner, 1991, M. Deegan, P.J. Knowles, 1992

                                  CCSD-F12 implementation by  H.-J. Werner, 2007

                   Density fitting integral evaluation by F.R. Manby, 2003,2007, G. Knizia, 2010



 Convergence thresholds:  THRVAR = 1.00D-08  THRDEN = 1.00D-10

 CCSD(T)     terms to be evaluated (factor= 1.000)


 Number of core orbitals:           1 (   1 )
 Number of closed-shell orbitals:   4 (   4 )
 Number of external orbitals:     431 ( 431 )

 Molecular orbitals read from record     2102.2  Type=RHF/CANONICAL (state 1.1)

 MP2-F12 correlation treatment (H.-J. Werner, 2006)
 ==================================================

 Using MP2-F12 with ansatz 3C(FIX)

 Using projected zeroth-order Hamiltonian (+Z)

 FOCKRIB=T FOCKRIC=T FOCKRIP=T CABSP=T CABSA=T CABSK=T CABSF=T GBC=F EBC=F DMAT=T NOFIK=T NOPAO=1 SOLVE=-1  USEPAO=0
 EXCH_A= T EXCH_B= F EXCH_C= F EXCH_P= F

 Geminal basis:    OPTFULL  GEM_TYPE=SLATER  BETA=1.0  NGEM=6

 Optimizing Gaussian exponents for each gem_beta

 Geminal optimization for beta= 1.0000
 Weight function:   m=0, omega= 1.4646

 Augmented Hessian optimization of geminal fit. Trust ratio= 0.40000
 Convergence reached after   2 iterations. Final gradient= 7.85D-16, Step= 4.26D-06, Delta= 1.28D-09

 Alpha:                 0.19532     0.81920     2.85917     9.50073    35.69989   197.79328
 Coeff:                 0.27070     0.30552     0.18297     0.10986     0.06810     0.04224


 All pairs explicitly correlated. Number of r12-pairs:           10

 Excluding core orbitals from MO domains

 AO(A)-basis ORBITAL           loaded. Number of functions:     436
 RI(R)-basis RI                loaded. Number of functions:     730
 DF-basis JKFIT                loaded. Number of functions:    1104

 Screening thresholds:   THRAO=  1.00D-10  THRMO=  1.00D-09  THRPROD=  1.00D-09
                         THRSW=  1.00D-05  THROV=  1.00D-12  THRAOF12= 1.00D-10

 CPU time for Fock operators                      9.95 sec

 Construction of ABS:
 Smallest eigenvalue of S          2.27E-04  (threshold= 1.00E-08)
 Ratio eigmin/eigmax               3.94E-05  (threshold= 1.00E-09)
 Smallest eigenvalue of S kept     2.27E-04  (threshold= 2.27E-04, 0 functions deleted, 730 kept)

 Construction of CABS:
 Smallest eigenvalue of S          1.55E-08  (threshold= 1.00E-08)
 Ratio eigmin/eigmax               1.55E-08  (threshold= 1.00E-09)
 Smallest eigenvalue of S kept     1.55E-08  (threshold= 1.55E-08, 0 functions deleted, 730 kept)

 CPU time for CABS singles                        2.22 sec

 CABS-singles contribution of  -0.00024509 patched into reference energy.
 New reference energy         -40.21619580

 AO(A)-basis ORBITAL           loaded. Number of functions:     436
 RI(R)-basis RI                loaded. Number of functions:     730
 DF-basis MP2FIT               loaded. Number of functions:    1246

 Screening thresholds:   THRAO=  1.00D-10  THRMO=  1.00D-09  THRPROD=  1.00D-09
                         THRSW=  1.00D-05  THROV=  1.00D-12  THRAOF12= 1.00D-10

 CPU time for 3-index integral evaluation        19.16 sec
 CPU time for first  half transformation          3.63 sec ( 1808.1 MFLOP/sec)
 CPU time for second half transformation          0.04 sec (  957.9 MFLOP/sec)
 CPU time for sorting                             0.06 sec
 CPU time for fitting                             1.44 sec ( 3454.3 MFLOP/sec)
 CPU time for tilde quantities                    1.46 sec ( 3449.6 MFLOP/sec)
 CPU time for assembly                            4.87 sec ( 4405.9 MFLOP/sec)
 CPU time for tranop_f12                          4.47 sec ( 3624.6 MFLOP/sec)
 CPU time for f12 integrals (total)              42.27 sec, Elapsed time:     43.41 sec
 F12-matrices built in  4 passes.
 F12-matrices built in  4 passes.
 F12-matrices built in  4 passes.
 F12-matrices built in  4 passes.
 FC-matrix built in  4 passes.
 CPU time for f12 matrices (total)                1.61 sec, Elapsed time:      1.62 sec

 Diagonal F12 approximation with fixed coefficients:  TSING= 0.500,  TTRIP= 0.250 (scaled by -1/beta)

 DF-MP2-F12 energy corrections:
 ==============================
 Approx.                                    Singlet             Triplet             Total
 DF-MP2-F12/3*C(DX,FIX)                -0.007491612847     -0.000574555324     -0.008066168171
 DF-MP2-F12/3*C(FIX)                   -0.007044541142     -0.000473186510     -0.007517727653
 DF-MP2-F12/3C(FIX)                    -0.007073492659     -0.000486694859     -0.007560187519

 DF-MP2-F12 correlation energies:
 ================================
 Approx.                                    Singlet             Triplet             Ecorr            Total Energy
 DF-MP2                                -0.154425018598     -0.056464345801     -0.210889364400    -40.427085163361
 DF-MP2-F12/3*C(DX,FIX)                -0.161916631446     -0.057038901125     -0.218955532571    -40.435151331532
 DF-MP2-F12/3*C(FIX)                   -0.161469559741     -0.056937532312     -0.218407092052    -40.434602891014
 DF-MP2-F12/3C(FIX)                    -0.161498511258     -0.056951040661     -0.218449551919    -40.434645350880

 SCS-DF-MP2 energies (F_SING= 1.20000  F_TRIP= 0.62222  F_PARALLEL= 0.33333):
 ============================================================================
 SCS-DF-MP2                            -0.220443393039    -40.436639192000
 SCS-DF-MP2-F12/3*C(DX,FIX)            -0.229790829546    -40.445986628508
 SCS-DF-MP2-F12/3*C(FIX)               -0.229191269572    -40.445387068533
 SCS-DF-MP2-F12/3C(FIX)                -0.229234416587    -40.445430215549
 Symmetry transformation completed.

 Number of N-1 electron functions:               4
 Number of N-2 electron functions:              10
 Number of singly external CSFs:              1724
 Number of doubly external CSFs:           1486950
 Total number of CSFs:                     1488675

 Pair and operator lists are different

 Length of J-op  integral file:             203.65 MB
 Length of K-op  integral file:             338.08 MB
 Length of 3-ext integral record:             0.00 MB

 Memory could be reduced to 526.20 Mwords without degradation in triples

 Integral transformation finished. Total CPU: 177.99 sec, npass=  1  Memory used: 214.75 MW

 Reference energy:                    -40.21619580

 Adding F12 terms to K(Cij), methodcc=6,  factor= 1.0

 ITER.      SQ.NORM     CORR.ENERGY   TOTAL ENERGY   ENERGY CHANGE        DEN1      VAR(S)    VAR(P)  DIIS     TIME  TIME/IT
   1      1.07024089    -0.22512281   -40.44131861    -0.01422809    -0.00847365  0.63D-03  0.94D-03  1  1   293.09    55.47
   2      1.07517146    -0.22597300   -40.44216879    -0.00085019    -0.00530354  0.15D-04  0.10D-03  2  2   347.42    55.92
   3      1.07679445    -0.22606080   -40.44225660    -0.00008781    -0.00117773  0.22D-05  0.59D-05  3  3   401.46    56.11
   4      1.07717747    -0.22606809   -40.44226389    -0.00000729    -0.00020557  0.14D-06  0.33D-06  4  4   455.11    56.03
   5      1.07722954    -0.22606972   -40.44226552    -0.00000163    -0.00000895  0.11D-07  0.21D-07  5  5   509.04    56.05
   6      1.07723813    -0.22606843   -40.44226423     0.00000129    -0.00000326  0.77D-09  0.16D-08  6  6   563.41    56.17
   7      1.07723949    -0.22606810   -40.44226390     0.00000033    -0.00000085  0.51D-10  0.12D-09  6  1   617.98    56.27
   8      1.07723946    -0.22606817   -40.44226397    -0.00000007     0.00000020  0.54D-11  0.73D-11  6  3   672.60    56.36
   9      1.07723959    -0.22606815   -40.44226395     0.00000002    -0.00000009  0.40D-12  0.59D-12  6  2   727.36    56.41
  10      1.07723960    -0.22606815   -40.44226395     0.00000000     0.00000001  0.51D-13  0.59D-13  6  4   781.69    56.42
  11      1.07723960    -0.22606815   -40.44226395     0.00000000     0.00000000  0.47D-14  0.59D-14  6  5   836.55    56.47
  12      1.07723960    -0.22606815   -40.44226395     0.00000000     0.00000000  0.11D-15  0.64D-15  6  6   889.43    56.33
  13      1.07723960    -0.22606815   -40.44226395    -0.00000000     0.00000000  0.78D-17  0.67D-16  6  1   942.73    56.26
  14      1.07723960    -0.22606815   -40.44226395    -0.00000000     0.00000000  0.11D-17  0.83D-17  6  3   995.26    56.15

 Norm of t1 vector:      0.03291665      S-energy:    -0.00000000      T1 diagnostic:  0.00822916
                                                                       D1 diagnostic:  0.01319223

 Adding energy correction from Wij-K(Fij), methodcc=6  factor= 1.0

  CCSD correlation energy              -0.226068149720
  MP2-F12 correction (uncoupled)       -0.007436485290
  C*T doubles correction               -0.000126572807
  f12b correction                       0.001936279453

 Total CPU time for triples:    450.25 sec

  Ecorr(MP2)                           -0.210894717091
  Ecorr(MP2-F12)                       -0.218454904610
  Scale factor for triples energy       1.035848159798


 RESULTS
 =======

  Reference energy                    -40.215950711331
  F12 singles correction               -0.000245087631

 F12 singles corrections added to reference energy

  New reference energy                -40.216195798961

  F12a singlet correction              -0.007073955525
  F12a triplet correction              -0.000489102571
  F12a total correction                -0.007563058096

 F12a corrections for ansatz F12/3C(FIX) added to CCSD energy

  CCSD-F12a singlet pair energy        -0.178450172531
  CCSD-F12a triplet pair energy        -0.055181035281
  CCSD-F12a correlation energy         -0.233631207816

  Triples (T) contribution (scaled)    -0.007053198131
  Total correlation energy             -0.240684405947

  CCSD-F12a total energy              -40.449827006777
  CCSD[T]-F12a energy                 -40.457116729302
  CCSD-T-F12a energy                  -40.456810354683
 !CCSD(T)-F12a total energy           -40.456880204909

 F12b corrections for ansatz F12/3C(FIX) added to CCSD(T)-F12a energy

  CCSD-F12b singlet pair energy        -0.176581433022
  CCSD-F12b triplet pair energy        -0.055113495337
  CCSD-F12b correlation energy         -0.231694928363

  Triples (T) contribution (scaled)    -0.007053198131
  Total correlation energy             -0.238748126494

  CCSD-F12b total energy              -40.447890727324
  CCSD[T]-F12b energy                 -40.455180449849
  CCSD-T-F12b energy                  -40.454874075230
 !CCSD(T)-F12b total energy           -40.454943925456

 Timing summary (sec):

 STEP                 CPU(USER)    SYS     CPU(TOT)    WALL
 Transformation        178.38      6.70    185.08    185.36
 CCSD iterations       755.78     29.44    785.22    786.33
 Triples               450.25      3.69    453.94    454.60
 MP2-F12                61.20      1.33     62.53     62.61
 F12b energy            48.20      1.63     49.83     49.93

 Program statistics:

 Available memory in ccsd:              1999999866
 Min. memory needed in ccsd:               6763924
 Max. memory used in ccsd:                 7862874
 Max. memory used in cckext:               5171974 (15 integral passes)



 **********************************************************************************************************************************
 DATASETS  * FILE   NREC   LENGTH (MB)   RECORD NAMES
              1      19     1346.98       500      610      700      900      950      970     1000      129      960     1100   
                                          VAR    BASINP    GEOM    SYMINP    ZMAT    AOBASIS   BASIS     P2S    ABASIS      S 
                                         1400     1410     1200     1210     1080     1600     1650     1700     1380   
                                           T        V       H0       H01     AOSYM     SMH    MOLCAS    OPER     JKOP   

              2       9       27.51       700     1000      520     2100     7360     7350      200     2101     2102   
                                         GEOM     BASIS   MCVARS     RHF    F12ABS    EF12    OPTIONS    RHF      RHF  

 PROGRAMS   *        TOTAL   CCSD(T)    HF-SCF       INT   CCSD(T)    HF-SCF       INT   CCSD(T)    HF-SCF       INT
 CPU TIMES  *     10579.80   1494.05    219.31      0.42   1614.15    271.92      0.38   6363.16    260.79    355.30
 REAL TIME  *     10967.35 SEC
 DISK USED  *         3.24 GB (local),       80.32 GB (total)
 SF USED    *         5.12 GB
 GA USED    *         4.87 MB       (max)       0.00 MB       (current)
 **********************************************************************************************************************************
 Molecular orbitals read from record     2102.2  Type=RHF/CANONICAL (state 1.1)
 Occupation numbers read from record     2102.2  Type=RHF/RHF (state 1.1)
 Orbital energies read from record       2102.2  Type=RHF/CANONICAL (state 1.1)
 Redundancy group numbers read from rec  2102.2  Type=RHF/RHF (state 1.1)

 CCSD(T)-F12/aug-cc-pVQZ energy=    -40.454943925456

     CCSD(T)-F12          HF-SCF     CCSD(T)-F12          HF-SCF     CCSD(T)-F12          HF-SCF
    -40.45494393    -40.21595071    -76.37136961    -76.06398085   -116.82665734   -116.27933348
 **********************************************************************************************************************************
 Molpro calculation terminated
