
 Primary working directories    : /scratch/klimes/383231/molpro.gHxTPBkqEZ
 Secondary working directories  : /scratch/klimes/383231/molpro.gHxTPBkqEZ
 Wavefunction directory         : /scratch/klimes/383231/
 Main file repository           : /scratch/klimes/383231/molpro.gHxTPBkqEZ/

 id        : karlovklimes

 Nodes                      nprocs
 nc-03.cc.karlov.mff.cuni.cz    4

 Using customized tuning parameters: mindgm=1; mindgv=20; mindgc=4; mindgr=1; noblas=0; minvec=7
 default implementation of scratch files=sf  


 Variables initialized (930), CPU time= 0.01 sec
                                                                                 !gdirect
 memory,2000,m
 gthresh,orbital=1d-10,energy=1d-10,grid=1d-8
 
 symmetry,nosym
 angstrom
 geometry={
 O2        -0.069900000000     -0.226200000000      2.872700000000
 H3         0.635400000000     -0.815900000000      3.168900000000
 H4        -0.918500000000     -0.721300000000      3.072500000000
 C1        -3.277200000000      1.482500000000      1.271900000000
 H41        -2.464000000000      0.899600000000      1.651000000000
 H42        -3.160800000000      2.501000000000      1.578500000000
 H43        -4.201800000000      1.099200000000      1.650100000000
 H44        -3.268500000000      1.421000000000      0.203700000000
 }
 
 nkerna=1
 nkernb=1
 
 gf=0
 sing=1
 thrdum=1d-4
 gridthr=1d-8
 
 basis={
 set,orbital
 default,avqz
 set,jkfit
 default,av5z/jkfit
 set,mp2fit
 default,av5z/mp2fit
 set,ri
 default,av5z/optri
 set,tddft
 default,av5z/mp2fit
 }
 
 proc set_monomer1
 dummy,4,5,6,7,8
 endproc
 
 proc set_monomer2
 dummy,1,2,3
 endproc
 
                                                                                 !12 energy
 {hf,accu=1.d-16}
 {ccsd(t)-f12,df_basis=mp2fit,df_basis_exch=jkfit,ri_basis=ri,scale_trip=1,THRAOF12=1d-10}
 
 set_monomer1
 {hf,accu=1.d-16}
 {ccsd(t)-f12,df_basis=mp2fit,df_basis_exch=jkfit,ri_basis=ri,scale_trip=1,THRAOF12=1d-10}
 
 set_monomer2
 {hf,accu=1.d-16}
 {ccsd(t)-f12,df_basis=mp2fit,df_basis_exch=jkfit,ri_basis=ri,scale_trip=1,THRAOF12=1d-10}
 
 Commands  initialized (760), CPU time= 0.01 sec, 617 directives.
 Default parameters read. Elapsed time= 0.20 sec

 Checking input...
 Passed
1


                                         ***  PROGRAM SYSTEM MOLPRO  ***
                                       Copyright, TTI GmbH Stuttgart, 2015
                                    Version 2019.1 linked Jan 14 2019 13:09:19


 **********************************************************************************************************************************
 LABEL *                                                                                 
  64 bit mpp version                                                                     DATE: 11-Mar-20          TIME: 16:32:30  
 **********************************************************************************************************************************

 SHA1:             d688ac825633d238f2093ded1675ba87ccd55965
 **********************************************************************************************************************************

 THRESHOLDS:

 ZERO    =  1.00D-12  ONEINT  =  1.00D-12  TWOINT  =  1.00D-11  PREFAC  =  1.00D-14  XXXXXX  =  1.00D-09  EORDER  =  1.00D-04
 ENERGY  =  1.00D-10  ETEST   =  0.00D+00  EDENS   =  0.00D+00  THRDEDEF=  1.00D-06  GRADIENT=  1.00D-02  STEP    =  1.00D-03
 ORBITAL =  1.00D-10  CIVEC   =  1.00D-05  COEFF   =  1.00D-04  PRINTCI =  5.00D-02  PUNCHCI =  9.90D+01  OPTGRAD =  3.00D-04
 OPTENERG=  1.00D-06  OPTSTEP =  3.00D-04  THRGRAD =  1.00D-10  COMPRESS=  1.00D-11  VARMIN  =  1.00D-07  VARMAX  =  1.00D-03
 THRDOUB =  0.00D+00  THRDIV  =  1.00D-05  THRRED  =  1.00D-07  THRPSP  =  1.00D+00  THRDC   =  1.00D-10  THRCS   =  1.00D-10
 THRNRM  =  1.00D-08  THREQ   =  0.00D+00  THRDE   =  1.00D+00  THRREF  =  1.00D-05  SPARFAC =  1.00D+00  THRDLP  =  1.00D-07
 THRDIA  =  1.00D-10  THRDLS  =  1.00D-07  THRGPS  =  0.00D+00  THRKEX  =  0.00D+00  THRDIS  =  2.00D-01  THRVAR  =  1.00D-10
 THRLOC  =  1.00D-06  THRGAP  =  1.00D-06  THRLOCT = -1.00D+00  THRGAPT = -1.00D+00  THRORB  =  1.00D-06  THRMLTP =  0.00D+00
 THRCPQCI=  1.00D-10  KEXTA   =  0.00D+00  THRCOARS=  0.00D+00  SYMTOL  =  1.00D-06  GRADTOL =  1.00D-06  THROVL  =  1.00D-08
 THRORTH =  1.00D-08  GRID    =  1.00D-08  GRIDMAX =  1.00D-03  DTMAX   =  0.00D+00  THROCCDE=  1.00D-01  THROCCDE=  1.00D-01
 THRPRINT=  2.50D-01


 Variable memory set to 2000000000 words,  buffer space 

 ZSYMEL=NOSYM
 ZUNIT=ANG


Geometry recognized as XYZ

 SETTING NKERNA         =         1.00000000                                  
 SETTING NKERNB         =         1.00000000                                  
 SETTING GF             =     0.00000000D+00                                  
 SETTING SING           =         1.00000000                                  
 SETTING THRDUM         =     1.00000000D-04                                  
 SETTING GRIDTHR        =     1.00000000D-08                                  
 SETTING BASIS          =    AVQZ


 Recomputing integrals since basis changed


 Using spherical harmonics

 Library entry O      S aug-cc-pVQZ          selected for orbital group  1
 Library entry O      P aug-cc-pVQZ          selected for orbital group  1
 Library entry O      D aug-cc-pVQZ          selected for orbital group  1
 Library entry O      F aug-cc-pVQZ          selected for orbital group  1
 Library entry O      G aug-cc-pVQZ          selected for orbital group  1
 Library entry H      S aug-cc-pVQZ          selected for orbital group  2
 Library entry H      P aug-cc-pVQZ          selected for orbital group  2
 Library entry H      D aug-cc-pVQZ          selected for orbital group  2
 Library entry H      F aug-cc-pVQZ          selected for orbital group  2
 Library entry C      S aug-cc-pVQZ          selected for orbital group  3
 Library entry C      P aug-cc-pVQZ          selected for orbital group  3
 Library entry C      D aug-cc-pVQZ          selected for orbital group  3
 Library entry C      F aug-cc-pVQZ          selected for orbital group  3
 Library entry C      G aug-cc-pVQZ          selected for orbital group  3


 PROGRAM * SEWARD (Integral evaluation for generally contracted gaussian basis sets)     Author: Roland Lindh, 1990

 Geometry written to block  1 of record 700


 Point group  C1  



 ATOMIC COORDINATES

 NR  ATOM    CHARGE       X              Y              Z

   1  O2      8.00   -0.132091856   -0.427456049    5.428616238
   2  H3      1.00    1.200731980   -1.541827545    5.988353116
   3  H4      1.00   -1.735713445   -1.363059454    5.806183518
   4  C1      6.00   -6.193010455    2.801518980    2.403542658
   5  H41     1.00   -4.656285171    1.699997622    3.119937832
   6  H42     1.00   -5.973046335    4.726205038    2.982932688
   7  H43     1.00   -7.940251230    2.077186956    3.118237078
   8  H44     1.00   -6.176569838    2.685300823    0.384937212

 Bond lengths in Bohr (Angstrom)

 1-2  1.825253018  1-3  1.894601009  4-5  2.021904040  4-6  2.022002335  4-7  2.021953343
     ( 0.965882301)     ( 1.002579678)     ( 1.069945541)     ( 1.069997556)     ( 1.069971630)

 4-8  2.022015060
     ( 1.070004290)

 Bond angles

  2-1-3  104.80057086   5-4-6  109.53398059   5-4-7  109.65604535   5-4-8  108.43490854

  6-4-7  109.49436728   6-4-8  109.86987750   7-4-8  109.83468330

 NUCLEAR CHARGE:                   20
 NUMBER OF PRIMITIVE AOS:         578
 NUMBER OF SYMMETRY AOS:          474
 NUMBER OF CONTRACTIONS:          436   (  436A   )
 NUMBER OF CORE ORBITALS:           2   (    2A   )
 NUMBER OF VALENCE ORBITALS:       14   (   14A   )


 NUCLEAR REPULSION ENERGY   35.86337232


 Basis set:  JKFIT                   
 Basis size:  1104
 Attributes:
 Sphericals:   T
 Basis set:  MP2FIT                  
 Basis size:  1246
 Attributes:
 Sphericals:   T
 Basis set:  RI                      
 Basis size:   730
 Attributes:
 Sphericals:   T
 Basis set:  TDDFT                   
 Basis size:  1246
 Attributes:
 Sphericals:   T

 **********************************************************************************************************************************


 Eigenvalues of metric

         1 0.104E-04 0.170E-04 0.328E-04 0.347E-04 0.435E-04 0.686E-04 0.833E-04 0.959E-04


 Contracted 2-electron integrals neglected if value below      1.0D-14
 AO integral compression algorithm  1   Integral accuracy      1.0D-14

     22067.282 MB (compressed) written to integral file ( 55.0%)

     Node minimum: 4865.917 MB, node maximum: 6194.463 MB


 NUMBER OF SORTED TWO-ELECTRON INTEGRALS: 1134451344.     BUFFER LENGTH:  32768
 NUMBER OF SEGMENTS:  36  SEGMENT LENGTH:   31999984      RECORD LENGTH: 524288

 Memory used in sort:      32.56 MW

 SORT1 READ  5012305700. AND WROTE   928236519. INTEGRALS IN   2670 RECORDS. CPU TIME:   121.61 SEC, REAL TIME:   143.41 SEC
 SORT2 READ  3710139177. AND WROTE  4537853011. INTEGRALS IN  90732 RECORDS. CPU TIME:    18.95 SEC, REAL TIME:    29.37 SEC

 Node minimum:  1134427528.  Node maximum:  1134498978. integrals

 OPERATOR DM      FOR CENTER  0  COORDINATES:    0.000000    0.000000    0.000000


 **********************************************************************************************************************************
 DATASETS  * FILE   NREC   LENGTH (MB)   RECORD NAMES
              1      18       37.12       500      610      700      900      950      970     1000      129      960     1100   
                                          VAR    BASINP    GEOM    SYMINP    ZMAT    AOBASIS   BASIS     P2S    ABASIS      S 
                                         1400     1410     1200     1210     1080     1600     1650     1700   
                                           T        V       H0       H01     AOSYM     SMH    MOLCAS    OPER   

 PROGRAMS   *        TOTAL       INT
 CPU TIMES  *       203.79    203.49
 REAL TIME  *       252.84 SEC
 DISK USED  *        37.64 MB (local),       66.76 GB (total)
 GA USED    *         0.00 MB       (max)       0.00 MB       (current)
 **********************************************************************************************************************************


 PROGRAM * RHF-SCF (CLOSED SHELL)       Authors: W. Meyer, H.-J. Werner


 NUMBER OF ELECTRONS:      10+   10-    SPACE SYMMETRY=1    SPIN SYMMETRY: Singlet 
 CONVERGENCE THRESHOLDS:    1.00E-08 (Density)    1.00E-11 (Energy)
 MAX. NUMBER OF ITERATIONS:       60
 INTERPOLATION TYPE:            DIIS
 INTERPOLATION STEPS:              2 (START)      1 (STEP)
 LEVEL SHIFTS:                  0.00 (CLOSED)  0.00 (OPEN) 



 Orbital guess generated from atomic densities. Full valence occupancy:   16

 Molecular orbital dump at record        2100.2

 Initial occupancy:  10

 ITERATION    DDIFF          GRAD             ENERGY        2-EL.EN.            DIPOLE MOMENTS         DIIS   ORB.
    1      0.000D+00      0.000D+00      -116.21935601    157.405676   -0.14340   -1.05290    0.47907    0    start
    2      0.000D+00      0.379D-02      -116.26345826    152.396413   -0.02213   -0.59350    0.27844    1    diag
    3      0.273D-02      0.224D-02      -116.27720017    154.481383   -0.05175   -0.71181    0.32924    2    diag
    4      0.955D-03      0.332D-03      -116.27786566    154.367853   -0.04909   -0.70188    0.32434    3    diag
    5      0.207D-03      0.980D-04      -116.27793633    154.363550   -0.04826   -0.70137    0.32410    4    diag
    6      0.847D-04      0.238D-04      -116.27794032    154.369225   -0.04799   -0.70060    0.32371    5    diag
    7      0.229D-04      0.484D-05      -116.27794057    154.367637   -0.04796   -0.70060    0.32370    6    diag
    8      0.675D-05      0.124D-05      -116.27794059    154.367820   -0.04792   -0.70053    0.32367    7    diag
    9      0.150D-05      0.291D-06      -116.27794059    154.367792   -0.04791   -0.70051    0.32366    8    diag
   10      0.449D-06      0.336D-07      -116.27794059    154.367792   -0.04791   -0.70051    0.32366    9    orth
   11      0.513D-07      0.778D-08      -116.27794059    154.367794   -0.04791   -0.70051    0.32366    9    diag
   12      0.104D-07      0.204D-08      -116.27794059    154.367793   -0.04791   -0.70051    0.32366    9    diag
   13      0.246D-08      0.531D-09      -116.27794059    154.367794   -0.04791   -0.70051    0.32366    0    orth

 Final occupancy:  10

 !RHF STATE  1.1 Energy              -116.277940587983
 Nuclear energy                        35.86337232
 One-electron energy                 -229.32520976
 Two-electron energy                   77.18389685
 Virial quotient                       -1.00086207
 !RHF STATE  1.1 Dipole moment         -0.04790844    -0.70051144     0.32366106
 Dipole moment /Debye                  -0.12176312    -1.78040587     0.82261047

 Orbital energies:

         1.1          2.1          3.1          4.1          5.1          6.1          7.1          8.1          9.1         10.1
    -20.570249   -11.191276    -1.340721    -0.945911    -0.705521    -0.580695    -0.547030    -0.545393    -0.542500    -0.509412

        11.1         12.1
      0.023224     0.035927


 HOMO     10.1    -0.509412 =     -13.8618eV
 LUMO     11.1     0.023224 =       0.6319eV
 LUMO-HOMO         0.532635 =      14.4937eV


 **********************************************************************************************************************************
 DATASETS  * FILE   NREC   LENGTH (MB)   RECORD NAMES
              1      18       37.12       500      610      700      900      950      970     1000      129      960     1100   
                                          VAR    BASINP    GEOM    SYMINP    ZMAT    AOBASIS   BASIS     P2S    ABASIS      S 
                                         1400     1410     1200     1210     1080     1600     1650     1700   
                                           T        V       H0       H01     AOSYM     SMH    MOLCAS    OPER   

              2       4        6.75       700     1000      520     2100   
                                         GEOM     BASIS   MCVARS     RHF  

 PROGRAMS   *        TOTAL    HF-SCF       INT
 CPU TIMES  *       467.68    263.89    203.49
 REAL TIME  *       549.59 SEC
 DISK USED  *        57.70 MB (local),       66.84 GB (total)
 SF USED    *         0.76 MB
 GA USED    *         0.00 MB       (max)       0.00 MB       (current)
 **********************************************************************************************************************************

 Basis set:  JKFIT                   
 Basis size:  1104
 Attributes:
 Sphericals:   T
 Basis set:  MP2FIT                  
 Basis size:  1246
 Attributes:
 Sphericals:   T
 Basis set:  RI                      
 Basis size:   730
 Attributes:
 Sphericals:   T
 Basis set:  TDDFT                   
 Basis size:  1246
 Attributes:
 Sphericals:   T

 PROGRAM * CCSD (Closed-shell coupled cluster)     Authors: C. Hampel, H.-J. Werner, 1991, M. Deegan, P.J. Knowles, 1992

                                  CCSD-F12 implementation by  H.-J. Werner, 2007

                   Density fitting integral evaluation by F.R. Manby, 2003,2007, G. Knizia, 2010



 Convergence thresholds:  THRVAR = 1.00D-08  THRDEN = 1.00D-10

 CCSD(T)     terms to be evaluated (factor= 1.000)


 Number of core orbitals:           2 (   2 )
 Number of closed-shell orbitals:   8 (   8 )
 Number of external orbitals:     426 ( 426 )

 Molecular orbitals read from record     2100.2  Type=RHF/CANONICAL (state 1.1)

 MP2-F12 correlation treatment (H.-J. Werner, 2006)
 ==================================================

 Using MP2-F12 with ansatz 3C(FIX)

 Using projected zeroth-order Hamiltonian (+Z)

 FOCKRIB=T FOCKRIC=T FOCKRIP=T CABSP=T CABSA=T CABSK=T CABSF=T GBC=F EBC=F DMAT=T NOFIK=T NOPAO=1 SOLVE=-1  USEPAO=0
 EXCH_A= T EXCH_B= F EXCH_C= F EXCH_P= F

 Geminal basis:    OPTFULL  GEM_TYPE=SLATER  BETA=1.0  NGEM=6

 Optimizing Gaussian exponents for each gem_beta

 Geminal optimization for beta= 1.0000
 Weight function:   m=0, omega= 1.4646

 Augmented Hessian optimization of geminal fit. Trust ratio= 0.40000
 Convergence reached after   2 iterations. Final gradient= 7.85D-16, Step= 4.26D-06, Delta= 1.28D-09

 Alpha:                 0.19532     0.81920     2.85917     9.50073    35.69989   197.79328
 Coeff:                 0.27070     0.30552     0.18297     0.10986     0.06810     0.04224


 All pairs explicitly correlated. Number of r12-pairs:           36

 Excluding core orbitals from MO domains

 AO(A)-basis ORBITAL           loaded. Number of functions:     436
 RI(R)-basis RI                loaded. Number of functions:     730
 DF-basis JKFIT                loaded. Number of functions:    1104

 Screening thresholds:   THRAO=  1.00D-10  THRMO=  1.00D-09  THRPROD=  1.00D-09
                         THRSW=  1.00D-05  THROV=  1.00D-12  THRAOF12= 1.00D-10

 CPU time for Fock operators                     12.12 sec

 Construction of ABS:
 Smallest eigenvalue of S          2.24E-04  (threshold= 1.00E-08)
 Ratio eigmin/eigmax               3.90E-05  (threshold= 1.00E-09)
 Smallest eigenvalue of S kept     2.24E-04  (threshold= 2.24E-04, 0 functions deleted, 730 kept)

 Construction of CABS:
 Smallest eigenvalue of S          1.41E-08  (threshold= 1.00E-08)
 Ratio eigmin/eigmax               1.41E-08  (threshold= 1.00E-09)
 Smallest eigenvalue of S kept     1.41E-08  (threshold= 1.41E-08, 0 functions deleted, 730 kept)

 CPU time for CABS singles                        2.25 sec

 CABS-singles contribution of  -0.00052599 patched into reference energy.
 New reference energy        -116.27846658

 AO(A)-basis ORBITAL           loaded. Number of functions:     436
 RI(R)-basis RI                loaded. Number of functions:     730
 DF-basis MP2FIT               loaded. Number of functions:    1246

 Screening thresholds:   THRAO=  1.00D-10  THRMO=  1.00D-09  THRPROD=  1.00D-09
                         THRSW=  1.00D-05  THROV=  1.00D-12  THRAOF12= 1.00D-10

 CPU time for 3-index integral evaluation        19.78 sec
 CPU time for first  half transformation          6.00 sec ( 2149.0 MFLOP/sec)
 CPU time for second half transformation          0.15 sec ( 1019.0 MFLOP/sec)
 CPU time for sorting                             0.19 sec
 CPU time for fitting                             1.88 sec ( 3950.7 MFLOP/sec)
 CPU time for tilde quantities                    2.34 sec ( 4304.6 MFLOP/sec)
 CPU time for assembly                           16.52 sec ( 4292.9 MFLOP/sec)
 CPU time for tranop_f12                         16.22 sec ( 4192.0 MFLOP/sec)
 CPU time for f12 integrals (total)              85.88 sec, Elapsed time:     89.30 sec
 F12-matrices built in  4 passes.
 F12-matrices built in  4 passes.
 F12-matrices built in  4 passes.
 F12-matrices built in  4 passes.
 FC-matrix built in  4 passes.
 CPU time for f12 matrices (total)                6.55 sec, Elapsed time:      6.70 sec

 Diagonal F12 approximation with fixed coefficients:  TSING= 0.500,  TTRIP= 0.250 (scaled by -1/beta)

 DF-MP2-F12 energy corrections:
 ==============================
 Approx.                                    Singlet             Triplet             Total
 DF-MP2-F12/3*C(DX,FIX)                -0.021213429112     -0.002106839281     -0.023320268393
 DF-MP2-F12/3*C(FIX)                   -0.019147866053     -0.001552606485     -0.020700472538
 DF-MP2-F12/3C(FIX)                    -0.019165835297     -0.001603799268     -0.020769634565

 DF-MP2-F12 correlation energies:
 ================================
 Approx.                                    Singlet             Triplet             Ecorr            Total Energy
 DF-MP2                                -0.341074988060     -0.158525673018     -0.499600661078   -116.778067239253
 DF-MP2-F12/3*C(DX,FIX)                -0.362288417172     -0.160632512299     -0.522920929471   -116.801387507646
 DF-MP2-F12/3*C(FIX)                   -0.360222854113     -0.160078279502     -0.520301133615   -116.798767711791
 DF-MP2-F12/3C(FIX)                    -0.360240823357     -0.160129472286     -0.520370295643   -116.798836873818

 SCS-DF-MP2 energies (F_SING= 1.20000  F_TRIP= 0.62222  F_PARALLEL= 0.33333):
 ============================================================================
 SCS-DF-MP2                            -0.507928182216   -116.786394760391
 SCS-DF-MP2-F12/3*C(DX,FIX)            -0.534695219370   -116.813161797545
 SCS-DF-MP2-F12/3*C(FIX)               -0.531871687737   -116.810338265912
 SCS-DF-MP2-F12/3C(FIX)                -0.531925104117   -116.810391682293
 Symmetry transformation completed.

 Number of N-1 electron functions:               8
 Number of N-2 electron functions:              36
 Number of singly external CSFs:              3408
 Number of doubly external CSFs:           5808936
 Total number of CSFs:                     5812345

 Pair and operator lists are different

 Length of J-op  integral file:               0.75 GB
 Length of K-op  integral file:               0.98 GB
 Length of 3-ext integral record:             0.00 MB

 Memory could be reduced to 828.63 Mwords without degradation in triples

 Integral transformation finished. Total CPU: 333.27 sec, npass=  1  Memory used: 389.45 MW

 Reference energy:                   -116.27846658

 Adding F12 terms to K(Cij), methodcc=6,  factor= 1.0

 ITER.      SQ.NORM     CORR.ENERGY   TOTAL ENERGY   ENERGY CHANGE        DEN1      VAR(S)    VAR(P)  DIIS     TIME  TIME/IT
   1      1.13437625    -0.51315678  -116.79162336    -0.01354674    -0.00155106  0.14D-02  0.20D-02  1  1   609.14   162.24
   2      1.14269475    -0.51379755  -116.79226413    -0.00064077    -0.01005118  0.29D-04  0.24D-03  2  2   773.94   164.89
   3      1.14575929    -0.51399206  -116.79245863    -0.00019451    -0.00215443  0.13D-04  0.14D-04  3  3   938.50   165.65
   4      1.14675382    -0.51401223  -116.79247881    -0.00002018    -0.00059144  0.68D-06  0.13D-05  4  4  1103.44   166.18
   5      1.14692442    -0.51401203  -116.79247861     0.00000020    -0.00004017  0.20D-06  0.91D-07  5  5  1267.86   166.37
   6      1.14696820    -0.51400922  -116.79247580     0.00000281    -0.00000627  0.22D-07  0.77D-08  6  6  1432.64   166.57
   7      1.14697996    -0.51400796  -116.79247454     0.00000126    -0.00000358  0.19D-08  0.75D-09  6  1  1597.65   166.71
   8      1.14698170    -0.51400802  -116.79247460    -0.00000006     0.00000042  0.27D-09  0.83D-10  6  3  1762.89   166.83
   9      1.14698276    -0.51400795  -116.79247453     0.00000007    -0.00000031  0.18D-10  0.14D-10  6  2  1928.08   166.94
  10      1.14698287    -0.51400795  -116.79247452     0.00000000     0.00000006  0.23D-11  0.15D-11  6  4  2093.14   167.03
  11      1.14698288    -0.51400795  -116.79247452     0.00000000     0.00000003  0.40D-12  0.22D-12  6  5  2258.48   167.13
  12      1.14698286    -0.51400795  -116.79247453    -0.00000000     0.00000001  0.87D-13  0.29D-13  6  6  2423.81   167.20
  13      1.14698284    -0.51400795  -116.79247453    -0.00000000     0.00000001  0.16D-13  0.41D-14  6  1  2589.24   167.26
  14      1.14698283    -0.51400795  -116.79247453    -0.00000000     0.00000000  0.24D-14  0.96D-15  6  3  2753.95   167.29
  15      1.14698283    -0.51400795  -116.79247453    -0.00000000     0.00000000  0.32D-15  0.15D-15  6  2  2919.53   167.33
  16      1.14698283    -0.51400795  -116.79247453     0.00000000    -0.00000000  0.46D-16  0.20D-16  6  4  3084.24   167.33
  17      1.14698283    -0.51400795  -116.79247453     0.00000000    -0.00000000  0.12D-16  0.36D-17  6  5  3249.26   167.35

 Norm of t1 vector:      0.04990151      S-energy:     0.00000000      T1 diagnostic:  0.00882142
                                                                       D1 diagnostic:  0.01914974

 Adding energy correction from Wij-K(Fij), methodcc=6  factor= 1.0

  CCSD correlation energy              -0.514007949113
  MP2-F12 correction (uncoupled)       -0.020187559978
  C*T doubles correction               -0.000557023276
  f12b correction                       0.004655566467

   CPU time for triples:   1943.20 sec for i =  1 -  7 /  8 (~  68.8 % done)
   CPU time for triples:   1076.74 sec for i =  8 -  8 /  8 (  100.0 % done)

 Total CPU time for triples:   3019.96 sec

  Ecorr(MP2)                           -0.499610036463
  Ecorr(MP2-F12)                       -0.520379671028
  Scale factor for triples energy       1.041571692019


 RESULTS
 =======

  Reference energy                   -116.277940587988
  F12 singles correction               -0.000525990187

 F12 singles corrections added to reference energy

  New reference energy               -116.278466578175

  F12a singlet correction              -0.019130078578
  F12a triplet correction              -0.001614504676
  F12a total correction                -0.020744583254

 F12a corrections for ansatz F12/3C(FIX) added to CCSD energy

  CCSD-F12a singlet pair energy        -0.388240391982
  CCSD-F12a triplet pair energy        -0.146512140482
  CCSD-F12a correlation energy         -0.534752532367

  Triples (T) contribution (scaled)    -0.017168930504
  Total correlation energy             -0.551921462870

  CCSD-F12a total energy             -116.813219110542
  CCSD[T]-F12a energy                -116.830958822084
  CCSD-T-F12a energy                 -116.830172174840
 !CCSD(T)-F12a total energy          -116.830388041046

 F12b corrections for ansatz F12/3C(FIX) added to CCSD(T)-F12a energy

  CCSD-F12b singlet pair energy        -0.383799711831
  CCSD-F12b triplet pair energy        -0.146297254166
  CCSD-F12b correlation energy         -0.530096965900

  Triples (T) contribution (scaled)    -0.017168930504
  Total correlation energy             -0.547265896404

  CCSD-F12b total energy             -116.808563544075
  CCSD[T]-F12b energy                -116.826303255617
  CCSD-T-F12b energy                 -116.825516608373
 !CCSD(T)-F12b total energy          -116.825732474579

 Timing summary (sec):

 STEP                 CPU(USER)    SYS     CPU(TOT)    WALL
 Transformation        334.56     10.13    344.69    347.14
 CCSD iterations      2800.33     40.16   2840.49   2845.13
 Triples              3019.96     20.88   3040.84   3045.21
 MP2-F12               114.49      3.72    118.21    118.85
 F12b energy           141.16      1.64    142.80    143.06

 Program statistics:

 Available memory in ccsd:              1999999554
 Min. memory needed in ccsd:              16971337
 Max. memory used in ccsd:                21987113
 Max. memory used in cckext:              15122080 (18 integral passes)



 **********************************************************************************************************************************
 DATASETS  * FILE   NREC   LENGTH (MB)   RECORD NAMES
              1      19     2602.04       500      610      700      900      950      970     1000      129      960     1100   
                                          VAR    BASINP    GEOM    SYMINP    ZMAT    AOBASIS   BASIS     P2S    ABASIS      S 
                                         1400     1410     1200     1210     1080     1600     1650     1700     1380   
                                           T        V       H0       H01     AOSYM     SMH    MOLCAS    OPER     JKOP   

              2       6       10.56       700     1000      520     2100     7360     7350   
                                         GEOM     BASIS   MCVARS     RHF    F12ABS    EF12   

 PROGRAMS   *        TOTAL   CCSD(T)    HF-SCF       INT
 CPU TIMES  *      6878.44   6410.75    263.89    203.49
 REAL TIME  *      7050.43 SEC
 DISK USED  *         3.24 GB (local),       77.68 GB (total)
 SF USED    *         5.12 GB
 GA USED    *         4.87 MB       (max)       0.00 MB       (current)
 **********************************************************************************************************************************

 Running procedure: SET_MONOMER1

 Dummy atoms: C1  H41  H42  H43  H44


 Recomputing one-electron integrals since nuclear charges changed


 PROGRAM * SEWARD (Integral evaluation for generally contracted gaussian basis sets)     Author: Roland Lindh, 1990

 Geometry written to block  1 of record 700


 Point group  C1  



 ATOMIC COORDINATES

 NR  ATOM    CHARGE       X              Y              Z

   1  O2      8.00   -0.132091856   -0.427456049    5.428616238
   2  H3      1.00    1.200731980   -1.541827545    5.988353116
   3  H4      1.00   -1.735713445   -1.363059454    5.806183518
   4  C1      0.00   -6.193010455    2.801518980    2.403542658
   5  H41     0.00   -4.656285171    1.699997622    3.119937832
   6  H42     0.00   -5.973046335    4.726205038    2.982932688
   7  H43     0.00   -7.940251230    2.077186956    3.118237078
   8  H44     0.00   -6.176569838    2.685300823    0.384937212

 Bond lengths in Bohr (Angstrom)

 1-2  1.825253018  1-3  1.894601009  4-5  2.021904040  4-6  2.022002335  4-7  2.021953343
     ( 0.965882301)     ( 1.002579678)     ( 1.069945541)     ( 1.069997556)     ( 1.069971630)

 4-8  2.022015060
     ( 1.070004290)

 Bond angles

  2-1-3  104.80057086   5-4-6  109.53398059   5-4-7  109.65604535   5-4-8  108.43490854

  6-4-7  109.49436728   6-4-8  109.86987750   7-4-8  109.83468330

 NUCLEAR CHARGE:                   10
 NUMBER OF PRIMITIVE AOS:         578
 NUMBER OF SYMMETRY AOS:          474
 NUMBER OF CONTRACTIONS:          436   (  436A   )
 NUMBER OF CORE ORBITALS:           1   (    1A   )
 NUMBER OF VALENCE ORBITALS:        6   (    6A   )

 MOLECULE CHANGED: INITIALIZING OCCUPATION AND DUMP RECORDS


 NUCLEAR REPULSION ENERGY    8.94474756

 Basis set:  JKFIT                   
 Basis size:  1104
 Attributes:
 Sphericals:   T
 Basis set:  MP2FIT                  
 Basis size:  1246
 Attributes:
 Sphericals:   T
 Basis set:  RI                      
 Basis size:   730
 Attributes:
 Sphericals:   T
 Basis set:  TDDFT                   
 Basis size:  1246
 Attributes:
 Sphericals:   T

 Eigenvalues of metric

         1 0.104E-04 0.170E-04 0.328E-04 0.347E-04 0.435E-04 0.686E-04 0.833E-04 0.959E-04


 Contracted 2-electron integrals neglected if value below      1.0D-14

 OPERATOR DM      FOR CENTER  0  COORDINATES:    0.000000    0.000000    0.000000


 **********************************************************************************************************************************
 DATASETS  * FILE   NREC   LENGTH (MB)   RECORD NAMES
              1      18       37.12       500      610      700      900      950      970     1000      129      960     1100   
                                          VAR    BASINP    GEOM    SYMINP    ZMAT    AOBASIS   BASIS     P2S    ABASIS      S 
                                         1400     1410     1200     1210     1080     1600     1650     1700   
                                           T        V       H0       H01     AOSYM     SMH    MOLCAS    OPER   

              2       7       10.59       700     1000      520     2100     7360     7350      200   
                                         GEOM     BASIS   MCVARS     RHF    F12ABS    EF12    OPTIONS    

 PROGRAMS   *        TOTAL       INT   CCSD(T)    HF-SCF       INT
 CPU TIMES  *      6878.83      0.38   6410.75    263.89    203.49
 REAL TIME  *      7051.82 SEC
 DISK USED  *         3.24 GB (local),       77.68 GB (total)
 SF USED    *         5.12 GB
 GA USED    *         4.87 MB       (max)       0.00 MB       (current)
 **********************************************************************************************************************************


 PROGRAM * RHF-SCF (CLOSED SHELL)       Authors: W. Meyer, H.-J. Werner


 NUMBER OF ELECTRONS:       5+    5-    SPACE SYMMETRY=1    SPIN SYMMETRY: Singlet 
 CONVERGENCE THRESHOLDS:    1.00E-08 (Density)    1.00E-11 (Energy)
 MAX. NUMBER OF ITERATIONS:       60
 INTERPOLATION TYPE:            DIIS
 INTERPOLATION STEPS:              2 (START)      1 (STEP)
 LEVEL SHIFTS:                  0.00 (CLOSED)  0.00 (OPEN) 



 Orbital guess generated from atomic densities. Full valence occupancy:    7

 Molecular orbital dump at record        2101.2

 Initial occupancy:   5

 ITERATION    DDIFF          GRAD             ENERGY        2-EL.EN.            DIPOLE MOMENTS         DIIS   ORB.
    1      0.000D+00      0.000D+00       -76.02331156     77.334172   -0.15113   -1.05017    0.47977    0    start
    2      0.000D+00      0.468D-02       -76.05017789     73.653525   -0.07569   -0.60584    0.27717    1    diag
    3      0.223D-02      0.300D-02       -76.06198419     75.292123   -0.09216   -0.71717    0.32802    2    diag
    4      0.855D-03      0.280D-03       -76.06218374     75.200466   -0.08924   -0.71255    0.32599    3    diag
    5      0.107D-03      0.797D-04       -76.06220611     75.215126   -0.08803   -0.71084    0.32524    4    diag
    6      0.363D-04      0.161D-04       -76.06220762     75.214025   -0.08765   -0.71045    0.32507    5    diag
    7      0.972D-05      0.332D-05       -76.06220769     75.214172   -0.08755   -0.71032    0.32502    6    diag
    8      0.260D-05      0.608D-06       -76.06220769     75.214156   -0.08754   -0.71029    0.32500    7    diag
    9      0.461D-06      0.830D-07       -76.06220769     75.214147   -0.08753   -0.71028    0.32500    8    diag
   10      0.676D-07      0.199D-07       -76.06220769     75.214149   -0.08753   -0.71028    0.32500    9    orth
   11      0.171D-07      0.474D-08       -76.06220769     75.214149   -0.08753   -0.71028    0.32500    9    diag
   12      0.356D-08      0.926D-09       -76.06220769     75.214149   -0.08753   -0.71028    0.32500    0    orth

 Final occupancy:   5

 !RHF STATE  1.1 Energy               -76.062207693708
 Nuclear energy                         8.94474756
 One-electron energy                 -122.61402980
 Two-electron energy                   37.60707455
 Virial quotient                       -1.00221919
 !RHF STATE  1.1 Dipole moment         -0.08753389    -0.71028116     0.32499791
 Dipole moment /Debye                  -0.22247437    -1.80523639     0.82600819

 Orbital energies:

         1.1          2.1          3.1          4.1          5.1          6.1          7.1
    -20.569176    -1.339456    -0.703907    -0.579126    -0.508276     0.019841     0.033585


 HOMO      5.1    -0.508276 =     -13.8309eV
 LUMO      6.1     0.019841 =       0.5399eV
 LUMO-HOMO         0.528117 =      14.3708eV


 **********************************************************************************************************************************
 DATASETS  * FILE   NREC   LENGTH (MB)   RECORD NAMES
              1      18       37.12       500      610      700      900      950      970     1000      129      960     1100   
                                          VAR    BASINP    GEOM    SYMINP    ZMAT    AOBASIS   BASIS     P2S    ABASIS      S 
                                         1400     1410     1200     1210     1080     1600     1650     1700   
                                           T        V       H0       H01     AOSYM     SMH    MOLCAS    OPER   

              2       8       17.39       700     1000      520     2100     7360     7350      200     2101   
                                         GEOM     BASIS   MCVARS     RHF    F12ABS    EF12    OPTIONS    RHF  

 PROGRAMS   *        TOTAL    HF-SCF       INT   CCSD(T)    HF-SCF       INT
 CPU TIMES  *      7128.67    249.83      0.38   6410.75    263.89    203.49
 REAL TIME  *      7329.03 SEC
 DISK USED  *         3.24 GB (local),       77.68 GB (total)
 SF USED    *         5.12 GB
 GA USED    *         4.87 MB       (max)       0.00 MB       (current)
 **********************************************************************************************************************************

 Basis set:  JKFIT                   
 Basis size:  1104
 Attributes:
 Sphericals:   T
 Basis set:  MP2FIT                  
 Basis size:  1246
 Attributes:
 Sphericals:   T
 Basis set:  RI                      
 Basis size:   730
 Attributes:
 Sphericals:   T
 Basis set:  TDDFT                   
 Basis size:  1246
 Attributes:
 Sphericals:   T

 PROGRAM * CCSD (Closed-shell coupled cluster)     Authors: C. Hampel, H.-J. Werner, 1991, M. Deegan, P.J. Knowles, 1992

                                  CCSD-F12 implementation by  H.-J. Werner, 2007

                   Density fitting integral evaluation by F.R. Manby, 2003,2007, G. Knizia, 2010



 Convergence thresholds:  THRVAR = 1.00D-08  THRDEN = 1.00D-10

 CCSD(T)     terms to be evaluated (factor= 1.000)


 Number of core orbitals:           1 (   1 )
 Number of closed-shell orbitals:   4 (   4 )
 Number of external orbitals:     431 ( 431 )

 Molecular orbitals read from record     2101.2  Type=RHF/CANONICAL (state 1.1)

 MP2-F12 correlation treatment (H.-J. Werner, 2006)
 ==================================================

 Using MP2-F12 with ansatz 3C(FIX)

 Using projected zeroth-order Hamiltonian (+Z)

 FOCKRIB=T FOCKRIC=T FOCKRIP=T CABSP=T CABSA=T CABSK=T CABSF=T GBC=F EBC=F DMAT=T NOFIK=T NOPAO=1 SOLVE=-1  USEPAO=0
 EXCH_A= T EXCH_B= F EXCH_C= F EXCH_P= F

 Geminal basis:    OPTFULL  GEM_TYPE=SLATER  BETA=1.0  NGEM=6

 Optimizing Gaussian exponents for each gem_beta

 Geminal optimization for beta= 1.0000
 Weight function:   m=0, omega= 1.4646

 Augmented Hessian optimization of geminal fit. Trust ratio= 0.40000
 Convergence reached after   2 iterations. Final gradient= 8.31D-16, Step= 4.24D-06, Delta= 1.28D-09

 Alpha:                 0.19532     0.81920     2.85917     9.50073    35.69989   197.79328
 Coeff:                 0.27070     0.30552     0.18297     0.10986     0.06810     0.04224


 All pairs explicitly correlated. Number of r12-pairs:           10

 Excluding core orbitals from MO domains

 AO(A)-basis ORBITAL           loaded. Number of functions:     436
 RI(R)-basis RI                loaded. Number of functions:     730
 DF-basis JKFIT                loaded. Number of functions:    1104

 Screening thresholds:   THRAO=  1.00D-10  THRMO=  1.00D-09  THRPROD=  1.00D-09
                         THRSW=  1.00D-05  THROV=  1.00D-12  THRAOF12= 1.00D-10

 CPU time for Fock operators                     10.34 sec

 Construction of ABS:
 Smallest eigenvalue of S          2.24E-04  (threshold= 1.00E-08)
 Ratio eigmin/eigmax               3.90E-05  (threshold= 1.00E-09)
 Smallest eigenvalue of S kept     2.24E-04  (threshold= 2.24E-04, 0 functions deleted, 730 kept)

 Construction of CABS:
 Smallest eigenvalue of S          1.41E-08  (threshold= 1.00E-08)
 Ratio eigmin/eigmax               1.41E-08  (threshold= 1.00E-09)
 Smallest eigenvalue of S kept     1.41E-08  (threshold= 1.41E-08, 0 functions deleted, 730 kept)

 CPU time for CABS singles                        2.31 sec

 CABS-singles contribution of  -0.00027944 patched into reference energy.
 New reference energy         -76.06248714

 AO(A)-basis ORBITAL           loaded. Number of functions:     436
 RI(R)-basis RI                loaded. Number of functions:     730
 DF-basis MP2FIT               loaded. Number of functions:    1246

 Screening thresholds:   THRAO=  1.00D-10  THRMO=  1.00D-09  THRPROD=  1.00D-09
                         THRSW=  1.00D-05  THROV=  1.00D-12  THRAOF12= 1.00D-10

 CPU time for 3-index integral evaluation        19.56 sec
 CPU time for first  half transformation          4.63 sec ( 1399.5 MFLOP/sec)
 CPU time for second half transformation          0.04 sec (  955.7 MFLOP/sec)
 CPU time for sorting                             0.05 sec
 CPU time for fitting                             1.23 sec ( 5924.8 MFLOP/sec)
 CPU time for tilde quantities                    1.54 sec ( 3832.9 MFLOP/sec)
 CPU time for assembly                            4.83 sec ( 3952.1 MFLOP/sec)
 CPU time for tranop_f12                          4.74 sec ( 3534.4 MFLOP/sec)
 CPU time for f12 integrals (total)              43.92 sec, Elapsed time:     45.47 sec
 F12-matrices built in  4 passes.
 F12-matrices built in  4 passes.
 F12-matrices built in  4 passes.
 F12-matrices built in  4 passes.
 FC-matrix built in  4 passes.
 CPU time for f12 matrices (total)                1.91 sec, Elapsed time:      1.94 sec

 Diagonal F12 approximation with fixed coefficients:  TSING= 0.500,  TTRIP= 0.250 (scaled by -1/beta)

 DF-MP2-F12 energy corrections:
 ==============================
 Approx.                                    Singlet             Triplet             Total
 DF-MP2-F12/3*C(DX,FIX)                -0.013713263246     -0.001529550961     -0.015242814208
 DF-MP2-F12/3*C(FIX)                   -0.012095030999     -0.001076210515     -0.013171241514
 DF-MP2-F12/3C(FIX)                    -0.012083496514     -0.001113363666     -0.013196860180

 DF-MP2-F12 correlation energies:
 ================================
 Approx.                                    Singlet             Triplet             Ecorr            Total Energy
 DF-MP2                                -0.186474811422     -0.101530071469     -0.288004882891    -76.350492018120
 DF-MP2-F12/3*C(DX,FIX)                -0.200188074669     -0.103059622430     -0.303247697099    -76.365734832327
 DF-MP2-F12/3*C(FIX)                   -0.198569842421     -0.102606281984     -0.301176124405    -76.363663259634
 DF-MP2-F12/3C(FIX)                    -0.198558307936     -0.102643435135     -0.301201743071    -76.363688878300

 SCS-DF-MP2 energies (F_SING= 1.20000  F_TRIP= 0.62222  F_PARALLEL= 0.33333):
 ============================================================================
 SCS-DF-MP2                            -0.286944040398    -76.349431175627
 SCS-DF-MP2-F12/3*C(DX,FIX)            -0.304351676892    -76.366838812121
 SCS-DF-MP2-F12/3*C(FIX)               -0.302127719696    -76.364614854924
 SCS-DF-MP2-F12/3C(FIX)                -0.302136995829    -76.364624131058
 Symmetry transformation completed.

 Number of N-1 electron functions:               4
 Number of N-2 electron functions:              10
 Number of singly external CSFs:              1724
 Number of doubly external CSFs:           1486950
 Total number of CSFs:                     1488675

 Pair and operator lists are different

 Length of J-op  integral file:             203.65 MB
 Length of K-op  integral file:             338.08 MB
 Length of 3-ext integral record:             0.00 MB

 Memory could be reduced to 526.20 Mwords without degradation in triples

 Integral transformation finished. Total CPU: 184.91 sec, npass=  1  Memory used: 214.75 MW

 Reference energy:                    -76.06248714

 Adding F12 terms to K(Cij), methodcc=6,  factor= 1.0

 ITER.      SQ.NORM     CORR.ENERGY   TOTAL ENERGY   ENERGY CHANGE        DEN1      VAR(S)    VAR(P)  DIIS     TIME  TIME/IT
   1      1.06389873    -0.28738341   -76.34987054     0.00062555     0.00686823  0.80D-03  0.11D-02  1  1   297.28    49.72
   2      1.06749459    -0.28718402   -76.34967115     0.00019939    -0.00493509  0.13D-04  0.12D-03  2  2   345.84    50.06
   3      1.06875737    -0.28728394   -76.34977107    -0.00009992    -0.00083402  0.10D-04  0.78D-05  3  3   397.09    51.16
   4      1.06933063    -0.28729930   -76.34978643    -0.00001536    -0.00034917  0.54D-06  0.74D-06  4  4   448.23    51.71
   5      1.06943920    -0.28729763   -76.34978476     0.00000167    -0.00002963  0.17D-06  0.55D-07  5  5   499.75    52.06
   6      1.06947302    -0.28729544   -76.34978257     0.00000219    -0.00000432  0.18D-07  0.44D-08  6  6   550.98    52.29
   7      1.06948231    -0.28729481   -76.34978194     0.00000063    -0.00000197  0.11D-08  0.54D-09  6  1   602.10    52.42
   8      1.06948386    -0.28729480   -76.34978193     0.00000001     0.00000006  0.15D-09  0.60D-10  6  2   653.02    52.52
   9      1.06948440    -0.28729478   -76.34978192     0.00000002     0.00000002  0.12D-10  0.89D-11  6  3   704.35    52.59
  10      1.06948450    -0.28729478   -76.34978191     0.00000000     0.00000002  0.19D-11  0.82D-12  6  4   755.50    52.64
  11      1.06948450    -0.28729478   -76.34978191    -0.00000000     0.00000002  0.39D-12  0.14D-12  6  5   806.68    52.69
  12      1.06948449    -0.28729478   -76.34978191    -0.00000000     0.00000000  0.80D-13  0.21D-13  6  6   857.77    52.74
  13      1.06948448    -0.28729478   -76.34978191    -0.00000000     0.00000000  0.12D-13  0.33D-14  6  1   908.34    52.73
  14      1.06948448    -0.28729478   -76.34978191    -0.00000000     0.00000000  0.13D-14  0.73D-15  6  2   958.91    52.73
  15      1.06948448    -0.28729478   -76.34978191    -0.00000000     0.00000000  0.15D-15  0.94D-16  6  3  1009.86    52.75
  16      1.06948448    -0.28729478   -76.34978191    -0.00000000     0.00000000  0.17D-16  0.12D-16  6  4  1060.84    52.76

 Norm of t1 vector:      0.03724014      S-energy:    -0.00000000      T1 diagnostic:  0.00931004
                                                                       D1 diagnostic:  0.01892635

 Adding energy correction from Wij-K(Fij), methodcc=6  factor= 1.0

  CCSD correlation energy              -0.287294778189
  MP2-F12 correction (uncoupled)       -0.012740110827
  C*T doubles correction               -0.000429557140
  f12b correction                       0.002715318491


 Total CPU time for triples:    452.44 sec

  Ecorr(MP2)                           -0.288008958989
  Ecorr(MP2-F12)                       -0.301205819169
  Scale factor for triples energy       1.045821005799


 RESULTS
 =======

  Reference energy                    -76.062207693707
  F12 singles correction               -0.000279441522

 F12 singles corrections added to reference energy

  New reference energy                -76.062487135229

  F12a singlet correction              -0.012047651552
  F12a triplet correction              -0.001122016415
  F12a total correction                -0.013169667967

 F12a corrections for ansatz F12/3C(FIX) added to CCSD energy

  CCSD-F12a singlet pair energy        -0.209685215201
  CCSD-F12a triplet pair energy        -0.090779230912
  CCSD-F12a correlation energy         -0.300464446156

  Triples (T) contribution (scaled)    -0.009994156342
  Total correlation energy             -0.310458602498

  CCSD-F12a total energy              -76.362951581384
  CCSD[T]-F12a energy                 -76.373278228297
  CCSD-T-F12a energy                  -76.372801048698
 !CCSD(T)-F12a total energy           -76.372945737727

 F12b corrections for ansatz F12/3C(FIX) added to CCSD(T)-F12a energy

  CCSD-F12b singlet pair energy        -0.207116571667
  CCSD-F12b triplet pair energy        -0.090632555955
  CCSD-F12b correlation energy         -0.297749127665

  Triples (T) contribution (scaled)    -0.009994156342
  Total correlation energy             -0.307743284007

  CCSD-F12b total energy              -76.360236262894
  CCSD[T]-F12b energy                 -76.370562909806
  CCSD-T-F12b energy                  -76.370085730207
 !CCSD(T)-F12b total energy           -76.370230419236

 Timing summary (sec):

 STEP                 CPU(USER)    SYS     CPU(TOT)    WALL
 Transformation        185.28      6.33    191.61    191.87
 CCSD iterations       811.76     31.30    843.06    844.31
 Triples               452.44      3.94    456.38    457.03
 MP2-F12                63.89      1.79     65.68     65.95
 F12b energy            46.99      1.78     48.77     48.84

 Program statistics:

 Available memory in ccsd:              1999999871
 Min. memory needed in ccsd:               6763924
 Max. memory used in ccsd:                 7862874
 Max. memory used in cckext:               5171974 (17 integral passes)



 **********************************************************************************************************************************
 DATASETS  * FILE   NREC   LENGTH (MB)   RECORD NAMES
              1      19     1346.98       500      610      700      900      950      970     1000      129      960     1100   
                                          VAR    BASINP    GEOM    SYMINP    ZMAT    AOBASIS   BASIS     P2S    ABASIS      S 
                                         1400     1410     1200     1210     1080     1600     1650     1700     1380   
                                           T        V       H0       H01     AOSYM     SMH    MOLCAS    OPER     JKOP   

              2       8       17.39       700     1000      520     2100     7360     7350      200     2101   
                                         GEOM     BASIS   MCVARS     RHF    F12ABS    EF12    OPTIONS    RHF  

 PROGRAMS   *        TOTAL   CCSD(T)    HF-SCF       INT   CCSD(T)    HF-SCF       INT
 CPU TIMES  *      8689.27   1560.59    249.83      0.38   6410.75    263.89    203.49
 REAL TIME  *      8938.08 SEC
 DISK USED  *         3.24 GB (local),       77.68 GB (total)
 SF USED    *         5.12 GB
 GA USED    *         4.87 MB       (max)       0.00 MB       (current)
 **********************************************************************************************************************************

 Running procedure: SET_MONOMER2

 Dummy atoms: O2  H3  H4


 Recomputing one-electron integrals since nuclear charges changed


 PROGRAM * SEWARD (Integral evaluation for generally contracted gaussian basis sets)     Author: Roland Lindh, 1990

 Geometry written to block  1 of record 700


 Point group  C1  



 ATOMIC COORDINATES

 NR  ATOM    CHARGE       X              Y              Z

   1  O2      0.00   -0.132091856   -0.427456049    5.428616238
   2  H3      0.00    1.200731980   -1.541827545    5.988353116
   3  H4      0.00   -1.735713445   -1.363059454    5.806183518
   4  C1      6.00   -6.193010455    2.801518980    2.403542658
   5  H41     1.00   -4.656285171    1.699997622    3.119937832
   6  H42     1.00   -5.973046335    4.726205038    2.982932688
   7  H43     1.00   -7.940251230    2.077186956    3.118237078
   8  H44     1.00   -6.176569838    2.685300823    0.384937212

 Bond lengths in Bohr (Angstrom)

 1-2  1.825253018  1-3  1.894601009  4-5  2.021904040  4-6  2.022002335  4-7  2.021953343
     ( 0.965882301)     ( 1.002579678)     ( 1.069945541)     ( 1.069997556)     ( 1.069971630)

 4-8  2.022015060
     ( 1.070004290)

 Bond angles

  2-1-3  104.80057086   5-4-6  109.53398059   5-4-7  109.65604535   5-4-8  108.43490854

  6-4-7  109.49436728   6-4-8  109.86987750   7-4-8  109.83468330

 NUCLEAR CHARGE:                   10
 NUMBER OF PRIMITIVE AOS:         578
 NUMBER OF SYMMETRY AOS:          474
 NUMBER OF CONTRACTIONS:          436   (  436A   )
 NUMBER OF CORE ORBITALS:           1   (    1A   )
 NUMBER OF VALENCE ORBITALS:        8   (    8A   )

 MOLECULE CHANGED: INITIALIZING OCCUPATION AND DUMP RECORDS


 NUCLEAR REPULSION ENERGY   13.68681606

 Basis set:  JKFIT                   
 Basis size:  1104
 Attributes:
 Sphericals:   T
 Basis set:  MP2FIT                  
 Basis size:  1246
 Attributes:
 Sphericals:   T
 Basis set:  RI                      
 Basis size:   730
 Attributes:
 Sphericals:   T
 Basis set:  TDDFT                   
 Basis size:  1246
 Attributes:
 Sphericals:   T

 Eigenvalues of metric

         1 0.104E-04 0.170E-04 0.328E-04 0.347E-04 0.435E-04 0.686E-04 0.833E-04 0.959E-04


 Contracted 2-electron integrals neglected if value below      1.0D-14

 OPERATOR DM      FOR CENTER  0  COORDINATES:    0.000000    0.000000    0.000000


 **********************************************************************************************************************************
 DATASETS  * FILE   NREC   LENGTH (MB)   RECORD NAMES
              1      18       37.12       500      610      700      900      950      970     1000      129      960     1100   
                                          VAR    BASINP    GEOM    SYMINP    ZMAT    AOBASIS   BASIS     P2S    ABASIS      S 
                                         1400     1410     1200     1210     1080     1600     1650     1700   
                                           T        V       H0       H01     AOSYM     SMH    MOLCAS    OPER   

              2       8       17.39       700     1000      520     2100     7360     7350      200     2101   
                                         GEOM     BASIS   MCVARS     RHF    F12ABS    EF12    OPTIONS    RHF  

 PROGRAMS   *        TOTAL       INT   CCSD(T)    HF-SCF       INT   CCSD(T)    HF-SCF       INT
 CPU TIMES  *      8689.66      0.38   1560.59    249.83      0.38   6410.75    263.89    203.49
 REAL TIME  *      8939.19 SEC
 DISK USED  *         3.24 GB (local),       77.68 GB (total)
 SF USED    *         5.12 GB
 GA USED    *         4.87 MB       (max)       0.00 MB       (current)
 **********************************************************************************************************************************


 PROGRAM * RHF-SCF (CLOSED SHELL)       Authors: W. Meyer, H.-J. Werner


 NUMBER OF ELECTRONS:       5+    5-    SPACE SYMMETRY=1    SPIN SYMMETRY: Singlet 
 CONVERGENCE THRESHOLDS:    1.00E-08 (Density)    1.00E-11 (Energy)
 MAX. NUMBER OF ITERATIONS:       60
 INTERPOLATION TYPE:            DIIS
 INTERPOLATION STEPS:              2 (START)      1 (STEP)
 LEVEL SHIFTS:                  0.00 (CLOSED)  0.00 (OPEN) 



 Orbital guess generated from atomic densities. Full valence occupancy:    9

 Molecular orbital dump at record        2102.2

 Initial occupancy:   5

 ITERATION    DDIFF          GRAD             ENERGY        2-EL.EN.            DIPOLE MOMENTS         DIIS   ORB.
    1      0.000D+00      0.000D+00       -40.19609512     53.506292    0.00411   -0.00276   -0.00131    0    start
    2      0.000D+00      0.257D-02       -40.21334919     52.217628    0.00129   -0.00087   -0.00039    1    diag
    3      0.158D-02      0.998D-03       -40.21562510     52.672087    0.00182   -0.00123   -0.00056    2    diag
    4      0.442D-03      0.249D-03       -40.21594456     52.617275    0.00162   -0.00109   -0.00049    3    diag
    5      0.169D-03      0.322D-04       -40.21595005     52.619423    0.00159   -0.00108   -0.00048    4    diag
    6      0.426D-04      0.264D-05       -40.21595009     52.619559    0.00159   -0.00108   -0.00048    5    diag
    7      0.577D-05      0.212D-06       -40.21595009     52.619520    0.00159   -0.00107   -0.00048    6    diag
    8      0.232D-06      0.170D-07       -40.21595009     52.619521    0.00159   -0.00108   -0.00048    7    diag
    9      0.823D-07      0.218D-08       -40.21595009     52.619521    0.00159   -0.00107   -0.00048    8    diag
   10      0.826D-08      0.596D-09       -40.21595009     52.619521    0.00159   -0.00107   -0.00048    0    orth

 Final occupancy:   5

 !RHF STATE  1.1 Energy               -40.215950090374
 Nuclear energy                        13.68681606
 One-electron energy                  -80.21252671
 Two-electron energy                   26.30976056
 Virial quotient                       -0.99838103
 !RHF STATE  1.1 Dipole moment          0.00158731    -0.00107494    -0.00048265
 Dipole moment /Debye                   0.00403427    -0.00273203    -0.00122669

 Orbital energies:

         1.1          2.1          3.1          4.1          5.1          6.1          7.1
    -11.196223    -0.950661    -0.551889    -0.549954    -0.547776     0.023470     0.035873


 HOMO      5.1    -0.547776 =     -14.9057eV
 LUMO      6.1     0.023470 =       0.6386eV
 LUMO-HOMO         0.571245 =      15.5444eV


 **********************************************************************************************************************************
 DATASETS  * FILE   NREC   LENGTH (MB)   RECORD NAMES
              1      18       37.12       500      610      700      900      950      970     1000      129      960     1100   
                                          VAR    BASINP    GEOM    SYMINP    ZMAT    AOBASIS   BASIS     P2S    ABASIS      S 
                                         1400     1410     1200     1210     1080     1600     1650     1700   
                                           T        V       H0       H01     AOSYM     SMH    MOLCAS    OPER   

              2       9       27.51       700     1000      520     2100     7360     7350      200     2101     2102   
                                         GEOM     BASIS   MCVARS     RHF    F12ABS    EF12    OPTIONS    RHF      RHF  

 PROGRAMS   *        TOTAL    HF-SCF       INT   CCSD(T)    HF-SCF       INT   CCSD(T)    HF-SCF       INT
 CPU TIMES  *      8885.82    196.16      0.38   1560.59    249.83      0.38   6410.75    263.89    203.49
 REAL TIME  *      9157.05 SEC
 DISK USED  *         3.24 GB (local),       77.68 GB (total)
 SF USED    *         5.12 GB
 GA USED    *         4.87 MB       (max)       0.00 MB       (current)
 **********************************************************************************************************************************

 Basis set:  JKFIT                   
 Basis size:  1104
 Attributes:
 Sphericals:   T
 Basis set:  MP2FIT                  
 Basis size:  1246
 Attributes:
 Sphericals:   T
 Basis set:  RI                      
 Basis size:   730
 Attributes:
 Sphericals:   T
 Basis set:  TDDFT                   
 Basis size:  1246
 Attributes:
 Sphericals:   T

 PROGRAM * CCSD (Closed-shell coupled cluster)     Authors: C. Hampel, H.-J. Werner, 1991, M. Deegan, P.J. Knowles, 1992

                                  CCSD-F12 implementation by  H.-J. Werner, 2007

                   Density fitting integral evaluation by F.R. Manby, 2003,2007, G. Knizia, 2010



 Convergence thresholds:  THRVAR = 1.00D-08  THRDEN = 1.00D-10

 CCSD(T)     terms to be evaluated (factor= 1.000)


 Number of core orbitals:           1 (   1 )
 Number of closed-shell orbitals:   4 (   4 )
 Number of external orbitals:     431 ( 431 )

 Molecular orbitals read from record     2102.2  Type=RHF/CANONICAL (state 1.1)

 MP2-F12 correlation treatment (H.-J. Werner, 2006)
 ==================================================

 Using MP2-F12 with ansatz 3C(FIX)

 Using projected zeroth-order Hamiltonian (+Z)

 FOCKRIB=T FOCKRIC=T FOCKRIP=T CABSP=T CABSA=T CABSK=T CABSF=T GBC=F EBC=F DMAT=T NOFIK=T NOPAO=1 SOLVE=-1  USEPAO=0
 EXCH_A= T EXCH_B= F EXCH_C= F EXCH_P= F

 Geminal basis:    OPTFULL  GEM_TYPE=SLATER  BETA=1.0  NGEM=6

 Optimizing Gaussian exponents for each gem_beta

 Geminal optimization for beta= 1.0000
 Weight function:   m=0, omega= 1.4646

 Augmented Hessian optimization of geminal fit. Trust ratio= 0.40000
 Convergence reached after   2 iterations. Final gradient= 7.85D-16, Step= 4.26D-06, Delta= 1.28D-09

 Alpha:                 0.19532     0.81920     2.85917     9.50073    35.69989   197.79328
 Coeff:                 0.27070     0.30552     0.18297     0.10986     0.06810     0.04224


 All pairs explicitly correlated. Number of r12-pairs:           10

 Excluding core orbitals from MO domains

 AO(A)-basis ORBITAL           loaded. Number of functions:     436
 RI(R)-basis RI                loaded. Number of functions:     730
 DF-basis JKFIT                loaded. Number of functions:    1104

 Screening thresholds:   THRAO=  1.00D-10  THRMO=  1.00D-09  THRPROD=  1.00D-09
                         THRSW=  1.00D-05  THROV=  1.00D-12  THRAOF12= 1.00D-10

 CPU time for Fock operators                     10.44 sec

 Construction of ABS:
 Smallest eigenvalue of S          2.24E-04  (threshold= 1.00E-08)
 Ratio eigmin/eigmax               3.90E-05  (threshold= 1.00E-09)
 Smallest eigenvalue of S kept     2.24E-04  (threshold= 2.24E-04, 0 functions deleted, 730 kept)

 Construction of CABS:
 Smallest eigenvalue of S          1.41E-08  (threshold= 1.00E-08)
 Ratio eigmin/eigmax               1.41E-08  (threshold= 1.00E-09)
 Smallest eigenvalue of S kept     1.41E-08  (threshold= 1.41E-08, 0 functions deleted, 730 kept)

 CPU time for CABS singles                        2.30 sec

 CABS-singles contribution of  -0.00024613 patched into reference energy.
 New reference energy         -40.21619622

 AO(A)-basis ORBITAL           loaded. Number of functions:     436
 RI(R)-basis RI                loaded. Number of functions:     730
 DF-basis MP2FIT               loaded. Number of functions:    1246

 Screening thresholds:   THRAO=  1.00D-10  THRMO=  1.00D-09  THRPROD=  1.00D-09
                         THRSW=  1.00D-05  THROV=  1.00D-12  THRAOF12= 1.00D-10

 CPU time for 3-index integral evaluation        19.32 sec
 CPU time for first  half transformation          4.86 sec ( 1332.8 MFLOP/sec)
 CPU time for second half transformation          0.05 sec (  764.9 MFLOP/sec)
 CPU time for sorting                             0.09 sec
 CPU time for fitting                             1.61 sec ( 4526.4 MFLOP/sec)
 CPU time for tilde quantities                    1.51 sec ( 2689.7 MFLOP/sec)
 CPU time for assembly                            5.02 sec ( 3367.8 MFLOP/sec)
 CPU time for tranop_f12                          4.31 sec ( 3907.8 MFLOP/sec)
 CPU time for f12 integrals (total)              43.79 sec, Elapsed time:     45.20 sec
 F12-matrices built in  4 passes.
 F12-matrices built in  4 passes.
 F12-matrices built in  4 passes.
 F12-matrices built in  4 passes.
 FC-matrix built in  4 passes.
 CPU time for f12 matrices (total)                1.84 sec, Elapsed time:      1.93 sec

 Diagonal F12 approximation with fixed coefficients:  TSING= 0.500,  TTRIP= 0.250 (scaled by -1/beta)

 DF-MP2-F12 energy corrections:
 ==============================
 Approx.                                    Singlet             Triplet             Total
 DF-MP2-F12/3*C(DX,FIX)                -0.007491806488     -0.000574564826     -0.008066371313
 DF-MP2-F12/3*C(FIX)                   -0.007044761572     -0.000473198410     -0.007517959982
 DF-MP2-F12/3C(FIX)                    -0.007074021938     -0.000486796770     -0.007560818708

 DF-MP2-F12 correlation energies:
 ================================
 Approx.                                    Singlet             Triplet             Ecorr            Total Energy
 DF-MP2                                -0.154424785677     -0.056464316516     -0.210889102193    -40.427085323991
 DF-MP2-F12/3*C(DX,FIX)                -0.161916592165     -0.057038881341     -0.218955473506    -40.435151695304
 DF-MP2-F12/3*C(FIX)                   -0.161469547249     -0.056937514926     -0.218407062175    -40.434603283973
 DF-MP2-F12/3C(FIX)                    -0.161498807615     -0.056951113286     -0.218449920901    -40.434646142699

 SCS-DF-MP2 energies (F_SING= 1.20000  F_TRIP= 0.62222  F_PARALLEL= 0.33333):
 ============================================================================
 SCS-DF-MP2                            -0.220443095311    -40.436639317109
 SCS-DF-MP2-F12/3*C(DX,FIX)            -0.229790770099    -40.445986991897
 SCS-DF-MP2-F12/3*C(FIX)               -0.229191243764    -40.445387465562
 SCS-DF-MP2-F12/3C(FIX)                -0.229234817405    -40.445431039203
 Symmetry transformation completed.

 Number of N-1 electron functions:               4
 Number of N-2 electron functions:              10
 Number of singly external CSFs:              1724
 Number of doubly external CSFs:           1486950
 Total number of CSFs:                     1488675

 Pair and operator lists are different

 Length of J-op  integral file:             203.65 MB
 Length of K-op  integral file:             338.08 MB
 Length of 3-ext integral record:             0.00 MB

 Memory could be reduced to 526.20 Mwords without degradation in triples

 Integral transformation finished. Total CPU: 189.25 sec, npass=  1  Memory used: 214.75 MW

 Reference energy:                    -40.21619622

 Adding F12 terms to K(Cij), methodcc=6,  factor= 1.0

 ITER.      SQ.NORM     CORR.ENERGY   TOTAL ENERGY   ENERGY CHANGE        DEN1      VAR(S)    VAR(P)  DIIS     TIME  TIME/IT
   1      1.07024095    -0.22512276   -40.44131898    -0.01422833    -0.00847386  0.63D-03  0.94D-03  1  1   307.74    56.43
   2      1.07517148    -0.22597296   -40.44216919    -0.00085021    -0.00530355  0.15D-04  0.10D-03  2  2   356.41    53.60
   3      1.07679453    -0.22606077   -40.44225699    -0.00008781    -0.00117778  0.22D-05  0.59D-05  3  3   404.84    52.49
   4      1.07717755    -0.22606806   -40.44226428    -0.00000729    -0.00020556  0.14D-06  0.33D-06  4  4   454.81    52.42
   5      1.07722962    -0.22606969   -40.44226591    -0.00000163    -0.00000895  0.11D-07  0.21D-07  5  5   505.38    52.47
   6      1.07723822    -0.22606840   -40.44226462     0.00000129    -0.00000327  0.77D-09  0.16D-08  6  6   555.74    52.45
   7      1.07723957    -0.22606807   -40.44226429     0.00000033    -0.00000084  0.50D-10  0.12D-09  6  1   606.28    52.49
   8      1.07723954    -0.22606814   -40.44226436    -0.00000007     0.00000020  0.53D-11  0.69D-11  6  3   656.65    52.50
   9      1.07723967    -0.22606812   -40.44226434     0.00000002    -0.00000009  0.38D-12  0.55D-12  6  2   707.67    52.55
  10      1.07723967    -0.22606812   -40.44226434     0.00000000     0.00000001  0.50D-13  0.57D-13  6  4   758.26    52.58
  11      1.07723968    -0.22606812   -40.44226434     0.00000000     0.00000000  0.46D-14  0.58D-14  6  5   809.27    52.62
  12      1.07723968    -0.22606812   -40.44226434     0.00000000     0.00000000  0.11D-15  0.64D-15  6  6   860.25    52.66
  13      1.07723967    -0.22606812   -40.44226434    -0.00000000     0.00000000  0.79D-17  0.69D-16  6  1   911.10    52.69
  14      1.07723967    -0.22606812   -40.44226434    -0.00000000     0.00000000  0.12D-17  0.87D-17  6  3   962.13    52.74

 Norm of t1 vector:      0.03291664      S-energy:    -0.00000000      T1 diagnostic:  0.00822916
                                                                       D1 diagnostic:  0.01319192

 Adding energy correction from Wij-K(Fij), methodcc=6  factor= 1.0

  CCSD correlation energy              -0.226068117545
  MP2-F12 correction (uncoupled)       -0.007436961271
  C*T doubles correction               -0.000126661459
  f12b correction                       0.001936250418

 Total CPU time for triples:    456.94 sec

  Ecorr(MP2)                           -0.210894424446
  Ecorr(MP2-F12)                       -0.218455243154
  Scale factor for triples energy       1.035851202457


 RESULTS
 =======

  Reference energy                    -40.215950090372
  F12 singles correction               -0.000246131426

 F12 singles corrections added to reference energy

  New reference energy                -40.216196221798

  F12a singlet correction              -0.007074442295
  F12a triplet correction              -0.000489180434
  F12a total correction                -0.007563622729

 F12a corrections for ansatz F12/3C(FIX) added to CCSD energy

  CCSD-F12a singlet pair energy        -0.178450614028
  CCSD-F12a triplet pair energy        -0.055181126240
  CCSD-F12a correlation energy         -0.233631740274

  Triples (T) contribution (scaled)    -0.007053251331
  Total correlation energy             -0.240684991606

  CCSD-F12a total energy              -40.449827962072
  CCSD[T]-F12a energy                 -40.457117739864
  CCSD-T-F12a energy                  -40.456811364785
 !CCSD(T)-F12a total energy           -40.456881213404

 F12b corrections for ansatz F12/3C(FIX) added to CCSD(T)-F12a energy

  CCSD-F12b singlet pair energy        -0.176581906936
  CCSD-F12b triplet pair energy        -0.055113582914
  CCSD-F12b correlation energy         -0.231695489856

  Triples (T) contribution (scaled)    -0.007053251331
  Total correlation energy             -0.238748741188

  CCSD-F12b total energy              -40.447891711654
  CCSD[T]-F12b energy                 -40.455181489445
  CCSD-T-F12b energy                  -40.454875114367
 !CCSD(T)-F12b total energy           -40.454944962986

 Timing summary (sec):

 STEP                 CPU(USER)    SYS     CPU(TOT)    WALL
 Transformation        189.63      7.09    196.72    197.22
 CCSD iterations       708.94     27.49    736.43    738.51
 Triples               456.94      4.11    461.05    461.68
 MP2-F12                63.65      1.80     65.45     65.53
 F12b energy            46.89      1.74     48.63     48.69

 Program statistics:

 Available memory in ccsd:              1999999866
 Min. memory needed in ccsd:               6763924
 Max. memory used in ccsd:                 7862874
 Max. memory used in cckext:               5171974 (15 integral passes)



 **********************************************************************************************************************************
 DATASETS  * FILE   NREC   LENGTH (MB)   RECORD NAMES
              1      19     1346.98       500      610      700      900      950      970     1000      129      960     1100   
                                          VAR    BASINP    GEOM    SYMINP    ZMAT    AOBASIS   BASIS     P2S    ABASIS      S 
                                         1400     1410     1200     1210     1080     1600     1650     1700     1380   
                                           T        V       H0       H01     AOSYM     SMH    MOLCAS    OPER     JKOP   

              2       9       27.51       700     1000      520     2100     7360     7350      200     2101     2102   
                                         GEOM     BASIS   MCVARS     RHF    F12ABS    EF12    OPTIONS    RHF      RHF  

 PROGRAMS   *        TOTAL   CCSD(T)    HF-SCF       INT   CCSD(T)    HF-SCF       INT   CCSD(T)    HF-SCF       INT
 CPU TIMES  *     10352.13   1466.30    196.16      0.38   1560.59    249.83      0.38   6410.75    263.89    203.49
 REAL TIME  *     10669.75 SEC
 DISK USED  *         3.24 GB (local),       77.68 GB (total)
 SF USED    *         5.12 GB
 GA USED    *         4.87 MB       (max)       0.00 MB       (current)
 **********************************************************************************************************************************
 Molecular orbitals read from record     2102.2  Type=RHF/CANONICAL (state 1.1)
 Occupation numbers read from record     2102.2  Type=RHF/RHF (state 1.1)
 Orbital energies read from record       2102.2  Type=RHF/CANONICAL (state 1.1)
 Redundancy group numbers read from rec  2102.2  Type=RHF/RHF (state 1.1)

 CCSD(T)-F12/aug-cc-pVQZ energy=    -40.454944962986

     CCSD(T)-F12          HF-SCF     CCSD(T)-F12          HF-SCF     CCSD(T)-F12          HF-SCF
    -40.45494496    -40.21595009    -76.37023042    -76.06220769   -116.82573247   -116.27794059
 **********************************************************************************************************************************
 Molpro calculation terminated
