
 Primary working directories    : /scratch/klimes/383233/molpro.39dx3bEhq4
 Secondary working directories  : /scratch/klimes/383233/molpro.39dx3bEhq4
 Wavefunction directory         : /scratch/klimes/383233/
 Main file repository           : /scratch/klimes/383233/molpro.39dx3bEhq4/

 id        : karlovklimes

 Nodes                      nprocs
 nc-20.cc.karlov.mff.cuni.cz    4

 Using customized tuning parameters: mindgm=1; mindgv=20; mindgc=4; mindgr=1; noblas=0; minvec=7
 default implementation of scratch files=sf  


 Variables initialized (930), CPU time= 0.01 sec
                                                                                 !gdirect
 memory,2000,m
 gthresh,orbital=1d-10,energy=1d-10,grid=1d-8
 
 symmetry,nosym
 angstrom
 geometry={
 O3        -0.151700000000      2.697200000000     -0.844800000000
 H5         0.533400000000      2.998100000000     -1.454900000000
 H6        -1.003200000000      2.770600000000     -1.357600000000
 C1        -3.277200000000      1.482500000000      1.271900000000
 H41        -2.464000000000      0.899600000000      1.651000000000
 H42        -3.160800000000      2.501000000000      1.578500000000
 H43        -4.201800000000      1.099200000000      1.650100000000
 H44        -3.268500000000      1.421000000000      0.203700000000
 }
 
 nkerna=1
 nkernb=1
 
 gf=0
 sing=1
 thrdum=1d-4
 gridthr=1d-8
 
 basis={
 set,orbital
 default,avqz
 set,jkfit
 default,av5z/jkfit
 set,mp2fit
 default,av5z/mp2fit
 set,ri
 default,av5z/optri
 set,tddft
 default,av5z/mp2fit
 }
 
 proc set_monomer1
 dummy,4,5,6,7,8
 endproc
 
 proc set_monomer2
 dummy,1,2,3
 endproc
 
                                                                                 !12 energy
 {hf,accu=1.d-16}
 {ccsd(t)-f12,df_basis=mp2fit,df_basis_exch=jkfit,ri_basis=ri,scale_trip=1,THRAOF12=1d-10}
 
 set_monomer1
 {hf,accu=1.d-16}
 {ccsd(t)-f12,df_basis=mp2fit,df_basis_exch=jkfit,ri_basis=ri,scale_trip=1,THRAOF12=1d-10}
 
 set_monomer2
 {hf,accu=1.d-16}
 {ccsd(t)-f12,df_basis=mp2fit,df_basis_exch=jkfit,ri_basis=ri,scale_trip=1,THRAOF12=1d-10}
 
 Commands  initialized (760), CPU time= 0.01 sec, 617 directives.
 Default parameters read. Elapsed time= 0.21 sec

 Checking input...
 Passed
1


                                         ***  PROGRAM SYSTEM MOLPRO  ***
                                       Copyright, TTI GmbH Stuttgart, 2015
                                    Version 2019.1 linked Jan 14 2019 13:09:19


 **********************************************************************************************************************************
 LABEL *                                                                                 
  64 bit mpp version                                                                     DATE: 11-Mar-20          TIME: 16:32:54  
 **********************************************************************************************************************************

 SHA1:             d688ac825633d238f2093ded1675ba87ccd55965
 **********************************************************************************************************************************

 THRESHOLDS:

 ZERO    =  1.00D-12  ONEINT  =  1.00D-12  TWOINT  =  1.00D-11  PREFAC  =  1.00D-14  XXXXXX  =  1.00D-09  EORDER  =  1.00D-04
 ENERGY  =  1.00D-10  ETEST   =  0.00D+00  EDENS   =  0.00D+00  THRDEDEF=  1.00D-06  GRADIENT=  1.00D-02  STEP    =  1.00D-03
 ORBITAL =  1.00D-10  CIVEC   =  1.00D-05  COEFF   =  1.00D-04  PRINTCI =  5.00D-02  PUNCHCI =  9.90D+01  OPTGRAD =  3.00D-04
 OPTENERG=  1.00D-06  OPTSTEP =  3.00D-04  THRGRAD =  1.00D-10  COMPRESS=  1.00D-11  VARMIN  =  1.00D-07  VARMAX  =  1.00D-03
 THRDOUB =  0.00D+00  THRDIV  =  1.00D-05  THRRED  =  1.00D-07  THRPSP  =  1.00D+00  THRDC   =  1.00D-10  THRCS   =  1.00D-10
 THRNRM  =  1.00D-08  THREQ   =  0.00D+00  THRDE   =  1.00D+00  THRREF  =  1.00D-05  SPARFAC =  1.00D+00  THRDLP  =  1.00D-07
 THRDIA  =  1.00D-10  THRDLS  =  1.00D-07  THRGPS  =  0.00D+00  THRKEX  =  0.00D+00  THRDIS  =  2.00D-01  THRVAR  =  1.00D-10
 THRLOC  =  1.00D-06  THRGAP  =  1.00D-06  THRLOCT = -1.00D+00  THRGAPT = -1.00D+00  THRORB  =  1.00D-06  THRMLTP =  0.00D+00
 THRCPQCI=  1.00D-10  KEXTA   =  0.00D+00  THRCOARS=  0.00D+00  SYMTOL  =  1.00D-06  GRADTOL =  1.00D-06  THROVL  =  1.00D-08
 THRORTH =  1.00D-08  GRID    =  1.00D-08  GRIDMAX =  1.00D-03  DTMAX   =  0.00D+00  THROCCDE=  1.00D-01  THROCCDE=  1.00D-01
 THRPRINT=  2.50D-01


 Variable memory set to 2000000000 words,  buffer space 

 ZSYMEL=NOSYM
 ZUNIT=ANG


Geometry recognized as XYZ

 SETTING NKERNA         =         1.00000000                                  
 SETTING NKERNB         =         1.00000000                                  
 SETTING GF             =     0.00000000D+00                                  
 SETTING SING           =         1.00000000                                  
 SETTING THRDUM         =     1.00000000D-04                                  
 SETTING GRIDTHR        =     1.00000000D-08                                  
 SETTING BASIS          =    AVQZ


 Recomputing integrals since basis changed


 Using spherical harmonics

 Library entry O      S aug-cc-pVQZ          selected for orbital group  1
 Library entry O      P aug-cc-pVQZ          selected for orbital group  1
 Library entry O      D aug-cc-pVQZ          selected for orbital group  1
 Library entry O      F aug-cc-pVQZ          selected for orbital group  1
 Library entry O      G aug-cc-pVQZ          selected for orbital group  1
 Library entry H      S aug-cc-pVQZ          selected for orbital group  2
 Library entry H      P aug-cc-pVQZ          selected for orbital group  2
 Library entry H      D aug-cc-pVQZ          selected for orbital group  2
 Library entry H      F aug-cc-pVQZ          selected for orbital group  2
 Library entry C      S aug-cc-pVQZ          selected for orbital group  3
 Library entry C      P aug-cc-pVQZ          selected for orbital group  3
 Library entry C      D aug-cc-pVQZ          selected for orbital group  3
 Library entry C      F aug-cc-pVQZ          selected for orbital group  3
 Library entry C      G aug-cc-pVQZ          selected for orbital group  3


 PROGRAM * SEWARD (Integral evaluation for generally contracted gaussian basis sets)     Author: Roland Lindh, 1990

 Geometry written to block  1 of record 700


 Point group  C1  



 ATOMIC COORDINATES

 NR  ATOM    CHARGE       X              Y              Z

   1  O3      8.00   -0.286671453    5.096969303   -1.596440630
   2  H5      1.00    1.007979915    5.665587894   -2.749362539
   3  H6      1.00   -1.895773248    5.235675201   -2.565492187
   4  C1      6.00   -6.193010455    2.801518980    2.403542658
   5  H41     1.00   -4.656285171    1.699997622    3.119937832
   6  H42     1.00   -5.973046335    4.726205038    2.982932688
   7  H43     1.00   -7.940251230    2.077186956    3.118237078
   8  H44     1.00   -6.176569838    2.685300823    0.384937212

 Bond lengths in Bohr (Angstrom)

 1-2  1.824466550  1-3  1.883483165  4-5  2.021904040  4-6  2.022002335  4-7  2.021953343
     ( 0.965466121)     ( 0.996696368)     ( 1.069945541)     ( 1.069997556)     ( 1.069971630)

 4-8  2.022015060
     ( 1.070004290)

 Bond angles

  2-1-3  104.96066383   5-4-6  109.53398059   5-4-7  109.65604535   5-4-8  108.43490854

  6-4-7  109.49436728   6-4-8  109.86987750   7-4-8  109.83468330

 NUCLEAR CHARGE:                   20
 NUMBER OF PRIMITIVE AOS:         578
 NUMBER OF SYMMETRY AOS:          474
 NUMBER OF CONTRACTIONS:          436   (  436A   )
 NUMBER OF CORE ORBITALS:           2   (    2A   )
 NUMBER OF VALENCE ORBITALS:       14   (   14A   )


 NUCLEAR REPULSION ENERGY   35.80046073


 Basis set:  JKFIT                   
 Basis size:  1104
 Attributes:
 Sphericals:   T
 Basis set:  MP2FIT                  
 Basis size:  1246
 Attributes:
 Sphericals:   T
 Basis set:  RI                      
 Basis size:   730
 Attributes:
 Sphericals:   T
 Basis set:  TDDFT                   
 Basis size:  1246
 Attributes:
 Sphericals:   T

 **********************************************************************************************************************************


 Eigenvalues of metric

         1 0.152E-04 0.202E-04 0.341E-04 0.383E-04 0.622E-04 0.855E-04 0.913E-04 0.977E-04


 Contracted 2-electron integrals neglected if value below      1.0D-14
 AO integral compression algorithm  1   Integral accuracy      1.0D-14

     21915.501 MB (compressed) written to integral file ( 54.7%)

     Node minimum: 5188.616 MB, node maximum: 5796.528 MB


 NUMBER OF SORTED TWO-ELECTRON INTEGRALS: 1134451344.     BUFFER LENGTH:  32768
 NUMBER OF SEGMENTS:  36  SEGMENT LENGTH:   31999984      RECORD LENGTH: 524288

 Memory used in sort:      32.56 MW

 SORT1 READ  5012305700. AND WROTE   927092624. INTEGRALS IN   2668 RECORDS. CPU TIME:    99.41 SEC, REAL TIME:   113.00 SEC
 SORT2 READ  3707944828. AND WROTE  4537853011. INTEGRALS IN  79172 RECORDS. CPU TIME:    20.23 SEC, REAL TIME:    27.57 SEC

 Node minimum:  1134427528.  Node maximum:  1134498978. integrals

 OPERATOR DM      FOR CENTER  0  COORDINATES:    0.000000    0.000000    0.000000


 **********************************************************************************************************************************
 DATASETS  * FILE   NREC   LENGTH (MB)   RECORD NAMES
              1      18       37.12       500      610      700      900      950      970     1000      129      960     1100   
                                          VAR    BASINP    GEOM    SYMINP    ZMAT    AOBASIS   BASIS     P2S    ABASIS      S 
                                         1400     1410     1200     1210     1080     1600     1650     1700   
                                           T        V       H0       H01     AOSYM     SMH    MOLCAS    OPER   

 PROGRAMS   *        TOTAL       INT
 CPU TIMES  *       183.40    183.16
 REAL TIME  *       214.10 SEC
 DISK USED  *        37.64 MB (local),       66.25 GB (total)
 GA USED    *         0.00 MB       (max)       0.00 MB       (current)
 **********************************************************************************************************************************


 PROGRAM * RHF-SCF (CLOSED SHELL)       Authors: W. Meyer, H.-J. Werner


 NUMBER OF ELECTRONS:      10+   10-    SPACE SYMMETRY=1    SPIN SYMMETRY: Singlet 
 CONVERGENCE THRESHOLDS:    1.00E-08 (Density)    1.00E-11 (Energy)
 MAX. NUMBER OF ITERATIONS:       60
 INTERPOLATION TYPE:            DIIS
 INTERPOLATION STEPS:              2 (START)      1 (STEP)
 LEVEL SHIFTS:                  0.00 (CLOSED)  0.00 (OPEN) 



 Orbital guess generated from atomic densities. Full valence occupancy:   16

 Molecular orbital dump at record        2100.2

 Initial occupancy:  10

 ITERATION    DDIFF          GRAD             ENERGY        2-EL.EN.            DIPOLE MOMENTS         DIIS   ORB.
    1      0.000D+00      0.000D+00      -116.21971794    157.327650   -0.16735    0.35795   -1.08729    0    start
    2      0.000D+00      0.380D-02      -116.26406075    152.268326   -0.04918    0.20825   -0.60728    1    diag
    3      0.274D-02      0.224D-02      -116.27792207    154.366625   -0.07825    0.24679   -0.72933    2    diag
    4      0.958D-03      0.331D-03      -116.27858364    154.253433   -0.07551    0.24348   -0.71884    3    diag
    5      0.203D-03      0.973D-04      -116.27865316    154.248308   -0.07469    0.24353   -0.71836    4    diag
    6      0.821D-04      0.236D-04      -116.27865702    154.253946   -0.07432    0.24332   -0.71764    5    diag
    7      0.219D-04      0.472D-05      -116.27865725    154.252314   -0.07428    0.24333   -0.71767    6    diag
    8      0.651D-05      0.121D-05      -116.27865727    154.252485   -0.07423    0.24332   -0.71762    7    diag
    9      0.148D-05      0.283D-06      -116.27865727    154.252459   -0.07423    0.24331   -0.71760    8    diag
   10      0.420D-06      0.324D-07      -116.27865727    154.252460   -0.07422    0.24331   -0.71760    9    orth
   11      0.431D-07      0.744D-08      -116.27865727    154.252461   -0.07422    0.24331   -0.71760    9    diag
   12      0.916D-08      0.195D-08      -116.27865727    154.252461   -0.07422    0.24331   -0.71760    0    orth

 Final occupancy:  10

 !RHF STATE  1.1 Energy              -116.278657270578
 Nuclear energy                        35.80046073
 One-electron energy                 -229.20534860
 Two-electron energy                   77.12623060
 Virial quotient                       -1.00079852
 !RHF STATE  1.1 Dipole moment         -0.07422386     0.24330912    -0.71759674
 Dipole moment /Debye                  -0.18864588     0.61838959    -1.82382952

 Orbital energies:

         1.1          2.1          3.1          4.1          5.1          6.1          7.1          8.1          9.1         10.1
    -20.568331   -11.191938    -1.340554    -0.946195    -0.705639    -0.579277    -0.547660    -0.545376    -0.543276    -0.508197

        11.1         12.1
      0.024362     0.034913


 HOMO     10.1    -0.508197 =     -13.8287eV
 LUMO     11.1     0.024362 =       0.6629eV
 LUMO-HOMO         0.532559 =      14.4917eV


 **********************************************************************************************************************************
 DATASETS  * FILE   NREC   LENGTH (MB)   RECORD NAMES
              1      18       37.12       500      610      700      900      950      970     1000      129      960     1100   
                                          VAR    BASINP    GEOM    SYMINP    ZMAT    AOBASIS   BASIS     P2S    ABASIS      S 
                                         1400     1410     1200     1210     1080     1600     1650     1700   
                                           T        V       H0       H01     AOSYM     SMH    MOLCAS    OPER   

              2       4        6.75       700     1000      520     2100   
                                         GEOM     BASIS   MCVARS     RHF  

 PROGRAMS   *        TOTAL    HF-SCF       INT
 CPU TIMES  *       383.02    199.62    183.16
 REAL TIME  *       431.62 SEC
 DISK USED  *        57.70 MB (local),       66.33 GB (total)
 SF USED    *         0.76 MB
 GA USED    *         0.00 MB       (max)       0.00 MB       (current)
 **********************************************************************************************************************************

 Basis set:  JKFIT                   
 Basis size:  1104
 Attributes:
 Sphericals:   T
 Basis set:  MP2FIT                  
 Basis size:  1246
 Attributes:
 Sphericals:   T
 Basis set:  RI                      
 Basis size:   730
 Attributes:
 Sphericals:   T
 Basis set:  TDDFT                   
 Basis size:  1246
 Attributes:
 Sphericals:   T

 PROGRAM * CCSD (Closed-shell coupled cluster)     Authors: C. Hampel, H.-J. Werner, 1991, M. Deegan, P.J. Knowles, 1992

                                  CCSD-F12 implementation by  H.-J. Werner, 2007

                   Density fitting integral evaluation by F.R. Manby, 2003,2007, G. Knizia, 2010



 Convergence thresholds:  THRVAR = 1.00D-08  THRDEN = 1.00D-10

 CCSD(T)     terms to be evaluated (factor= 1.000)


 Number of core orbitals:           2 (   2 )
 Number of closed-shell orbitals:   8 (   8 )
 Number of external orbitals:     426 ( 426 )

 Molecular orbitals read from record     2100.2  Type=RHF/CANONICAL (state 1.1)

 MP2-F12 correlation treatment (H.-J. Werner, 2006)
 ==================================================

 Using MP2-F12 with ansatz 3C(FIX)

 Using projected zeroth-order Hamiltonian (+Z)

 FOCKRIB=T FOCKRIC=T FOCKRIP=T CABSP=T CABSA=T CABSK=T CABSF=T GBC=F EBC=F DMAT=T NOFIK=T NOPAO=1 SOLVE=-1  USEPAO=0
 EXCH_A= T EXCH_B= F EXCH_C= F EXCH_P= F

 Geminal basis:    OPTFULL  GEM_TYPE=SLATER  BETA=1.0  NGEM=6

 Optimizing Gaussian exponents for each gem_beta

 Geminal optimization for beta= 1.0000
 Weight function:   m=0, omega= 1.4646

 Augmented Hessian optimization of geminal fit. Trust ratio= 0.40000
 Convergence reached after   2 iterations. Final gradient= 7.85D-16, Step= 4.26D-06, Delta= 1.28D-09

 Alpha:                 0.19532     0.81920     2.85917     9.50073    35.69989   197.79328
 Coeff:                 0.27070     0.30552     0.18297     0.10986     0.06810     0.04224


 All pairs explicitly correlated. Number of r12-pairs:           36

 Excluding core orbitals from MO domains

 AO(A)-basis ORBITAL           loaded. Number of functions:     436
 RI(R)-basis RI                loaded. Number of functions:     730
 DF-basis JKFIT                loaded. Number of functions:    1104

 Screening thresholds:   THRAO=  1.00D-10  THRMO=  1.00D-09  THRPROD=  1.00D-09
                         THRSW=  1.00D-05  THROV=  1.00D-12  THRAOF12= 1.00D-10

 CPU time for Fock operators                     11.43 sec

 Construction of ABS:
 Smallest eigenvalue of S          2.27E-04  (threshold= 1.00E-08)
 Ratio eigmin/eigmax               3.95E-05  (threshold= 1.00E-09)
 Smallest eigenvalue of S kept     2.27E-04  (threshold= 2.27E-04, 0 functions deleted, 730 kept)

 Construction of CABS:
 Smallest eigenvalue of S          1.53E-08  (threshold= 1.00E-08)
 Ratio eigmin/eigmax               1.53E-08  (threshold= 1.00E-09)
 Smallest eigenvalue of S kept     1.53E-08  (threshold= 1.53E-08, 0 functions deleted, 730 kept)

 CPU time for CABS singles                        2.11 sec

 CABS-singles contribution of  -0.00052531 patched into reference energy.
 New reference energy        -116.27918258

 AO(A)-basis ORBITAL           loaded. Number of functions:     436
 RI(R)-basis RI                loaded. Number of functions:     730
 DF-basis MP2FIT               loaded. Number of functions:    1246

 Screening thresholds:   THRAO=  1.00D-10  THRMO=  1.00D-09  THRPROD=  1.00D-09
                         THRSW=  1.00D-05  THROV=  1.00D-12  THRAOF12= 1.00D-10

 CPU time for 3-index integral evaluation        18.12 sec
 CPU time for first  half transformation          4.25 sec ( 3053.1 MFLOP/sec)
 CPU time for second half transformation          0.10 sec ( 1531.2 MFLOP/sec)
 CPU time for sorting                             0.16 sec
 CPU time for fitting                             1.72 sec ( 4318.2 MFLOP/sec)
 CPU time for tilde quantities                    2.25 sec ( 4476.8 MFLOP/sec)
 CPU time for assembly                           15.83 sec ( 4480.0 MFLOP/sec)
 CPU time for tranop_f12                         15.57 sec ( 4426.7 MFLOP/sec)
 CPU time for f12 integrals (total)              79.75 sec, Elapsed time:     82.37 sec
 F12-matrices built in  4 passes.
 F12-matrices built in  4 passes.
 F12-matrices built in  4 passes.
 F12-matrices built in  4 passes.
 FC-matrix built in  4 passes.
 CPU time for f12 matrices (total)                5.62 sec, Elapsed time:      5.76 sec

 Diagonal F12 approximation with fixed coefficients:  TSING= 0.500,  TTRIP= 0.250 (scaled by -1/beta)

 DF-MP2-F12 energy corrections:
 ==============================
 Approx.                                    Singlet             Triplet             Total
 DF-MP2-F12/3*C(DX,FIX)                -0.021231131742     -0.002108844716     -0.023339976457
 DF-MP2-F12/3*C(FIX)                   -0.019165622457     -0.001554754038     -0.020720376496
 DF-MP2-F12/3C(FIX)                    -0.019182657374     -0.001605683068     -0.020788340442

 DF-MP2-F12 correlation energies:
 ================================
 Approx.                                    Singlet             Triplet             Ecorr            Total Energy
 DF-MP2                                -0.340850207553     -0.158253406602     -0.499103614155   -116.778286194862
 DF-MP2-F12/3*C(DX,FIX)                -0.362081339295     -0.160362251317     -0.522443590612   -116.801626171319
 DF-MP2-F12/3*C(FIX)                   -0.360015830011     -0.159808160640     -0.519823990651   -116.799006571358
 DF-MP2-F12/3C(FIX)                    -0.360032864927     -0.159859089670     -0.519891954597   -116.799074535304

 SCS-DF-MP2 energies (F_SING= 1.20000  F_TRIP= 0.62222  F_PARALLEL= 0.33333):
 ============================================================================
 SCS-DF-MP2                            -0.507489035394   -116.786671616101
 SCS-DF-MP2-F12/3*C(DX,FIX)            -0.534278563529   -116.813461144236
 SCS-DF-MP2-F12/3*C(FIX)               -0.531455184856   -116.810637765563
 SCS-DF-MP2-F12/3C(FIX)                -0.531507315929   -116.810689896636
 Symmetry transformation completed.

 Number of N-1 electron functions:               8
 Number of N-2 electron functions:              36
 Number of singly external CSFs:              3408
 Number of doubly external CSFs:           5808936
 Total number of CSFs:                     5812345

 Pair and operator lists are different

 Length of J-op  integral file:               0.75 GB
 Length of K-op  integral file:               0.98 GB
 Length of 3-ext integral record:             0.00 MB

 Memory could be reduced to 828.63 Mwords without degradation in triples

 Integral transformation finished. Total CPU: 297.71 sec, npass=  1  Memory used: 389.45 MW

 Reference energy:                   -116.27918258

 Adding F12 terms to K(Cij), methodcc=6,  factor= 1.0

 ITER.      SQ.NORM     CORR.ENERGY   TOTAL ENERGY   ENERGY CHANGE        DEN1      VAR(S)    VAR(P)  DIIS     TIME  TIME/IT
   1      1.13412186    -0.51271410  -116.79189668    -0.01360102    -0.00163802  0.14D-02  0.20D-02  1  1   558.92   155.57
   2      1.14241364    -0.51335455  -116.79253713    -0.00064045    -0.01002722  0.29D-04  0.24D-03  2  2   714.35   156.49
   3      1.14546602    -0.51354939  -116.79273197    -0.00019484    -0.00214885  0.13D-04  0.14D-04  3  3   870.05   156.87
   4      1.14645494    -0.51356960  -116.79275218    -0.00002022    -0.00058868  0.68D-06  0.13D-05  4  4  1025.85   157.08
   5      1.14662462    -0.51356933  -116.79275191     0.00000028    -0.00003971  0.20D-06  0.89D-07  5  5  1181.54   157.21
   6      1.14666812    -0.51356651  -116.79274909     0.00000282    -0.00000630  0.21D-07  0.76D-08  6  6  1337.57   157.35
   7      1.14667986    -0.51356524  -116.79274782     0.00000127    -0.00000359  0.18D-08  0.73D-09  6  1  1493.40   157.44
   8      1.14668160    -0.51356530  -116.79274788    -0.00000006     0.00000042  0.26D-09  0.81D-10  6  3  1649.59   157.52
   9      1.14668264    -0.51356523  -116.79274781     0.00000007    -0.00000030  0.17D-10  0.14D-10  6  2  1805.46   157.55
  10      1.14668275    -0.51356523  -116.79274781     0.00000000     0.00000006  0.23D-11  0.15D-11  6  4  1961.39   157.58
  11      1.14668275    -0.51356522  -116.79274781     0.00000000     0.00000003  0.38D-12  0.22D-12  6  5  2117.46   157.62
  12      1.14668273    -0.51356523  -116.79274781    -0.00000000     0.00000001  0.80D-13  0.28D-13  6  6  2273.11   157.62
  13      1.14668271    -0.51356523  -116.79274781    -0.00000000     0.00000001  0.14D-13  0.39D-14  6  1  2429.07   157.64
  14      1.14668271    -0.51356523  -116.79274781    -0.00000000     0.00000000  0.21D-14  0.93D-15  6  3  2584.58   157.63
  15      1.14668271    -0.51356523  -116.79274781    -0.00000000     0.00000000  0.25D-15  0.14D-15  6  2  2740.72   157.66
  16      1.14668270    -0.51356523  -116.79274781    -0.00000000    -0.00000000  0.28D-16  0.17D-16  6  4  2896.67   157.68
  17      1.14668270    -0.51356523  -116.79274781     0.00000000    -0.00000000  0.56D-17  0.28D-17  6  5  3052.54   157.69

 Norm of t1 vector:      0.04983200      S-energy:    -0.00000000      T1 diagnostic:  0.00880914
                                                                       D1 diagnostic:  0.01901013

 Adding energy correction from Wij-K(Fij), methodcc=6  factor= 1.0

  CCSD correlation energy              -0.513565227552
  MP2-F12 correction (uncoupled)       -0.020202944613
  C*T doubles correction               -0.000560314097
  f12b correction                       0.004657023538

   CPU time for triples:   1837.95 sec for i =  1 -  7 /  8 (~  68.8 % done)
   CPU time for triples:   1017.72 sec for i =  8 -  8 /  8 (  100.0 % done)

 Total CPU time for triples:   2855.71 sec

  Ecorr(MP2)                           -0.499113079123
  Ecorr(MP2-F12)                       -0.519901419565
  Scale factor for triples energy       1.041650562390


 RESULTS
 =======

  Reference energy                   -116.278657270577
  F12 singles correction               -0.000525310130

 F12 singles corrections added to reference energy

  New reference energy               -116.279182580707

  F12a singlet correction              -0.019146799379
  F12a triplet correction              -0.001616459331
  F12a total correction                -0.020763258709

 F12a corrections for ansatz F12/3C(FIX) added to CCSD energy

  CCSD-F12a singlet pair energy        -0.388036657767
  CCSD-F12a triplet pair energy        -0.146291828274
  CCSD-F12a correlation energy         -0.534328486261

  Triples (T) contribution (scaled)    -0.017094197048
  Total correlation energy             -0.551422683309

  CCSD-F12a total energy             -116.813511066968
  CCSD[T]-F12a energy                -116.831173670690
  CCSD-T-F12a energy                 -116.830391031465
 !CCSD(T)-F12a total energy          -116.830605264017

 F12b corrections for ansatz F12/3C(FIX) added to CCSD(T)-F12a energy

  CCSD-F12b singlet pair energy        -0.383594532571
  CCSD-F12b triplet pair energy        -0.146076929932
  CCSD-F12b correlation energy         -0.529671462723

  Triples (T) contribution (scaled)    -0.017094197048
  Total correlation energy             -0.546765659771

  CCSD-F12b total energy             -116.808854043431
  CCSD[T]-F12b energy                -116.826516647152
  CCSD-T-F12b energy                 -116.825734007927
 !CCSD(T)-F12b total energy          -116.825948240479

 Timing summary (sec):

 STEP                 CPU(USER)    SYS     CPU(TOT)    WALL
 Transformation        298.88      6.97    305.85    306.75
 CCSD iterations      2647.65     29.72   2677.37   2680.95
 Triples              2855.71      6.39   2862.10   2865.95
 MP2-F12               106.11      3.13    109.24    109.47
 F12b energy           133.21      1.13    134.34    134.52

 Program statistics:

 Available memory in ccsd:              1999999554
 Min. memory needed in ccsd:              16971337
 Max. memory used in ccsd:                21987113
 Max. memory used in cckext:              15122080 (18 integral passes)



 **********************************************************************************************************************************
 DATASETS  * FILE   NREC   LENGTH (MB)   RECORD NAMES
              1      19     2602.04       500      610      700      900      950      970     1000      129      960     1100   
                                          VAR    BASINP    GEOM    SYMINP    ZMAT    AOBASIS   BASIS     P2S    ABASIS      S 
                                         1400     1410     1200     1210     1080     1600     1650     1700     1380   
                                           T        V       H0       H01     AOSYM     SMH    MOLCAS    OPER     JKOP   

              2       6       10.56       700     1000      520     2100     7360     7350   
                                         GEOM     BASIS   MCVARS     RHF    F12ABS    EF12   

 PROGRAMS   *        TOTAL   CCSD(T)    HF-SCF       INT
 CPU TIMES  *      6424.83   6041.81    199.62    183.16
 REAL TIME  *      6530.72 SEC
 DISK USED  *         3.24 GB (local),       77.18 GB (total)
 SF USED    *         5.12 GB
 GA USED    *         4.87 MB       (max)       0.00 MB       (current)
 **********************************************************************************************************************************

 Running procedure: SET_MONOMER1

 Dummy atoms: C1  H41  H42  H43  H44


 Recomputing one-electron integrals since nuclear charges changed


 PROGRAM * SEWARD (Integral evaluation for generally contracted gaussian basis sets)     Author: Roland Lindh, 1990

 Geometry written to block  1 of record 700


 Point group  C1  



 ATOMIC COORDINATES

 NR  ATOM    CHARGE       X              Y              Z

   1  O3      8.00   -0.286671453    5.096969303   -1.596440630
   2  H5      1.00    1.007979915    5.665587894   -2.749362539
   3  H6      1.00   -1.895773248    5.235675201   -2.565492187
   4  C1      0.00   -6.193010455    2.801518980    2.403542658
   5  H41     0.00   -4.656285171    1.699997622    3.119937832
   6  H42     0.00   -5.973046335    4.726205038    2.982932688
   7  H43     0.00   -7.940251230    2.077186956    3.118237078
   8  H44     0.00   -6.176569838    2.685300823    0.384937212

 Bond lengths in Bohr (Angstrom)

 1-2  1.824466550  1-3  1.883483165  4-5  2.021904040  4-6  2.022002335  4-7  2.021953343
     ( 0.965466121)     ( 0.996696368)     ( 1.069945541)     ( 1.069997556)     ( 1.069971630)

 4-8  2.022015060
     ( 1.070004290)

 Bond angles

  2-1-3  104.96066383   5-4-6  109.53398059   5-4-7  109.65604535   5-4-8  108.43490854

  6-4-7  109.49436728   6-4-8  109.86987750   7-4-8  109.83468330

 NUCLEAR CHARGE:                   10
 NUMBER OF PRIMITIVE AOS:         578
 NUMBER OF SYMMETRY AOS:          474
 NUMBER OF CONTRACTIONS:          436   (  436A   )
 NUMBER OF CORE ORBITALS:           1   (    1A   )
 NUMBER OF VALENCE ORBITALS:        6   (    6A   )

 MOLECULE CHANGED: INITIALIZING OCCUPATION AND DUMP RECORDS


 NUCLEAR REPULSION ENERGY    8.97229507

 Basis set:  JKFIT                   
 Basis size:  1104
 Attributes:
 Sphericals:   T
 Basis set:  MP2FIT                  
 Basis size:  1246
 Attributes:
 Sphericals:   T
 Basis set:  RI                      
 Basis size:   730
 Attributes:
 Sphericals:   T
 Basis set:  TDDFT                   
 Basis size:  1246
 Attributes:
 Sphericals:   T

 Eigenvalues of metric

         1 0.152E-04 0.202E-04 0.341E-04 0.383E-04 0.622E-04 0.855E-04 0.913E-04 0.977E-04


 Contracted 2-electron integrals neglected if value below      1.0D-14

 OPERATOR DM      FOR CENTER  0  COORDINATES:    0.000000    0.000000    0.000000


 **********************************************************************************************************************************
 DATASETS  * FILE   NREC   LENGTH (MB)   RECORD NAMES
              1      18       37.12       500      610      700      900      950      970     1000      129      960     1100   
                                          VAR    BASINP    GEOM    SYMINP    ZMAT    AOBASIS   BASIS     P2S    ABASIS      S 
                                         1400     1410     1200     1210     1080     1600     1650     1700   
                                           T        V       H0       H01     AOSYM     SMH    MOLCAS    OPER   

              2       7       10.59       700     1000      520     2100     7360     7350      200   
                                         GEOM     BASIS   MCVARS     RHF    F12ABS    EF12    OPTIONS    

 PROGRAMS   *        TOTAL       INT   CCSD(T)    HF-SCF       INT
 CPU TIMES  *      6425.24      0.41   6041.81    199.62    183.16
 REAL TIME  *      6532.01 SEC
 DISK USED  *         3.24 GB (local),       77.18 GB (total)
 SF USED    *         5.12 GB
 GA USED    *         4.87 MB       (max)       0.00 MB       (current)
 **********************************************************************************************************************************


 PROGRAM * RHF-SCF (CLOSED SHELL)       Authors: W. Meyer, H.-J. Werner


 NUMBER OF ELECTRONS:       5+    5-    SPACE SYMMETRY=1    SPIN SYMMETRY: Singlet 
 CONVERGENCE THRESHOLDS:    1.00E-08 (Density)    1.00E-11 (Energy)
 MAX. NUMBER OF ITERATIONS:       60
 INTERPOLATION TYPE:            DIIS
 INTERPOLATION STEPS:              2 (START)      1 (STEP)
 LEVEL SHIFTS:                  0.00 (CLOSED)  0.00 (OPEN) 



 Orbital guess generated from atomic densities. Full valence occupancy:    7

 Molecular orbital dump at record        2101.2

 Initial occupancy:   5

 ITERATION    DDIFF          GRAD             ENERGY        2-EL.EN.            DIPOLE MOMENTS         DIIS   ORB.
    1      0.000D+00      0.000D+00       -76.02411553     77.372867   -0.17154    0.36106   -1.08713    0    start
    2      0.000D+00      0.467D-02       -76.05095600     73.705389   -0.08960    0.21024   -0.62935    1    diag
    3      0.222D-02      0.299D-02       -76.06264246     75.335588   -0.10804    0.24822   -0.74384    2    diag
    4      0.847D-03      0.279D-03       -76.06283953     75.244127   -0.10542    0.24692   -0.73922    3    diag
    5      0.107D-03      0.788D-04       -76.06286125     75.258627   -0.10435    0.24646   -0.73751    4    diag
    6      0.352D-04      0.158D-04       -76.06286268     75.257562   -0.10402    0.24636   -0.73713    5    diag
    7      0.923D-05      0.324D-05       -76.06286275     75.257709   -0.10393    0.24633   -0.73701    6    diag
    8      0.255D-05      0.600D-06       -76.06286276     75.257693   -0.10392    0.24632   -0.73697    7    diag
    9      0.462D-06      0.812D-07       -76.06286276     75.257684   -0.10392    0.24632   -0.73696    8    diag
   10      0.511D-07      0.191D-07       -76.06286276     75.257687   -0.10392    0.24632   -0.73696    9    orth
   11      0.131D-07      0.433D-08       -76.06286276     75.257686   -0.10392    0.24632   -0.73696    9    diag
   12      0.335D-08      0.857D-09       -76.06286276     75.257686   -0.10392    0.24632   -0.73696    0    orth

 Final occupancy:   5

 !RHF STATE  1.1 Energy               -76.062862755089
 Nuclear energy                         8.97229507
 One-electron energy                 -122.66400093
 Two-electron energy                   37.62884311
 Virial quotient                       -1.00209027
 !RHF STATE  1.1 Dipole moment         -0.10391786     0.24631685    -0.73696357
 Dipole moment /Debye                  -0.26411555     0.62603398    -1.87305188

 Orbital energies:

         1.1          2.1          3.1          4.1          5.1          6.1          7.1
    -20.568597    -1.340797    -0.705840    -0.579460    -0.508463     0.021041     0.031816


 HOMO      5.1    -0.508463 =     -13.8360eV
 LUMO      6.1     0.021041 =       0.5725eV
 LUMO-HOMO         0.529504 =      14.4085eV


 **********************************************************************************************************************************
 DATASETS  * FILE   NREC   LENGTH (MB)   RECORD NAMES
              1      18       37.12       500      610      700      900      950      970     1000      129      960     1100   
                                          VAR    BASINP    GEOM    SYMINP    ZMAT    AOBASIS   BASIS     P2S    ABASIS      S 
                                         1400     1410     1200     1210     1080     1600     1650     1700   
                                           T        V       H0       H01     AOSYM     SMH    MOLCAS    OPER   

              2       8       17.39       700     1000      520     2100     7360     7350      200     2101   
                                         GEOM     BASIS   MCVARS     RHF    F12ABS    EF12    OPTIONS    RHF  

 PROGRAMS   *        TOTAL    HF-SCF       INT   CCSD(T)    HF-SCF       INT
 CPU TIMES  *      6626.18    200.94      0.41   6041.81    199.62    183.16
 REAL TIME  *      6749.80 SEC
 DISK USED  *         3.24 GB (local),       77.18 GB (total)
 SF USED    *         5.12 GB
 GA USED    *         4.87 MB       (max)       0.00 MB       (current)
 **********************************************************************************************************************************

 Basis set:  JKFIT                   
 Basis size:  1104
 Attributes:
 Sphericals:   T
 Basis set:  MP2FIT                  
 Basis size:  1246
 Attributes:
 Sphericals:   T
 Basis set:  RI                      
 Basis size:   730
 Attributes:
 Sphericals:   T
 Basis set:  TDDFT                   
 Basis size:  1246
 Attributes:
 Sphericals:   T

 PROGRAM * CCSD (Closed-shell coupled cluster)     Authors: C. Hampel, H.-J. Werner, 1991, M. Deegan, P.J. Knowles, 1992

                                  CCSD-F12 implementation by  H.-J. Werner, 2007

                   Density fitting integral evaluation by F.R. Manby, 2003,2007, G. Knizia, 2010



 Convergence thresholds:  THRVAR = 1.00D-08  THRDEN = 1.00D-10

 CCSD(T)     terms to be evaluated (factor= 1.000)


 Number of core orbitals:           1 (   1 )
 Number of closed-shell orbitals:   4 (   4 )
 Number of external orbitals:     431 ( 431 )

 Molecular orbitals read from record     2101.2  Type=RHF/CANONICAL (state 1.1)

 MP2-F12 correlation treatment (H.-J. Werner, 2006)
 ==================================================

 Using MP2-F12 with ansatz 3C(FIX)

 Using projected zeroth-order Hamiltonian (+Z)

 FOCKRIB=T FOCKRIC=T FOCKRIP=T CABSP=T CABSA=T CABSK=T CABSF=T GBC=F EBC=F DMAT=T NOFIK=T NOPAO=1 SOLVE=-1  USEPAO=0
 EXCH_A= T EXCH_B= F EXCH_C= F EXCH_P= F

 Geminal basis:    OPTFULL  GEM_TYPE=SLATER  BETA=1.0  NGEM=6

 Optimizing Gaussian exponents for each gem_beta

 Geminal optimization for beta= 1.0000
 Weight function:   m=0, omega= 1.4646

 Augmented Hessian optimization of geminal fit. Trust ratio= 0.40000
 Convergence reached after   2 iterations. Final gradient= 8.31D-16, Step= 4.24D-06, Delta= 1.28D-09

 Alpha:                 0.19532     0.81920     2.85917     9.50073    35.69989   197.79328
 Coeff:                 0.27070     0.30552     0.18297     0.10986     0.06810     0.04224


 All pairs explicitly correlated. Number of r12-pairs:           10

 Excluding core orbitals from MO domains

 AO(A)-basis ORBITAL           loaded. Number of functions:     436
 RI(R)-basis RI                loaded. Number of functions:     730
 DF-basis JKFIT                loaded. Number of functions:    1104

 Screening thresholds:   THRAO=  1.00D-10  THRMO=  1.00D-09  THRPROD=  1.00D-09
                         THRSW=  1.00D-05  THROV=  1.00D-12  THRAOF12= 1.00D-10

 CPU time for Fock operators                      9.36 sec

 Construction of ABS:
 Smallest eigenvalue of S          2.27E-04  (threshold= 1.00E-08)
 Ratio eigmin/eigmax               3.95E-05  (threshold= 1.00E-09)
 Smallest eigenvalue of S kept     2.27E-04  (threshold= 2.27E-04, 0 functions deleted, 730 kept)

 Construction of CABS:
 Smallest eigenvalue of S          1.53E-08  (threshold= 1.00E-08)
 Ratio eigmin/eigmax               1.53E-08  (threshold= 1.00E-09)
 Smallest eigenvalue of S kept     1.53E-08  (threshold= 1.53E-08, 0 functions deleted, 730 kept)

 CPU time for CABS singles                        2.17 sec

 CABS-singles contribution of  -0.00028041 patched into reference energy.
 New reference energy         -76.06314317

 AO(A)-basis ORBITAL           loaded. Number of functions:     436
 RI(R)-basis RI                loaded. Number of functions:     730
 DF-basis MP2FIT               loaded. Number of functions:    1246

 Screening thresholds:   THRAO=  1.00D-10  THRMO=  1.00D-09  THRPROD=  1.00D-09
                         THRSW=  1.00D-05  THROV=  1.00D-12  THRAOF12= 1.00D-10

 CPU time for 3-index integral evaluation        18.07 sec
 CPU time for first  half transformation          3.01 sec ( 2135.1 MFLOP/sec)
 CPU time for second half transformation          0.02 sec ( 1898.3 MFLOP/sec)
 CPU time for sorting                             0.06 sec
 CPU time for fitting                             1.34 sec ( 4439.7 MFLOP/sec)
 CPU time for tilde quantities                    1.27 sec ( 3929.0 MFLOP/sec)
 CPU time for assembly                            4.92 sec ( 3879.7 MFLOP/sec)
 CPU time for tranop_f12                          4.59 sec ( 3548.9 MFLOP/sec)
 CPU time for f12 integrals (total)              40.29 sec, Elapsed time:     41.16 sec
 F12-matrices built in  4 passes.
 F12-matrices built in  4 passes.
 F12-matrices built in  4 passes.
 F12-matrices built in  4 passes.
 FC-matrix built in  4 passes.
 CPU time for f12 matrices (total)                1.66 sec, Elapsed time:      1.74 sec

 Diagonal F12 approximation with fixed coefficients:  TSING= 0.500,  TTRIP= 0.250 (scaled by -1/beta)

 DF-MP2-F12 energy corrections:
 ==============================
 Approx.                                    Singlet             Triplet             Total
 DF-MP2-F12/3*C(DX,FIX)                -0.013731521889     -0.001531734722     -0.015263256612
 DF-MP2-F12/3*C(FIX)                   -0.012113212344     -0.001078273854     -0.013191486198
 DF-MP2-F12/3C(FIX)                    -0.012101236541     -0.001115325933     -0.013216562473

 DF-MP2-F12 correlation energies:
 ================================
 Approx.                                    Singlet             Triplet             Ecorr            Total Energy
 DF-MP2                                -0.186291057302     -0.101441273723     -0.287732331025    -76.350875499835
 DF-MP2-F12/3*C(DX,FIX)                -0.200022579191     -0.102973008445     -0.302995587636    -76.366138756447
 DF-MP2-F12/3*C(FIX)                   -0.198404269646     -0.102519547577     -0.300923817223    -76.364066986033
 DF-MP2-F12/3C(FIX)                    -0.198392293842     -0.102556599655     -0.300948893498    -76.364092062309

 SCS-DF-MP2 energies (F_SING= 1.20000  F_TRIP= 0.62222  F_PARALLEL= 0.33333):
 ============================================================================
 SCS-DF-MP2                            -0.286668283523    -76.349811452334
 SCS-DF-MP2-F12/3*C(DX,FIX)            -0.304099189173    -76.367242357984
 SCS-DF-MP2-F12/3*C(FIX)               -0.301875064289    -76.365018233100
 SCS-DF-MP2-F12/3C(FIX)                -0.301883747952    -76.365026916763
 Symmetry transformation completed.

 Number of N-1 electron functions:               4
 Number of N-2 electron functions:              10
 Number of singly external CSFs:              1724
 Number of doubly external CSFs:           1486950
 Total number of CSFs:                     1488675

 Pair and operator lists are different

 Length of J-op  integral file:             203.65 MB
 Length of K-op  integral file:             338.08 MB
 Length of 3-ext integral record:             0.00 MB

 Memory could be reduced to 526.20 Mwords without degradation in triples

 Integral transformation finished. Total CPU: 157.47 sec, npass=  1  Memory used: 214.75 MW

 Reference energy:                    -76.06314317

 Adding F12 terms to K(Cij), methodcc=6,  factor= 1.0

 ITER.      SQ.NORM     CORR.ENERGY   TOTAL ENERGY   ENERGY CHANGE        DEN1      VAR(S)    VAR(P)  DIIS     TIME  TIME/IT
   1      1.06368687    -0.28715056   -76.35029372     0.00058588     0.00678720  0.79D-03  0.11D-02  1  1   262.14    47.21
   2      1.06724628    -0.28694778   -76.35009095     0.00020277    -0.00490270  0.13D-04  0.12D-03  2  2   308.83    47.66
   3      1.06848960    -0.28704595   -76.35018912    -0.00009817    -0.00082482  0.10D-04  0.76D-05  3  3   355.40    47.79
   4      1.06905324    -0.28706110   -76.35020427    -0.00001515    -0.00034487  0.53D-06  0.72D-06  4  4   401.79    47.84
   5      1.06915985    -0.28705942   -76.35020259     0.00000168    -0.00002893  0.17D-06  0.53D-07  5  5   448.23    47.88
   6      1.06919303    -0.28705725   -76.35020042     0.00000217    -0.00000424  0.17D-07  0.43D-08  6  6   494.77    47.91
   7      1.06920212    -0.28705663   -76.35019980     0.00000062    -0.00000193  0.11D-08  0.52D-09  6  1   541.18    47.94
   8      1.06920364    -0.28705662   -76.35019979     0.00000001     0.00000006  0.15D-09  0.58D-10  6  2   587.82    47.95
   9      1.06920416    -0.28705661   -76.35019977     0.00000002     0.00000002  0.12D-10  0.88D-11  6  3   634.03    47.95
  10      1.06920426    -0.28705660   -76.35019977     0.00000000     0.00000002  0.18D-11  0.80D-12  6  4   680.50    47.95
  11      1.06920425    -0.28705660   -76.35019977    -0.00000000     0.00000002  0.37D-12  0.13D-12  6  5   726.93    47.96
  12      1.06920425    -0.28705660   -76.35019977    -0.00000000     0.00000000  0.74D-13  0.19D-13  6  6   773.23    47.96
  13      1.06920424    -0.28705660   -76.35019977    -0.00000000     0.00000000  0.11D-13  0.31D-14  6  1   819.53    47.96
  14      1.06920424    -0.28705660   -76.35019977    -0.00000000     0.00000000  0.13D-14  0.71D-15  6  2   866.07    47.97
  15      1.06920423    -0.28705660   -76.35019977    -0.00000000     0.00000000  0.14D-15  0.93D-16  6  3   912.66    47.97
  16      1.06920423    -0.28705660   -76.35019977    -0.00000000     0.00000000  0.38D-16  0.17D-16  6  2   959.13    47.97

 Norm of t1 vector:      0.03701065      S-energy:    -0.00000000      T1 diagnostic:  0.00925266
                                                                       D1 diagnostic:  0.01880065

 Adding energy correction from Wij-K(Fij), methodcc=6  factor= 1.0

  CCSD correlation energy              -0.287056603044
  MP2-F12 correction (uncoupled)       -0.012756507349
  C*T doubles correction               -0.000432608337
  f12b correction                       0.002717012511


 Total CPU time for triples:    426.07 sec

  Ecorr(MP2)                           -0.287736439448
  Ecorr(MP2-F12)                       -0.300953001921
  Scale factor for triples energy       1.045932876971


 RESULTS
 =======

  Reference energy                    -76.062862755090
  F12 singles correction               -0.000280413721

 F12 singles corrections added to reference energy

  New reference energy                -76.063143168811

  F12a singlet correction              -0.012065168938
  F12a triplet correction              -0.001123946748
  F12a total correction                -0.013189115686

 F12a corrections for ansatz F12/3C(FIX) added to CCSD energy

  CCSD-F12a singlet pair energy        -0.209485351142
  CCSD-F12a triplet pair energy        -0.090760367576
  CCSD-F12a correlation energy         -0.300245718730

  Triples (T) contribution (scaled)    -0.009957095689
  Total correlation energy             -0.310202814420

  CCSD-F12a total energy              -76.363388887541
  CCSD[T]-F12a energy                 -76.373675318135
  CCSD-T-F12a energy                  -76.373202838760
 !CCSD(T)-F12a total energy           -76.373345983230

 F12b corrections for ansatz F12/3C(FIX) added to CCSD(T)-F12a energy

  CCSD-F12b singlet pair energy        -0.206915225629
  CCSD-F12b triplet pair energy        -0.090613480577
  CCSD-F12b correlation energy         -0.297528706219

  Triples (T) contribution (scaled)    -0.009957095689
  Total correlation energy             -0.307485801908

  CCSD-F12b total energy              -76.360671875030
  CCSD[T]-F12b energy                 -76.370958305624
  CCSD-T-F12b energy                  -76.370485826249
 !CCSD(T)-F12b total energy           -76.370628970719

 Timing summary (sec):

 STEP                 CPU(USER)    SYS     CPU(TOT)    WALL
 Transformation        157.82      4.06    161.88    162.16
 CCSD iterations       742.89     23.81    766.70    767.74
 Triples               426.07      0.87    426.94    427.51
 MP2-F12                58.51      1.17     59.68     59.75
 F12b energy            42.95      1.03     43.98     44.03

 Program statistics:

 Available memory in ccsd:              1999999871
 Min. memory needed in ccsd:               6763924
 Max. memory used in ccsd:                 7862874
 Max. memory used in cckext:               5171974 (17 integral passes)



 **********************************************************************************************************************************
 DATASETS  * FILE   NREC   LENGTH (MB)   RECORD NAMES
              1      19     1346.98       500      610      700      900      950      970     1000      129      960     1100   
                                          VAR    BASINP    GEOM    SYMINP    ZMAT    AOBASIS   BASIS     P2S    ABASIS      S 
                                         1400     1410     1200     1210     1080     1600     1650     1700     1380   
                                           T        V       H0       H01     AOSYM     SMH    MOLCAS    OPER     JKOP   

              2       8       17.39       700     1000      520     2100     7360     7350      200     2101   
                                         GEOM     BASIS   MCVARS     RHF    F12ABS    EF12    OPTIONS    RHF  

 PROGRAMS   *        TOTAL   CCSD(T)    HF-SCF       INT   CCSD(T)    HF-SCF       INT
 CPU TIMES  *      8054.67   1428.48    200.94      0.41   6041.81    199.62    183.16
 REAL TIME  *      8212.04 SEC
 DISK USED  *         3.24 GB (local),       77.18 GB (total)
 SF USED    *         5.12 GB
 GA USED    *         4.87 MB       (max)       0.00 MB       (current)
 **********************************************************************************************************************************

 Running procedure: SET_MONOMER2

 Dummy atoms: O3  H5  H6


 Recomputing one-electron integrals since nuclear charges changed


 PROGRAM * SEWARD (Integral evaluation for generally contracted gaussian basis sets)     Author: Roland Lindh, 1990

 Geometry written to block  1 of record 700


 Point group  C1  



 ATOMIC COORDINATES

 NR  ATOM    CHARGE       X              Y              Z

   1  O3      0.00   -0.286671453    5.096969303   -1.596440630
   2  H5      0.00    1.007979915    5.665587894   -2.749362539
   3  H6      0.00   -1.895773248    5.235675201   -2.565492187
   4  C1      6.00   -6.193010455    2.801518980    2.403542658
   5  H41     1.00   -4.656285171    1.699997622    3.119937832
   6  H42     1.00   -5.973046335    4.726205038    2.982932688
   7  H43     1.00   -7.940251230    2.077186956    3.118237078
   8  H44     1.00   -6.176569838    2.685300823    0.384937212

 Bond lengths in Bohr (Angstrom)

 1-2  1.824466550  1-3  1.883483165  4-5  2.021904040  4-6  2.022002335  4-7  2.021953343
     ( 0.965466121)     ( 0.996696368)     ( 1.069945541)     ( 1.069997556)     ( 1.069971630)

 4-8  2.022015060
     ( 1.070004290)

 Bond angles

  2-1-3  104.96066383   5-4-6  109.53398059   5-4-7  109.65604535   5-4-8  108.43490854

  6-4-7  109.49436728   6-4-8  109.86987750   7-4-8  109.83468330

 NUCLEAR CHARGE:                   10
 NUMBER OF PRIMITIVE AOS:         578
 NUMBER OF SYMMETRY AOS:          474
 NUMBER OF CONTRACTIONS:          436   (  436A   )
 NUMBER OF CORE ORBITALS:           1   (    1A   )
 NUMBER OF VALENCE ORBITALS:        8   (    8A   )

 MOLECULE CHANGED: INITIALIZING OCCUPATION AND DUMP RECORDS


 NUCLEAR REPULSION ENERGY   13.68681606

 Basis set:  JKFIT                   
 Basis size:  1104
 Attributes:
 Sphericals:   T
 Basis set:  MP2FIT                  
 Basis size:  1246
 Attributes:
 Sphericals:   T
 Basis set:  RI                      
 Basis size:   730
 Attributes:
 Sphericals:   T
 Basis set:  TDDFT                   
 Basis size:  1246
 Attributes:
 Sphericals:   T

 Eigenvalues of metric

         1 0.152E-04 0.202E-04 0.341E-04 0.383E-04 0.622E-04 0.855E-04 0.913E-04 0.977E-04


 Contracted 2-electron integrals neglected if value below      1.0D-14

 OPERATOR DM      FOR CENTER  0  COORDINATES:    0.000000    0.000000    0.000000


 **********************************************************************************************************************************
 DATASETS  * FILE   NREC   LENGTH (MB)   RECORD NAMES
              1      18       37.12       500      610      700      900      950      970     1000      129      960     1100   
                                          VAR    BASINP    GEOM    SYMINP    ZMAT    AOBASIS   BASIS     P2S    ABASIS      S 
                                         1400     1410     1200     1210     1080     1600     1650     1700   
                                           T        V       H0       H01     AOSYM     SMH    MOLCAS    OPER   

              2       8       17.39       700     1000      520     2100     7360     7350      200     2101   
                                         GEOM     BASIS   MCVARS     RHF    F12ABS    EF12    OPTIONS    RHF  

 PROGRAMS   *        TOTAL       INT   CCSD(T)    HF-SCF       INT   CCSD(T)    HF-SCF       INT
 CPU TIMES  *      8055.07      0.39   1428.48    200.94      0.41   6041.81    199.62    183.16
 REAL TIME  *      8213.15 SEC
 DISK USED  *         3.24 GB (local),       77.18 GB (total)
 SF USED    *         5.12 GB
 GA USED    *         4.87 MB       (max)       0.00 MB       (current)
 **********************************************************************************************************************************


 PROGRAM * RHF-SCF (CLOSED SHELL)       Authors: W. Meyer, H.-J. Werner


 NUMBER OF ELECTRONS:       5+    5-    SPACE SYMMETRY=1    SPIN SYMMETRY: Singlet 
 CONVERGENCE THRESHOLDS:    1.00E-08 (Density)    1.00E-11 (Energy)
 MAX. NUMBER OF ITERATIONS:       60
 INTERPOLATION TYPE:            DIIS
 INTERPOLATION STEPS:              2 (START)      1 (STEP)
 LEVEL SHIFTS:                  0.00 (CLOSED)  0.00 (OPEN) 



 Orbital guess generated from atomic densities. Full valence occupancy:    9

 Molecular orbital dump at record        2102.2

 Initial occupancy:   5

 ITERATION    DDIFF          GRAD             ENERGY        2-EL.EN.            DIPOLE MOMENTS         DIIS   ORB.
    1      0.000D+00      0.000D+00       -40.19609608     53.506291    0.00410   -0.00276   -0.00131    0    start
    2      0.000D+00      0.257D-02       -40.21335023     52.217620    0.00129   -0.00088   -0.00039    1    diag
    3      0.159D-02      0.998D-03       -40.21562617     52.672080    0.00182   -0.00124   -0.00056    2    diag
    4      0.445D-03      0.249D-03       -40.21594562     52.617267    0.00162   -0.00110   -0.00049    3    diag
    5      0.165D-03      0.322D-04       -40.21595111     52.619415    0.00159   -0.00108   -0.00048    4    diag
    6      0.414D-04      0.264D-05       -40.21595116     52.619552    0.00159   -0.00108   -0.00048    5    diag
    7      0.566D-05      0.212D-06       -40.21595116     52.619512    0.00159   -0.00108   -0.00048    6    diag
    8      0.211D-06      0.170D-07       -40.21595116     52.619513    0.00159   -0.00108   -0.00048    7    diag
    9      0.834D-07      0.217D-08       -40.21595116     52.619513    0.00159   -0.00108   -0.00048    8    diag
   10      0.857D-08      0.594D-09       -40.21595116     52.619513    0.00159   -0.00108   -0.00048    0    orth

 Final occupancy:   5

 !RHF STATE  1.1 Energy               -40.215951156790
 Nuclear energy                        13.68681606
 One-electron energy                  -80.21252391
 Two-electron energy                   26.30975670
 Virial quotient                       -0.99838112
 !RHF STATE  1.1 Dipole moment          0.00159077    -0.00108340    -0.00047855
 Dipole moment /Debye                   0.00404306    -0.00275356    -0.00121626

 Orbital energies:

         1.1          2.1          3.1          4.1          5.1          6.1          7.1
    -11.196224    -0.950661    -0.551889    -0.549955    -0.547776     0.023669     0.034981


 HOMO      5.1    -0.547776 =     -14.9057eV
 LUMO      6.1     0.023669 =       0.6441eV
 LUMO-HOMO         0.571445 =      15.5498eV


 **********************************************************************************************************************************
 DATASETS  * FILE   NREC   LENGTH (MB)   RECORD NAMES
              1      18       37.12       500      610      700      900      950      970     1000      129      960     1100   
                                          VAR    BASINP    GEOM    SYMINP    ZMAT    AOBASIS   BASIS     P2S    ABASIS      S 
                                         1400     1410     1200     1210     1080     1600     1650     1700   
                                           T        V       H0       H01     AOSYM     SMH    MOLCAS    OPER   

              2       9       27.51       700     1000      520     2100     7360     7350      200     2101     2102   
                                         GEOM     BASIS   MCVARS     RHF    F12ABS    EF12    OPTIONS    RHF      RHF  

 PROGRAMS   *        TOTAL    HF-SCF       INT   CCSD(T)    HF-SCF       INT   CCSD(T)    HF-SCF       INT
 CPU TIMES  *      8224.67    169.60      0.39   1428.48    200.94      0.41   6041.81    199.62    183.16
 REAL TIME  *      8396.96 SEC
 DISK USED  *         3.24 GB (local),       77.18 GB (total)
 SF USED    *         5.12 GB
 GA USED    *         4.87 MB       (max)       0.00 MB       (current)
 **********************************************************************************************************************************

 Basis set:  JKFIT                   
 Basis size:  1104
 Attributes:
 Sphericals:   T
 Basis set:  MP2FIT                  
 Basis size:  1246
 Attributes:
 Sphericals:   T
 Basis set:  RI                      
 Basis size:   730
 Attributes:
 Sphericals:   T
 Basis set:  TDDFT                   
 Basis size:  1246
 Attributes:
 Sphericals:   T

 PROGRAM * CCSD (Closed-shell coupled cluster)     Authors: C. Hampel, H.-J. Werner, 1991, M. Deegan, P.J. Knowles, 1992

                                  CCSD-F12 implementation by  H.-J. Werner, 2007

                   Density fitting integral evaluation by F.R. Manby, 2003,2007, G. Knizia, 2010



 Convergence thresholds:  THRVAR = 1.00D-08  THRDEN = 1.00D-10

 CCSD(T)     terms to be evaluated (factor= 1.000)


 Number of core orbitals:           1 (   1 )
 Number of closed-shell orbitals:   4 (   4 )
 Number of external orbitals:     431 ( 431 )

 Molecular orbitals read from record     2102.2  Type=RHF/CANONICAL (state 1.1)

 MP2-F12 correlation treatment (H.-J. Werner, 2006)
 ==================================================

 Using MP2-F12 with ansatz 3C(FIX)

 Using projected zeroth-order Hamiltonian (+Z)

 FOCKRIB=T FOCKRIC=T FOCKRIP=T CABSP=T CABSA=T CABSK=T CABSF=T GBC=F EBC=F DMAT=T NOFIK=T NOPAO=1 SOLVE=-1  USEPAO=0
 EXCH_A= T EXCH_B= F EXCH_C= F EXCH_P= F

 Geminal basis:    OPTFULL  GEM_TYPE=SLATER  BETA=1.0  NGEM=6

 Optimizing Gaussian exponents for each gem_beta

 Geminal optimization for beta= 1.0000
 Weight function:   m=0, omega= 1.4646

 Augmented Hessian optimization of geminal fit. Trust ratio= 0.40000
 Convergence reached after   2 iterations. Final gradient= 7.85D-16, Step= 4.26D-06, Delta= 1.28D-09

 Alpha:                 0.19532     0.81920     2.85917     9.50073    35.69989   197.79328
 Coeff:                 0.27070     0.30552     0.18297     0.10986     0.06810     0.04224


 All pairs explicitly correlated. Number of r12-pairs:           10

 Excluding core orbitals from MO domains

 AO(A)-basis ORBITAL           loaded. Number of functions:     436
 RI(R)-basis RI                loaded. Number of functions:     730
 DF-basis JKFIT                loaded. Number of functions:    1104

 Screening thresholds:   THRAO=  1.00D-10  THRMO=  1.00D-09  THRPROD=  1.00D-09
                         THRSW=  1.00D-05  THROV=  1.00D-12  THRAOF12= 1.00D-10

 CPU time for Fock operators                      9.42 sec

 Construction of ABS:
 Smallest eigenvalue of S          2.27E-04  (threshold= 1.00E-08)
 Ratio eigmin/eigmax               3.95E-05  (threshold= 1.00E-09)
 Smallest eigenvalue of S kept     2.27E-04  (threshold= 2.27E-04, 0 functions deleted, 730 kept)

 Construction of CABS:
 Smallest eigenvalue of S          1.53E-08  (threshold= 1.00E-08)
 Ratio eigmin/eigmax               1.53E-08  (threshold= 1.00E-09)
 Smallest eigenvalue of S kept     1.53E-08  (threshold= 1.53E-08, 0 functions deleted, 730 kept)

 CPU time for CABS singles                        2.17 sec

 CABS-singles contribution of  -0.00024444 patched into reference energy.
 New reference energy         -40.21619560

 AO(A)-basis ORBITAL           loaded. Number of functions:     436
 RI(R)-basis RI                loaded. Number of functions:     730
 DF-basis MP2FIT               loaded. Number of functions:    1246

 Screening thresholds:   THRAO=  1.00D-10  THRMO=  1.00D-09  THRPROD=  1.00D-09
                         THRSW=  1.00D-05  THROV=  1.00D-12  THRAOF12= 1.00D-10

 CPU time for 3-index integral evaluation        18.10 sec
 CPU time for first  half transformation          3.01 sec ( 2161.8 MFLOP/sec)
 CPU time for second half transformation          0.03 sec ( 1267.9 MFLOP/sec)
 CPU time for sorting                             0.07 sec
 CPU time for fitting                             1.05 sec ( 5606.8 MFLOP/sec)
 CPU time for tilde quantities                    1.45 sec ( 4385.6 MFLOP/sec)
 CPU time for assembly                            4.85 sec ( 3681.1 MFLOP/sec)
 CPU time for tranop_f12                          4.44 sec ( 3953.4 MFLOP/sec)
 CPU time for f12 integrals (total)              39.82 sec, Elapsed time:     40.63 sec
 F12-matrices built in  4 passes.
 F12-matrices built in  4 passes.
 F12-matrices built in  4 passes.
 F12-matrices built in  4 passes.
 FC-matrix built in  4 passes.
 CPU time for f12 matrices (total)                1.66 sec, Elapsed time:      1.67 sec

 Diagonal F12 approximation with fixed coefficients:  TSING= 0.500,  TTRIP= 0.250 (scaled by -1/beta)

 DF-MP2-F12 energy corrections:
 ==============================
 Approx.                                    Singlet             Triplet             Total
 DF-MP2-F12/3*C(DX,FIX)                -0.007498574610     -0.000575337640     -0.008073912250
 DF-MP2-F12/3*C(FIX)                   -0.007051520526     -0.000473987421     -0.007525507947
 DF-MP2-F12/3C(FIX)                    -0.007080346745     -0.000487494097     -0.007567840843

 DF-MP2-F12 correlation energies:
 ================================
 Approx.                                    Singlet             Triplet             Ecorr            Total Energy
 DF-MP2                                -0.154417278504     -0.056463199632     -0.210880478136    -40.427076078882
 DF-MP2-F12/3*C(DX,FIX)                -0.161915853115     -0.057038537272     -0.218954390387    -40.435149991133
 DF-MP2-F12/3*C(FIX)                   -0.161468799030     -0.056937187053     -0.218405986083    -40.434601586829
 DF-MP2-F12/3C(FIX)                    -0.161497625250     -0.056950693729     -0.218448318979    -40.434643919725

 SCS-DF-MP2 energies (F_SING= 1.20000  F_TRIP= 0.62222  F_PARALLEL= 0.33333):
 ============================================================================
 SCS-DF-MP2                            -0.220433391754    -40.436628992500
 SCS-DF-MP2-F12/3*C(DX,FIX)            -0.229789669151    -40.445985269897
 SCS-DF-MP2-F12/3*C(FIX)               -0.229190141891    -40.445385742637
 SCS-DF-MP2-F12/3C(FIX)                -0.229233137509    -40.445428738255
 Symmetry transformation completed.

 Number of N-1 electron functions:               4
 Number of N-2 electron functions:              10
 Number of singly external CSFs:              1724
 Number of doubly external CSFs:           1486950
 Total number of CSFs:                     1488675

 Pair and operator lists are different

 Length of J-op  integral file:             203.65 MB
 Length of K-op  integral file:             338.08 MB
 Length of 3-ext integral record:             0.00 MB

 Memory could be reduced to 526.20 Mwords without degradation in triples

 Integral transformation finished. Total CPU: 157.32 sec, npass=  1  Memory used: 214.75 MW

 Reference energy:                    -40.21619560

 Adding F12 terms to K(Cij), methodcc=6,  factor= 1.0

 ITER.      SQ.NORM     CORR.ENERGY   TOTAL ENERGY   ENERGY CHANGE        DEN1      VAR(S)    VAR(P)  DIIS     TIME  TIME/IT
   1      1.07023971    -0.22511546   -40.44131106    -0.01422961    -0.00847540  0.63D-03  0.94D-03  1  1   261.53    47.09
   2      1.07517042    -0.22596531   -40.44216091    -0.00084985    -0.00530349  0.15D-04  0.10D-03  2  2   307.81    47.42
   3      1.07679303    -0.22605312   -40.44224872    -0.00008781    -0.00117731  0.22D-05  0.59D-05  3  3   354.19    47.58
   4      1.07717600    -0.22606043   -40.44225603    -0.00000731    -0.00020552  0.14D-06  0.33D-06  4  4   400.58    47.65
   5      1.07722803    -0.22606206   -40.44225766    -0.00000163    -0.00000892  0.11D-07  0.20D-07  5  5   446.89    47.69
   6      1.07723662    -0.22606076   -40.44225636     0.00000130    -0.00000329  0.75D-09  0.15D-08  6  6   493.20    47.72
   7      1.07723795    -0.22606044   -40.44225604     0.00000032    -0.00000083  0.50D-10  0.11D-09  6  1   539.51    47.74
   8      1.07723792    -0.22606051   -40.44225611    -0.00000007     0.00000020  0.51D-11  0.66D-11  6  3   585.96    47.77
   9      1.07723805    -0.22606049   -40.44225609     0.00000002    -0.00000009  0.36D-12  0.52D-12  6  2   632.06    47.77
  10      1.07723806    -0.22606049   -40.44225609     0.00000000     0.00000001  0.48D-13  0.55D-13  6  4   678.26    47.77
  11      1.07723806    -0.22606049   -40.44225609     0.00000000     0.00000000  0.45D-14  0.57D-14  6  5   724.68    47.77
  12      1.07723806    -0.22606049   -40.44225609     0.00000000     0.00000000  0.99D-16  0.61D-15  6  6   771.12    47.77
  13      1.07723806    -0.22606049   -40.44225609    -0.00000000     0.00000000  0.72D-17  0.65D-16  6  1   817.47    47.78
  14      1.07723806    -0.22606049   -40.44225609    -0.00000000     0.00000000  0.12D-17  0.86D-17  6  3   864.05    47.78

 Norm of t1 vector:      0.03291689      S-energy:    -0.00000000      T1 diagnostic:  0.00822922
                                                                       D1 diagnostic:  0.01319230

 Adding energy correction from Wij-K(Fij), methodcc=6  factor= 1.0

  CCSD correlation energy              -0.226060487419
  MP2-F12 correction (uncoupled)       -0.007443556868
  C*T doubles correction               -0.000127085337
  f12b correction                       0.001938077443

 Total CPU time for triples:    426.50 sec

  Ecorr(MP2)                           -0.210885851706
  Ecorr(MP2-F12)                       -0.218453692548
  Scale factor for triples energy       1.035885958122


 RESULTS
 =======

  Reference energy                    -40.215951156790
  F12 singles correction               -0.000244443957

 F12 singles corrections added to reference energy

  New reference energy                -40.216195600746

  F12a singlet correction              -0.007080731502
  F12a triplet correction              -0.000489910702
  F12a total correction                -0.007570642205

 F12a corrections for ansatz F12/3C(FIX) added to CCSD energy

  CCSD-F12a singlet pair energy        -0.178450320449
  CCSD-F12a triplet pair energy        -0.055180809172
  CCSD-F12a correlation energy         -0.233631129624

  Triples (T) contribution (scaled)    -0.007052743229
  Total correlation energy             -0.240683872854

  CCSD-F12a total energy              -40.449826730370
  CCSD[T]-F12a energy                 -40.457116015199
  CCSD-T-F12a energy                  -40.456809613800
 !CCSD(T)-F12a total energy           -40.456879473600

 F12b corrections for ansatz F12/3C(FIX) added to CCSD(T)-F12a energy

  CCSD-F12b singlet pair energy        -0.176579899592
  CCSD-F12b triplet pair energy        -0.055113152586
  CCSD-F12b correlation energy         -0.231693052181

  Triples (T) contribution (scaled)    -0.007052743229
  Total correlation energy             -0.238745795411

  CCSD-F12b total energy              -40.447888652927
  CCSD[T]-F12b energy                 -40.455177937756
  CCSD-T-F12b energy                  -40.454871536357
 !CCSD(T)-F12b total energy           -40.454941396157

 Timing summary (sec):

 STEP                 CPU(USER)    SYS     CPU(TOT)    WALL
 Transformation        157.67      3.89    161.56    161.76
 CCSD iterations       648.42     19.85    668.27    669.14
 Triples               426.50      1.02    427.52    428.07
 MP2-F12                58.04      1.14     59.18     59.24
 F12b energy            42.88      0.93     43.81     43.86

 Program statistics:

 Available memory in ccsd:              1999999866
 Min. memory needed in ccsd:               6763924
 Max. memory used in ccsd:                 7862874
 Max. memory used in cckext:               5171974 (15 integral passes)



 **********************************************************************************************************************************
 DATASETS  * FILE   NREC   LENGTH (MB)   RECORD NAMES
              1      19     1346.98       500      610      700      900      950      970     1000      129      960     1100   
                                          VAR    BASINP    GEOM    SYMINP    ZMAT    AOBASIS   BASIS     P2S    ABASIS      S 
                                         1400     1410     1200     1210     1080     1600     1650     1700     1380   
                                           T        V       H0       H01     AOSYM     SMH    MOLCAS    OPER     JKOP   

              2       9       27.51       700     1000      520     2100     7360     7350      200     2101     2102   
                                         GEOM     BASIS   MCVARS     RHF    F12ABS    EF12    OPTIONS    RHF      RHF  

 PROGRAMS   *        TOTAL   CCSD(T)    HF-SCF       INT   CCSD(T)    HF-SCF       INT   CCSD(T)    HF-SCF       INT
 CPU TIMES  *      9558.46   1333.78    169.60      0.39   1428.48    200.94      0.41   6041.81    199.62    183.16
 REAL TIME  *      9760.11 SEC
 DISK USED  *         3.24 GB (local),       77.18 GB (total)
 SF USED    *         5.12 GB
 GA USED    *         4.87 MB       (max)       0.00 MB       (current)
 **********************************************************************************************************************************
 Molecular orbitals read from record     2102.2  Type=RHF/CANONICAL (state 1.1)
 Occupation numbers read from record     2102.2  Type=RHF/RHF (state 1.1)
 Orbital energies read from record       2102.2  Type=RHF/CANONICAL (state 1.1)
 Redundancy group numbers read from rec  2102.2  Type=RHF/RHF (state 1.1)

 CCSD(T)-F12/aug-cc-pVQZ energy=    -40.454941396157

     CCSD(T)-F12          HF-SCF     CCSD(T)-F12          HF-SCF     CCSD(T)-F12          HF-SCF
    -40.45494140    -40.21595116    -76.37062897    -76.06286276   -116.82594824   -116.27865727
 **********************************************************************************************************************************
 Molpro calculation terminated
