
 Primary working directories    : /scratch/klimes/383234/molpro.2R06Avvrui
 Secondary working directories  : /scratch/klimes/383234/molpro.2R06Avvrui
 Wavefunction directory         : /scratch/klimes/383234/
 Main file repository           : /scratch/klimes/383234/molpro.2R06Avvrui/

 id        : karlovklimes

 Nodes                      nprocs
 nc-05.cc.karlov.mff.cuni.cz    4

 Using customized tuning parameters: mindgm=1; mindgv=20; mindgc=4; mindgr=1; noblas=0; minvec=7
 default implementation of scratch files=sf  


 Variables initialized (930), CPU time= 0.02 sec
                                                                                 !gdirect
 memory,2000,m
 gthresh,orbital=1d-10,energy=1d-10,grid=1d-8
 
 symmetry,nosym
 angstrom
 geometry={
 O4        -2.158000000000     -1.371300000000     -0.952200000000
 H7        -2.663200000000     -0.760300000000     -1.523700000000
 H8        -1.370200000000     -0.860500000000     -0.644400000000
 C1        -3.277200000000      1.482500000000      1.271900000000
 H41        -2.464000000000      0.899600000000      1.651000000000
 H42        -3.160800000000      2.501000000000      1.578500000000
 H43        -4.201800000000      1.099200000000      1.650100000000
 H44        -3.268500000000      1.421000000000      0.203700000000
 }
 
 nkerna=1
 nkernb=1
 
 gf=0
 sing=1
 thrdum=1d-4
 gridthr=1d-8
 
 basis={
 set,orbital
 default,avqz
 set,jkfit
 default,av5z/jkfit
 set,mp2fit
 default,av5z/mp2fit
 set,ri
 default,av5z/optri
 set,tddft
 default,av5z/mp2fit
 }
 
 proc set_monomer1
 dummy,4,5,6,7,8
 endproc
 
 proc set_monomer2
 dummy,1,2,3
 endproc
 
                                                                                 !12 energy
 {hf,accu=1.d-16}
 {ccsd(t)-f12,df_basis=mp2fit,df_basis_exch=jkfit,ri_basis=ri,scale_trip=1,THRAOF12=1d-10}
 
 set_monomer1
 {hf,accu=1.d-16}
 {ccsd(t)-f12,df_basis=mp2fit,df_basis_exch=jkfit,ri_basis=ri,scale_trip=1,THRAOF12=1d-10}
 
 set_monomer2
 {hf,accu=1.d-16}
 {ccsd(t)-f12,df_basis=mp2fit,df_basis_exch=jkfit,ri_basis=ri,scale_trip=1,THRAOF12=1d-10}
 
 Commands  initialized (760), CPU time= 0.02 sec, 617 directives.
 Default parameters read. Elapsed time= 0.21 sec

 Checking input...
 Passed
1


                                         ***  PROGRAM SYSTEM MOLPRO  ***
                                       Copyright, TTI GmbH Stuttgart, 2015
                                    Version 2019.1 linked Jan 14 2019 13:09:19


 **********************************************************************************************************************************
 LABEL *                                                                                 
  64 bit mpp version                                                                     DATE: 11-Mar-20          TIME: 16:33:36  
 **********************************************************************************************************************************

 SHA1:             d688ac825633d238f2093ded1675ba87ccd55965
 **********************************************************************************************************************************

 THRESHOLDS:

 ZERO    =  1.00D-12  ONEINT  =  1.00D-12  TWOINT  =  1.00D-11  PREFAC  =  1.00D-14  XXXXXX  =  1.00D-09  EORDER  =  1.00D-04
 ENERGY  =  1.00D-10  ETEST   =  0.00D+00  EDENS   =  0.00D+00  THRDEDEF=  1.00D-06  GRADIENT=  1.00D-02  STEP    =  1.00D-03
 ORBITAL =  1.00D-10  CIVEC   =  1.00D-05  COEFF   =  1.00D-04  PRINTCI =  5.00D-02  PUNCHCI =  9.90D+01  OPTGRAD =  3.00D-04
 OPTENERG=  1.00D-06  OPTSTEP =  3.00D-04  THRGRAD =  1.00D-10  COMPRESS=  1.00D-11  VARMIN  =  1.00D-07  VARMAX  =  1.00D-03
 THRDOUB =  0.00D+00  THRDIV  =  1.00D-05  THRRED  =  1.00D-07  THRPSP  =  1.00D+00  THRDC   =  1.00D-10  THRCS   =  1.00D-10
 THRNRM  =  1.00D-08  THREQ   =  0.00D+00  THRDE   =  1.00D+00  THRREF  =  1.00D-05  SPARFAC =  1.00D+00  THRDLP  =  1.00D-07
 THRDIA  =  1.00D-10  THRDLS  =  1.00D-07  THRGPS  =  0.00D+00  THRKEX  =  0.00D+00  THRDIS  =  2.00D-01  THRVAR  =  1.00D-10
 THRLOC  =  1.00D-06  THRGAP  =  1.00D-06  THRLOCT = -1.00D+00  THRGAPT = -1.00D+00  THRORB  =  1.00D-06  THRMLTP =  0.00D+00
 THRCPQCI=  1.00D-10  KEXTA   =  0.00D+00  THRCOARS=  0.00D+00  SYMTOL  =  1.00D-06  GRADTOL =  1.00D-06  THROVL  =  1.00D-08
 THRORTH =  1.00D-08  GRID    =  1.00D-08  GRIDMAX =  1.00D-03  DTMAX   =  0.00D+00  THROCCDE=  1.00D-01  THROCCDE=  1.00D-01
 THRPRINT=  2.50D-01


 Variable memory set to 2000000000 words,  buffer space 

 ZSYMEL=NOSYM
 ZUNIT=ANG


Geometry recognized as XYZ

 SETTING NKERNA         =         1.00000000                                  
 SETTING NKERNB         =         1.00000000                                  
 SETTING GF             =     0.00000000D+00                                  
 SETTING SING           =         1.00000000                                  
 SETTING THRDUM         =     1.00000000D-04                                  
 SETTING GRIDTHR        =     1.00000000D-08                                  
 SETTING BASIS          =    AVQZ


 Recomputing integrals since basis changed


 Using spherical harmonics

 Library entry O      S aug-cc-pVQZ          selected for orbital group  1
 Library entry O      P aug-cc-pVQZ          selected for orbital group  1
 Library entry O      D aug-cc-pVQZ          selected for orbital group  1
 Library entry O      F aug-cc-pVQZ          selected for orbital group  1
 Library entry O      G aug-cc-pVQZ          selected for orbital group  1
 Library entry H      S aug-cc-pVQZ          selected for orbital group  2
 Library entry H      P aug-cc-pVQZ          selected for orbital group  2
 Library entry H      D aug-cc-pVQZ          selected for orbital group  2
 Library entry H      F aug-cc-pVQZ          selected for orbital group  2
 Library entry C      S aug-cc-pVQZ          selected for orbital group  3
 Library entry C      P aug-cc-pVQZ          selected for orbital group  3
 Library entry C      D aug-cc-pVQZ          selected for orbital group  3
 Library entry C      F aug-cc-pVQZ          selected for orbital group  3
 Library entry C      G aug-cc-pVQZ          selected for orbital group  3


 PROGRAM * SEWARD (Integral evaluation for generally contracted gaussian basis sets)     Author: Roland Lindh, 1990

 Geometry written to block  1 of record 700


 Point group  C1  



 ATOMIC COORDINATES

 NR  ATOM    CHARGE       X              Y              Z

   1  O4      8.00   -4.078028977   -2.591381435   -1.799397216
   2  H7      1.00   -5.032718615   -1.436758773   -2.879375696
   3  H8      1.00   -2.589302736   -1.626109330   -1.217739515
   4  C1      6.00   -6.193010455    2.801518980    2.403542658
   5  H41     1.00   -4.656285171    1.699997622    3.119937832
   6  H42     1.00   -5.973046335    4.726205038    2.982932688
   7  H43     1.00   -7.940251230    2.077186956    3.118237078
   8  H44     1.00   -6.176569838    2.685300823    0.384937212

 Bond lengths in Bohr (Angstrom)

 1-2  1.846872847  1-3  1.867185512  4-5  2.021904040  4-6  2.022002335  4-7  2.021953343
     ( 0.977323022)     ( 0.988072022)     ( 1.069945541)     ( 1.069997556)     ( 1.069971630)

 4-8  2.022015060
     ( 1.070004290)

 Bond angles

  2-1-3  105.73056797   5-4-6  109.53398059   5-4-7  109.65604535   5-4-8  108.43490854

  6-4-7  109.49436728   6-4-8  109.86987750   7-4-8  109.83468330

 NUCLEAR CHARGE:                   20
 NUMBER OF PRIMITIVE AOS:         578
 NUMBER OF SYMMETRY AOS:          474
 NUMBER OF CONTRACTIONS:          436   (  436A   )
 NUMBER OF CORE ORBITALS:           2   (    2A   )
 NUMBER OF VALENCE ORBITALS:       14   (   14A   )


 NUCLEAR REPULSION ENERGY   36.73664214


 Basis set:  JKFIT                   
 Basis size:  1104
 Attributes:
 Sphericals:   T
 Basis set:  MP2FIT                  
 Basis size:  1246
 Attributes:
 Sphericals:   T
 Basis set:  RI                      
 Basis size:   730
 Attributes:
 Sphericals:   T
 Basis set:  TDDFT                   
 Basis size:  1246
 Attributes:
 Sphericals:   T

 **********************************************************************************************************************************


 Eigenvalues of metric

         1 0.157E-04 0.292E-04 0.318E-04 0.357E-04 0.645E-04 0.924E-04 0.980E-04 0.105E-03


 Contracted 2-electron integrals neglected if value below      1.0D-14
 AO integral compression algorithm  1   Integral accuracy      1.0D-14

     24146.608 MB (compressed) written to integral file ( 60.2%)

     Node minimum: 5463.081 MB, node maximum: 6805.258 MB


 NUMBER OF SORTED TWO-ELECTRON INTEGRALS: 1134451344.     BUFFER LENGTH:  32768
 NUMBER OF SEGMENTS:  36  SEGMENT LENGTH:   31999984      RECORD LENGTH: 524288

 Memory used in sort:      32.56 MW

 SORT1 READ  5012305700. AND WROTE   990390225. INTEGRALS IN   2853 RECORDS. CPU TIME:    99.49 SEC, REAL TIME:   116.00 SEC
 SORT2 READ  3960996436. AND WROTE  4537853011. INTEGRALS IN  83360 RECORDS. CPU TIME:    19.98 SEC, REAL TIME:    30.29 SEC

 Node minimum:  1134427528.  Node maximum:  1134498978. integrals

 OPERATOR DM      FOR CENTER  0  COORDINATES:    0.000000    0.000000    0.000000


 **********************************************************************************************************************************
 DATASETS  * FILE   NREC   LENGTH (MB)   RECORD NAMES
              1      18       37.12       500      610      700      900      950      970     1000      129      960     1100   
                                          VAR    BASINP    GEOM    SYMINP    ZMAT    AOBASIS   BASIS     P2S    ABASIS      S 
                                         1400     1410     1200     1210     1080     1600     1650     1700   
                                           T        V       H0       H01     AOSYM     SMH    MOLCAS    OPER   

 PROGRAMS   *        TOTAL       INT
 CPU TIMES  *       187.41    187.19
 REAL TIME  *       224.51 SEC
 DISK USED  *        37.64 MB (local),       71.73 GB (total)
 GA USED    *         0.00 MB       (max)       0.00 MB       (current)
 **********************************************************************************************************************************


 PROGRAM * RHF-SCF (CLOSED SHELL)       Authors: W. Meyer, H.-J. Werner


 NUMBER OF ELECTRONS:      10+   10-    SPACE SYMMETRY=1    SPIN SYMMETRY: Singlet 
 CONVERGENCE THRESHOLDS:    1.00E-08 (Density)    1.00E-11 (Energy)
 MAX. NUMBER OF ITERATIONS:       60
 INTERPOLATION TYPE:            DIIS
 INTERPOLATION STEPS:              2 (START)      1 (STEP)
 LEVEL SHIFTS:                  0.00 (CLOSED)  0.00 (OPEN) 



 Orbital guess generated from atomic densities. Full valence occupancy:   16

 Molecular orbital dump at record        2100.2

 Initial occupancy:  10

 ITERATION    DDIFF          GRAD             ENERGY        2-EL.EN.            DIPOLE MOMENTS         DIIS   ORB.
    1      0.000D+00      0.000D+00      -116.21964750    158.920485    0.28059    1.08401   -0.25378    0    start
    2      0.000D+00      0.379D-02      -116.26387441    154.064562    0.13317    0.61356   -0.10930    1    diag
    3      0.273D-02      0.223D-02      -116.27757087    156.100489    0.17083    0.73372   -0.14764    2    diag
    4      0.950D-03      0.332D-03      -116.27823935    155.988036    0.16829    0.72325   -0.14658    3    diag
    5      0.203D-03      0.977D-04      -116.27830961    155.982472    0.16770    0.72307   -0.14624    4    diag
    6      0.813D-04      0.238D-04      -116.27831352    155.988195    0.16743    0.72236   -0.14606    5    diag
    7      0.218D-04      0.474D-05      -116.27831376    155.986506    0.16741    0.72239   -0.14608    6    diag
    8      0.628D-05      0.121D-05      -116.27831377    155.986683    0.16738    0.72234   -0.14606    7    diag
    9      0.134D-05      0.282D-06      -116.27831378    155.986656    0.16737    0.72231   -0.14606    8    diag
   10      0.401D-06      0.335D-07      -116.27831378    155.986657    0.16737    0.72231   -0.14606    9    orth
   11      0.444D-07      0.825D-08      -116.27831378    155.986658    0.16737    0.72231   -0.14606    9    diag
   12      0.919D-08      0.228D-08      -116.27831378    155.986658    0.16737    0.72231   -0.14606    0    orth

 Final occupancy:  10

 !RHF STATE  1.1 Energy              -116.278313775223
 Nuclear energy                        36.73664214
 One-electron energy                 -231.00828510
 Two-electron energy                   77.99332919
 Virial quotient                       -1.00084359
 !RHF STATE  1.1 Dipole moment          0.16737332     0.72231274    -0.14605746
 Dipole moment /Debye                   0.42539268     1.83581562    -0.37121673

 Orbital energies:

         1.1          2.1          3.1          4.1          5.1          6.1          7.1          8.1          9.1         10.1
    -20.567555   -11.199908    -1.338555    -0.954209    -0.705604    -0.577774    -0.555858    -0.553005    -0.551601    -0.506744

        11.1         12.1
      0.023528     0.038160


 HOMO     10.1    -0.506744 =     -13.7892eV
 LUMO     11.1     0.023528 =       0.6402eV
 LUMO-HOMO         0.530273 =      14.4294eV


 **********************************************************************************************************************************
 DATASETS  * FILE   NREC   LENGTH (MB)   RECORD NAMES
              1      18       37.12       500      610      700      900      950      970     1000      129      960     1100   
                                          VAR    BASINP    GEOM    SYMINP    ZMAT    AOBASIS   BASIS     P2S    ABASIS      S 
                                         1400     1410     1200     1210     1080     1600     1650     1700   
                                           T        V       H0       H01     AOSYM     SMH    MOLCAS    OPER   

              2       4        6.75       700     1000      520     2100   
                                         GEOM     BASIS   MCVARS     RHF  

 PROGRAMS   *        TOTAL    HF-SCF       INT
 CPU TIMES  *       411.82    224.41    187.19
 REAL TIME  *       476.30 SEC
 DISK USED  *        57.70 MB (local),       71.81 GB (total)
 SF USED    *         0.76 MB
 GA USED    *         0.00 MB       (max)       0.00 MB       (current)
 **********************************************************************************************************************************

 Basis set:  JKFIT                   
 Basis size:  1104
 Attributes:
 Sphericals:   T
 Basis set:  MP2FIT                  
 Basis size:  1246
 Attributes:
 Sphericals:   T
 Basis set:  RI                      
 Basis size:   730
 Attributes:
 Sphericals:   T
 Basis set:  TDDFT                   
 Basis size:  1246
 Attributes:
 Sphericals:   T

 PROGRAM * CCSD (Closed-shell coupled cluster)     Authors: C. Hampel, H.-J. Werner, 1991, M. Deegan, P.J. Knowles, 1992

                                  CCSD-F12 implementation by  H.-J. Werner, 2007

                   Density fitting integral evaluation by F.R. Manby, 2003,2007, G. Knizia, 2010



 Convergence thresholds:  THRVAR = 1.00D-08  THRDEN = 1.00D-10

 CCSD(T)     terms to be evaluated (factor= 1.000)


 Number of core orbitals:           2 (   2 )
 Number of closed-shell orbitals:   8 (   8 )
 Number of external orbitals:     426 ( 426 )

 Molecular orbitals read from record     2100.2  Type=RHF/CANONICAL (state 1.1)

 MP2-F12 correlation treatment (H.-J. Werner, 2006)
 ==================================================

 Using MP2-F12 with ansatz 3C(FIX)

 Using projected zeroth-order Hamiltonian (+Z)

 FOCKRIB=T FOCKRIC=T FOCKRIP=T CABSP=T CABSA=T CABSK=T CABSF=T GBC=F EBC=F DMAT=T NOFIK=T NOPAO=1 SOLVE=-1  USEPAO=0
 EXCH_A= T EXCH_B= F EXCH_C= F EXCH_P= F

 Geminal basis:    OPTFULL  GEM_TYPE=SLATER  BETA=1.0  NGEM=6

 Optimizing Gaussian exponents for each gem_beta

 Geminal optimization for beta= 1.0000
 Weight function:   m=0, omega= 1.4646

 Augmented Hessian optimization of geminal fit. Trust ratio= 0.40000
 Convergence reached after   2 iterations. Final gradient= 7.85D-16, Step= 4.26D-06, Delta= 1.28D-09

 Alpha:                 0.19532     0.81920     2.85917     9.50073    35.69989   197.79328
 Coeff:                 0.27070     0.30552     0.18297     0.10986     0.06810     0.04224


 All pairs explicitly correlated. Number of r12-pairs:           36

 Excluding core orbitals from MO domains

 AO(A)-basis ORBITAL           loaded. Number of functions:     436
 RI(R)-basis RI                loaded. Number of functions:     730
 DF-basis JKFIT                loaded. Number of functions:    1104

 Screening thresholds:   THRAO=  1.00D-10  THRMO=  1.00D-09  THRPROD=  1.00D-09
                         THRSW=  1.00D-05  THROV=  1.00D-12  THRAOF12= 1.00D-10

 CPU time for Fock operators                     11.76 sec

 Construction of ABS:
 Smallest eigenvalue of S          2.27E-04  (threshold= 1.00E-08)
 Ratio eigmin/eigmax               3.94E-05  (threshold= 1.00E-09)
 Smallest eigenvalue of S kept     2.27E-04  (threshold= 2.27E-04, 0 functions deleted, 730 kept)

 Construction of CABS:
 Smallest eigenvalue of S          1.55E-08  (threshold= 1.00E-08)
 Ratio eigmin/eigmax               1.55E-08  (threshold= 1.00E-09)
 Smallest eigenvalue of S kept     1.55E-08  (threshold= 1.55E-08, 0 functions deleted, 730 kept)

 CPU time for CABS singles                        2.15 sec

 CABS-singles contribution of  -0.00053512 patched into reference energy.
 New reference energy        -116.27884890

 AO(A)-basis ORBITAL           loaded. Number of functions:     436
 RI(R)-basis RI                loaded. Number of functions:     730
 DF-basis MP2FIT               loaded. Number of functions:    1246

 Screening thresholds:   THRAO=  1.00D-10  THRMO=  1.00D-09  THRPROD=  1.00D-09
                         THRSW=  1.00D-05  THROV=  1.00D-12  THRAOF12= 1.00D-10

 CPU time for 3-index integral evaluation        19.43 sec
 CPU time for first  half transformation          4.49 sec ( 2886.9 MFLOP/sec)
 CPU time for second half transformation          0.08 sec ( 1924.5 MFLOP/sec)
 CPU time for sorting                             0.17 sec
 CPU time for fitting                             1.81 sec ( 4103.4 MFLOP/sec)
 CPU time for tilde quantities                    2.28 sec ( 4417.9 MFLOP/sec)
 CPU time for assembly                           16.14 sec ( 4393.9 MFLOP/sec)
 CPU time for tranop_f12                         15.70 sec ( 4389.8 MFLOP/sec)
 CPU time for f12 integrals (total)              82.07 sec, Elapsed time:     84.73 sec
 F12-matrices built in  4 passes.
 F12-matrices built in  4 passes.
 F12-matrices built in  4 passes.
 F12-matrices built in  4 passes.
 FC-matrix built in  4 passes.
 CPU time for f12 matrices (total)                5.92 sec, Elapsed time:      6.14 sec

 Diagonal F12 approximation with fixed coefficients:  TSING= 0.500,  TTRIP= 0.250 (scaled by -1/beta)

 DF-MP2-F12 energy corrections:
 ==============================
 Approx.                                    Singlet             Triplet             Total
 DF-MP2-F12/3*C(DX,FIX)                -0.021212007589     -0.002108400448     -0.023320408037
 DF-MP2-F12/3*C(FIX)                   -0.019145150222     -0.001554814613     -0.020699964835
 DF-MP2-F12/3C(FIX)                    -0.019161317008     -0.001606089982     -0.020767406990

 DF-MP2-F12 correlation energies:
 ================================
 Approx.                                    Singlet             Triplet             Ecorr            Total Energy
 DF-MP2                                -0.341000992782     -0.158483582461     -0.499484575244   -116.778333472827
 DF-MP2-F12/3*C(DX,FIX)                -0.362213000371     -0.160591982909     -0.522804983281   -116.801653880864
 DF-MP2-F12/3*C(FIX)                   -0.360146143005     -0.160038397074     -0.520184540079   -116.799033437662
 DF-MP2-F12/3C(FIX)                    -0.360162309790     -0.160089672444     -0.520251982234   -116.799100879817

 SCS-DF-MP2 energies (F_SING= 1.20000  F_TRIP= 0.62222  F_PARALLEL= 0.33333):
 ============================================================================
 SCS-DF-MP2                            -0.507813198204   -116.786662095787
 SCS-DF-MP2-F12/3*C(DX,FIX)            -0.534579500922   -116.813428398506
 SCS-DF-MP2-F12/3*C(FIX)               -0.531754818674   -116.810603716258
 SCS-DF-MP2-F12/3C(FIX)                -0.531806123491   -116.810655021074
 Symmetry transformation completed.

 Number of N-1 electron functions:               8
 Number of N-2 electron functions:              36
 Number of singly external CSFs:              3408
 Number of doubly external CSFs:           5808936
 Total number of CSFs:                     5812345

 Pair and operator lists are different

 Length of J-op  integral file:               0.75 GB
 Length of K-op  integral file:               0.98 GB
 Length of 3-ext integral record:             0.00 MB

 Memory could be reduced to 828.63 Mwords without degradation in triples

 Integral transformation finished. Total CPU: 317.00 sec, npass=  1  Memory used: 389.45 MW

 Reference energy:                   -116.27884890

 Adding F12 terms to K(Cij), methodcc=6,  factor= 1.0

 ITER.      SQ.NORM     CORR.ENERGY   TOTAL ENERGY   ENERGY CHANGE        DEN1      VAR(S)    VAR(P)  DIIS     TIME  TIME/IT
   1      1.13430093    -0.51310021  -116.79194911    -0.01360629    -0.00162646  0.14D-02  0.20D-02  1  1   591.02   165.92
   2      1.14262084    -0.51375291  -116.79260181    -0.00065270    -0.01004415  0.30D-04  0.24D-03  2  2   756.45   167.01
   3      1.14569235    -0.51394709  -116.79279599    -0.00019418    -0.00215606  0.13D-04  0.14D-04  3  3   922.51   167.55
   4      1.14668735    -0.51396652  -116.79281541    -0.00001942    -0.00059074  0.67D-06  0.13D-05  4  4  1087.98   167.77
   5      1.14685935    -0.51396622  -116.79281512     0.00000030    -0.00004096  0.21D-06  0.93D-07  5  5  1253.30   167.87
   6      1.14690376    -0.51396335  -116.79281225     0.00000286    -0.00000632  0.23D-07  0.83D-08  6  6  1418.05   167.83
   7      1.14691565    -0.51396209  -116.79281099     0.00000127    -0.00000356  0.21D-08  0.89D-09  6  1  1583.63   167.87
   8      1.14691732    -0.51396210  -116.79281100    -0.00000002     0.00000034  0.40D-09  0.12D-09  6  3  1749.60   167.97
   9      1.14691855    -0.51396204  -116.79281093     0.00000007    -0.00000035  0.35D-10  0.19D-10  6  2  1915.24   168.00
  10      1.14691858    -0.51396204  -116.79281094    -0.00000000     0.00000011  0.96D-11  0.43D-11  6  3  2080.97   168.04
  11      1.14691872    -0.51396204  -116.79281094     0.00000000     0.00000000  0.66D-12  0.32D-12  6  4  2246.49   168.04
  12      1.14691870    -0.51396204  -116.79281094    -0.00000000     0.00000002  0.13D-12  0.56D-13  6  6  2412.14   168.07
  13      1.14691868    -0.51396204  -116.79281094    -0.00000000     0.00000001  0.21D-13  0.59D-14  6  5  2577.14   168.03
  14      1.14691868    -0.51396204  -116.79281094    -0.00000000     0.00000000  0.37D-14  0.12D-14  6  1  2741.06   167.98
  15      1.14691868    -0.51396204  -116.79281094    -0.00000000    -0.00000000  0.50D-15  0.21D-15  6  2  2905.99   167.95
  16      1.14691868    -0.51396204  -116.79281094    -0.00000000    -0.00000000  0.72D-16  0.26D-16  6  4  3071.32   167.96

 Norm of t1 vector:      0.05017643      S-energy:    -0.00000000      T1 diagnostic:  0.00887002
                                                                       D1 diagnostic:  0.01942511

 Adding energy correction from Wij-K(Fij), methodcc=6  factor= 1.0

  CCSD correlation energy              -0.513962042303
  MP2-F12 correction (uncoupled)       -0.020200060482
  C*T doubles correction               -0.000548098733
  f12b correction                       0.004655175725

   CPU time for triples:   2100.08 sec for i =  1 -  7 /  8 (~  68.8 % done)
   CPU time for triples:    840.31 sec for i =  8 -  8 /  8 (  100.0 % done)

 Total CPU time for triples:   2944.07 sec

  Ecorr(MP2)                           -0.499493927028
  Ecorr(MP2-F12)                       -0.520261334019
  Scale factor for triples energy       1.041576895867


 RESULTS
 =======

  Reference energy                   -116.278313775224
  F12 singles correction               -0.000535122359

 F12 singles corrections added to reference energy

  New reference energy               -116.278848897584

  F12a singlet correction              -0.019130952471
  F12a triplet correction              -0.001617206744
  F12a total correction                -0.020748159215

 F12a corrections for ansatz F12/3C(FIX) added to CCSD energy

  CCSD-F12a singlet pair energy        -0.388161495674
  CCSD-F12a triplet pair energy        -0.146548705662
  CCSD-F12a correlation energy         -0.534710201517

  Triples (T) contribution (scaled)    -0.017176291453
  Total correlation energy             -0.551886492971

  CCSD-F12a total energy             -116.813559099101
  CCSD[T]-F12a energy                -116.831307328361
  CCSD-T-F12a energy                 -116.830519036517
 !CCSD(T)-F12a total energy          -116.830735390555

 F12b corrections for ansatz F12/3C(FIX) added to CCSD(T)-F12a energy

  CCSD-F12b singlet pair energy        -0.383721346813
  CCSD-F12b triplet pair energy        -0.146333678798
  CCSD-F12b correlation energy         -0.530055025792

  Triples (T) contribution (scaled)    -0.017176291453
  Total correlation energy             -0.547231317245

  CCSD-F12b total energy             -116.808903923376
  CCSD[T]-F12b energy                -116.826652152635
  CCSD-T-F12b energy                 -116.825863860791
 !CCSD(T)-F12b total energy          -116.826080214829

 Timing summary (sec):

 STEP                 CPU(USER)    SYS     CPU(TOT)    WALL
 Transformation        318.16      9.92    328.08    328.91
 CCSD iterations      2644.14     36.99   2681.13   2687.66
 Triples              2944.07     21.19   2965.26   2971.48
 MP2-F12               109.13      3.16    112.29    112.62
 F12b energy           141.88      1.76    143.64    143.92

 Program statistics:

 Available memory in ccsd:              1999999554
 Min. memory needed in ccsd:              16971337
 Max. memory used in ccsd:                21987113
 Max. memory used in cckext:              15122080 (17 integral passes)



 **********************************************************************************************************************************
 DATASETS  * FILE   NREC   LENGTH (MB)   RECORD NAMES
              1      19     2602.04       500      610      700      900      950      970     1000      129      960     1100   
                                          VAR    BASINP    GEOM    SYMINP    ZMAT    AOBASIS   BASIS     P2S    ABASIS      S 
                                         1400     1410     1200     1210     1080     1600     1650     1700     1380   
                                           T        V       H0       H01     AOSYM     SMH    MOLCAS    OPER     JKOP   

              2       6       10.56       700     1000      520     2100     7360     7350   
                                         GEOM     BASIS   MCVARS     RHF    F12ABS    EF12   

 PROGRAMS   *        TOTAL   CCSD(T)    HF-SCF       INT
 CPU TIMES  *      6569.43   6157.61    224.41    187.19
 REAL TIME  *      6722.29 SEC
 DISK USED  *         3.24 GB (local),       82.66 GB (total)
 SF USED    *         5.12 GB
 GA USED    *         4.87 MB       (max)       0.00 MB       (current)
 **********************************************************************************************************************************

 Running procedure: SET_MONOMER1

 Dummy atoms: C1  H41  H42  H43  H44


 Recomputing one-electron integrals since nuclear charges changed


 PROGRAM * SEWARD (Integral evaluation for generally contracted gaussian basis sets)     Author: Roland Lindh, 1990

 Geometry written to block  1 of record 700


 Point group  C1  



 ATOMIC COORDINATES

 NR  ATOM    CHARGE       X              Y              Z

   1  O4      8.00   -4.078028977   -2.591381435   -1.799397216
   2  H7      1.00   -5.032718615   -1.436758773   -2.879375696
   3  H8      1.00   -2.589302736   -1.626109330   -1.217739515
   4  C1      0.00   -6.193010455    2.801518980    2.403542658
   5  H41     0.00   -4.656285171    1.699997622    3.119937832
   6  H42     0.00   -5.973046335    4.726205038    2.982932688
   7  H43     0.00   -7.940251230    2.077186956    3.118237078
   8  H44     0.00   -6.176569838    2.685300823    0.384937212

 Bond lengths in Bohr (Angstrom)

 1-2  1.846872847  1-3  1.867185512  4-5  2.021904040  4-6  2.022002335  4-7  2.021953343
     ( 0.977323022)     ( 0.988072022)     ( 1.069945541)     ( 1.069997556)     ( 1.069971630)

 4-8  2.022015060
     ( 1.070004290)

 Bond angles

  2-1-3  105.73056797   5-4-6  109.53398059   5-4-7  109.65604535   5-4-8  108.43490854

  6-4-7  109.49436728   6-4-8  109.86987750   7-4-8  109.83468330

 NUCLEAR CHARGE:                   10
 NUMBER OF PRIMITIVE AOS:         578
 NUMBER OF SYMMETRY AOS:          474
 NUMBER OF CONTRACTIONS:          436   (  436A   )
 NUMBER OF CORE ORBITALS:           1   (    1A   )
 NUMBER OF VALENCE ORBITALS:        6   (    6A   )

 MOLECULE CHANGED: INITIALIZING OCCUPATION AND DUMP RECORDS


 NUCLEAR REPULSION ENERGY    8.95390023

 Basis set:  JKFIT                   
 Basis size:  1104
 Attributes:
 Sphericals:   T
 Basis set:  MP2FIT                  
 Basis size:  1246
 Attributes:
 Sphericals:   T
 Basis set:  RI                      
 Basis size:   730
 Attributes:
 Sphericals:   T
 Basis set:  TDDFT                   
 Basis size:  1246
 Attributes:
 Sphericals:   T

 Eigenvalues of metric

         1 0.157E-04 0.292E-04 0.318E-04 0.357E-04 0.645E-04 0.924E-04 0.980E-04 0.105E-03


 Contracted 2-electron integrals neglected if value below      1.0D-14

 OPERATOR DM      FOR CENTER  0  COORDINATES:    0.000000    0.000000    0.000000


 **********************************************************************************************************************************
 DATASETS  * FILE   NREC   LENGTH (MB)   RECORD NAMES
              1      18       37.12       500      610      700      900      950      970     1000      129      960     1100   
                                          VAR    BASINP    GEOM    SYMINP    ZMAT    AOBASIS   BASIS     P2S    ABASIS      S 
                                         1400     1410     1200     1210     1080     1600     1650     1700   
                                           T        V       H0       H01     AOSYM     SMH    MOLCAS    OPER   

              2       7       10.59       700     1000      520     2100     7360     7350      200   
                                         GEOM     BASIS   MCVARS     RHF    F12ABS    EF12    OPTIONS    

 PROGRAMS   *        TOTAL       INT   CCSD(T)    HF-SCF       INT
 CPU TIMES  *      6569.84      0.40   6157.61    224.41    187.19
 REAL TIME  *      6723.60 SEC
 DISK USED  *         3.24 GB (local),       82.66 GB (total)
 SF USED    *         5.12 GB
 GA USED    *         4.87 MB       (max)       0.00 MB       (current)
 **********************************************************************************************************************************


 PROGRAM * RHF-SCF (CLOSED SHELL)       Authors: W. Meyer, H.-J. Werner


 NUMBER OF ELECTRONS:       5+    5-    SPACE SYMMETRY=1    SPIN SYMMETRY: Singlet 
 CONVERGENCE THRESHOLDS:    1.00E-08 (Density)    1.00E-11 (Energy)
 MAX. NUMBER OF ITERATIONS:       60
 INTERPOLATION TYPE:            DIIS
 INTERPOLATION STEPS:              2 (START)      1 (STEP)
 LEVEL SHIFTS:                  0.00 (CLOSED)  0.00 (OPEN) 



 Orbital guess generated from atomic densities. Full valence occupancy:    7

 Molecular orbital dump at record        2101.2

 Initial occupancy:   5

 ITERATION    DDIFF          GRAD             ENERGY        2-EL.EN.            DIPOLE MOMENTS         DIIS   ORB.
    1      0.000D+00      0.000D+00       -76.02433385     77.350401    0.27712    1.08788   -0.25373    0    start
    2      0.000D+00      0.467D-02       -76.05105931     73.680803    0.15760    0.62978   -0.14869    1    diag
    3      0.222D-02      0.299D-02       -76.06273496     75.312024    0.18681    0.74396   -0.17526    2    diag
    4      0.844D-03      0.279D-03       -76.06293162     75.220543    0.18503    0.73919   -0.17451    3    diag
    5      0.104D-03      0.786D-04       -76.06295315     75.234942    0.18435    0.73739   -0.17424    4    diag
    6      0.323D-04      0.157D-04       -76.06295457     75.233879    0.18416    0.73698   -0.17419    5    diag
    7      0.820D-05      0.321D-05       -76.06295464     75.234028    0.18411    0.73685   -0.17417    6    diag
    8      0.230D-05      0.603D-06       -76.06295464     75.234012    0.18410    0.73681   -0.17417    7    diag
    9      0.423D-06      0.822D-07       -76.06295464     75.234003    0.18409    0.73680   -0.17417    8    diag
   10      0.562D-07      0.188D-07       -76.06295464     75.234007    0.18409    0.73680   -0.17417    9    orth
   11      0.145D-07      0.329D-08       -76.06295464     75.234006    0.18409    0.73680   -0.17417    9    diag
   12      0.267D-08      0.582D-09       -76.06295464     75.234006    0.18409    0.73680   -0.17417    0    orth

 Final occupancy:   5

 !RHF STATE  1.1 Energy               -76.062954644537
 Nuclear energy                         8.95390023
 One-electron energy                 -122.63385786
 Two-electron energy                   37.61700298
 Virial quotient                       -1.00220423
 !RHF STATE  1.1 Dipole moment          0.18409489     0.73680280    -0.17416611
 Dipole moment /Debye                   0.46789190     1.87264326    -0.44265709

 Orbital energies:

         1.1          2.1          3.1          4.1          5.1          6.1          7.1
    -20.568545    -1.339279    -0.706288    -0.577733    -0.508080     0.017761     0.036029


 HOMO      5.1    -0.508080 =     -13.8255eV
 LUMO      6.1     0.017761 =       0.4833eV
 LUMO-HOMO         0.525840 =      14.3088eV


 **********************************************************************************************************************************
 DATASETS  * FILE   NREC   LENGTH (MB)   RECORD NAMES
              1      18       37.12       500      610      700      900      950      970     1000      129      960     1100   
                                          VAR    BASINP    GEOM    SYMINP    ZMAT    AOBASIS   BASIS     P2S    ABASIS      S 
                                         1400     1410     1200     1210     1080     1600     1650     1700   
                                           T        V       H0       H01     AOSYM     SMH    MOLCAS    OPER   

              2       8       17.39       700     1000      520     2100     7360     7350      200     2101   
                                         GEOM     BASIS   MCVARS     RHF    F12ABS    EF12    OPTIONS    RHF  

 PROGRAMS   *        TOTAL    HF-SCF       INT   CCSD(T)    HF-SCF       INT
 CPU TIMES  *      6794.95    225.11      0.40   6157.61    224.41    187.19
 REAL TIME  *      6973.59 SEC
 DISK USED  *         3.24 GB (local),       82.66 GB (total)
 SF USED    *         5.12 GB
 GA USED    *         4.87 MB       (max)       0.00 MB       (current)
 **********************************************************************************************************************************

 Basis set:  JKFIT                   
 Basis size:  1104
 Attributes:
 Sphericals:   T
 Basis set:  MP2FIT                  
 Basis size:  1246
 Attributes:
 Sphericals:   T
 Basis set:  RI                      
 Basis size:   730
 Attributes:
 Sphericals:   T
 Basis set:  TDDFT                   
 Basis size:  1246
 Attributes:
 Sphericals:   T

 PROGRAM * CCSD (Closed-shell coupled cluster)     Authors: C. Hampel, H.-J. Werner, 1991, M. Deegan, P.J. Knowles, 1992

                                  CCSD-F12 implementation by  H.-J. Werner, 2007

                   Density fitting integral evaluation by F.R. Manby, 2003,2007, G. Knizia, 2010



 Convergence thresholds:  THRVAR = 1.00D-08  THRDEN = 1.00D-10

 CCSD(T)     terms to be evaluated (factor= 1.000)


 Number of core orbitals:           1 (   1 )
 Number of closed-shell orbitals:   4 (   4 )
 Number of external orbitals:     431 ( 431 )

 Molecular orbitals read from record     2101.2  Type=RHF/CANONICAL (state 1.1)

 MP2-F12 correlation treatment (H.-J. Werner, 2006)
 ==================================================

 Using MP2-F12 with ansatz 3C(FIX)

 Using projected zeroth-order Hamiltonian (+Z)

 FOCKRIB=T FOCKRIC=T FOCKRIP=T CABSP=T CABSA=T CABSK=T CABSF=T GBC=F EBC=F DMAT=T NOFIK=T NOPAO=1 SOLVE=-1  USEPAO=0
 EXCH_A= T EXCH_B= F EXCH_C= F EXCH_P= F

 Geminal basis:    OPTFULL  GEM_TYPE=SLATER  BETA=1.0  NGEM=6

 Optimizing Gaussian exponents for each gem_beta

 Geminal optimization for beta= 1.0000
 Weight function:   m=0, omega= 1.4646

 Augmented Hessian optimization of geminal fit. Trust ratio= 0.40000
 Convergence reached after   2 iterations. Final gradient= 8.31D-16, Step= 4.24D-06, Delta= 1.28D-09

 Alpha:                 0.19532     0.81920     2.85917     9.50073    35.69989   197.79328
 Coeff:                 0.27070     0.30552     0.18297     0.10986     0.06810     0.04224


 All pairs explicitly correlated. Number of r12-pairs:           10

 Excluding core orbitals from MO domains

 AO(A)-basis ORBITAL           loaded. Number of functions:     436
 RI(R)-basis RI                loaded. Number of functions:     730
 DF-basis JKFIT                loaded. Number of functions:    1104

 Screening thresholds:   THRAO=  1.00D-10  THRMO=  1.00D-09  THRPROD=  1.00D-09
                         THRSW=  1.00D-05  THROV=  1.00D-12  THRAOF12= 1.00D-10

 CPU time for Fock operators                      9.64 sec

 Construction of ABS:
 Smallest eigenvalue of S          2.27E-04  (threshold= 1.00E-08)
 Ratio eigmin/eigmax               3.94E-05  (threshold= 1.00E-09)
 Smallest eigenvalue of S kept     2.27E-04  (threshold= 2.27E-04, 0 functions deleted, 730 kept)

 Construction of CABS:
 Smallest eigenvalue of S          1.55E-08  (threshold= 1.00E-08)
 Ratio eigmin/eigmax               1.55E-08  (threshold= 1.00E-09)
 Smallest eigenvalue of S kept     1.55E-08  (threshold= 1.55E-08, 0 functions deleted, 730 kept)

 CPU time for CABS singles                        2.19 sec

 CABS-singles contribution of  -0.00028951 patched into reference energy.
 New reference energy         -76.06324415

 AO(A)-basis ORBITAL           loaded. Number of functions:     436
 RI(R)-basis RI                loaded. Number of functions:     730
 DF-basis MP2FIT               loaded. Number of functions:    1246

 Screening thresholds:   THRAO=  1.00D-10  THRMO=  1.00D-09  THRPROD=  1.00D-09
                         THRSW=  1.00D-05  THROV=  1.00D-12  THRAOF12= 1.00D-10

 CPU time for 3-index integral evaluation        19.07 sec
 CPU time for first  half transformation          3.34 sec ( 1938.1 MFLOP/sec)
 CPU time for second half transformation          0.03 sec ( 1276.6 MFLOP/sec)
 CPU time for sorting                             0.06 sec
 CPU time for fitting                             1.21 sec ( 3030.6 MFLOP/sec)
 CPU time for tilde quantities                    1.24 sec ( 2208.6 MFLOP/sec)
 CPU time for assembly                            4.77 sec ( 3941.5 MFLOP/sec)
 CPU time for tranop_f12                          4.69 sec ( 3871.8 MFLOP/sec)
 CPU time for f12 integrals (total)              41.27 sec, Elapsed time:     42.35 sec
 F12-matrices built in  4 passes.
 F12-matrices built in  4 passes.
 F12-matrices built in  4 passes.
 F12-matrices built in  4 passes.
 FC-matrix built in  4 passes.
 CPU time for f12 matrices (total)                1.75 sec, Elapsed time:      1.80 sec

 Diagonal F12 approximation with fixed coefficients:  TSING= 0.500,  TTRIP= 0.250 (scaled by -1/beta)

 DF-MP2-F12 energy corrections:
 ==============================
 Approx.                                    Singlet             Triplet             Total
 DF-MP2-F12/3*C(DX,FIX)                -0.013710967592     -0.001529411056     -0.015240378648
 DF-MP2-F12/3*C(FIX)                   -0.012091462206     -0.001075901994     -0.013167364200
 DF-MP2-F12/3C(FIX)                    -0.012078466511     -0.001112986102     -0.013191452613

 DF-MP2-F12 correlation energies:
 ================================
 Approx.                                    Singlet             Triplet             Ecorr            Total Energy
 DF-MP2                                -0.186365716285     -0.101469734274     -0.287835450558    -76.351079604018
 DF-MP2-F12/3*C(DX,FIX)                -0.200076683877     -0.102999145330     -0.303075829207    -76.366319982667
 DF-MP2-F12/3*C(FIX)                   -0.198457178491     -0.102545636268     -0.301002814758    -76.364246968218
 DF-MP2-F12/3C(FIX)                    -0.198444182796     -0.102582720375     -0.301026903171    -76.364271056631

 SCS-DF-MP2 energies (F_SING= 1.20000  F_TRIP= 0.62222  F_PARALLEL= 0.33333):
 ============================================================================
 SCS-DF-MP2                            -0.286775583090    -76.350019736549
 SCS-DF-MP2-F12/3*C(DX,FIX)            -0.304180377746    -76.367424531206
 SCS-DF-MP2-F12/3*C(FIX)               -0.301954787867    -76.365198941326
 SCS-DF-MP2-F12/3C(FIX)                -0.301962267588    -76.365206421048
 Symmetry transformation completed.

 Number of N-1 electron functions:               4
 Number of N-2 electron functions:              10
 Number of singly external CSFs:              1724
 Number of doubly external CSFs:           1486950
 Total number of CSFs:                     1488675

 Pair and operator lists are different

 Length of J-op  integral file:             203.65 MB
 Length of K-op  integral file:             338.08 MB
 Length of 3-ext integral record:             0.00 MB

 Memory could be reduced to 526.20 Mwords without degradation in triples

 Integral transformation finished. Total CPU: 167.64 sec, npass=  1  Memory used: 214.75 MW

 Reference energy:                    -76.06324415

 Adding F12 terms to K(Cij), methodcc=6,  factor= 1.0

 ITER.      SQ.NORM     CORR.ENERGY   TOTAL ENERGY   ENERGY CHANGE        DEN1      VAR(S)    VAR(P)  DIIS     TIME  TIME/IT
   1      1.06376192    -0.28722621   -76.35047036     0.00061329     0.00682311  0.80D-03  0.11D-02  1  1   276.59    50.16
   2      1.06733236    -0.28702974   -76.35027389     0.00019647    -0.00491363  0.13D-04  0.12D-03  2  2   325.61    50.53
   3      1.06858026    -0.28712821   -76.35037236    -0.00009847    -0.00082860  0.99D-05  0.77D-05  3  3   374.36    50.69
   4      1.06914327    -0.28714338   -76.35038753    -0.00001517    -0.00034414  0.54D-06  0.74D-06  4  4   423.24    50.81
   5      1.06925044    -0.28714177   -76.35038592     0.00000161    -0.00003006  0.18D-06  0.58D-07  5  5   472.06    50.84
   6      1.06928405    -0.28713962   -76.35038377     0.00000215    -0.00000416  0.21D-07  0.50D-08  6  6   520.98    50.88
   7      1.06929356    -0.28713901   -76.35038316     0.00000061    -0.00000192  0.16D-08  0.79D-09  6  1   569.89    50.91
   8      1.06929499    -0.28713898   -76.35038314     0.00000002     0.00000020  0.34D-09  0.10D-09  6  3   618.76    50.92
   9      1.06929606    -0.28713893   -76.35038308     0.00000006    -0.00000027  0.24D-10  0.11D-10  6  2   667.75    50.91
  10      1.06929626    -0.28713892   -76.35038307     0.00000001     0.00000000  0.23D-11  0.13D-11  6  4   716.38    50.90
  11      1.06929625    -0.28713892   -76.35038307    -0.00000000     0.00000003  0.56D-12  0.19D-12  6  5   764.90    50.89
  12      1.06929625    -0.28713892   -76.35038307    -0.00000000     0.00000001  0.98D-13  0.29D-13  6  6   813.52    50.87
  13      1.06929624    -0.28713892   -76.35038307    -0.00000000     0.00000000  0.16D-13  0.51D-14  6  1   862.26    50.86
  14      1.06929623    -0.28713892   -76.35038307    -0.00000000     0.00000000  0.22D-14  0.92D-15  6  3   910.75    50.84
  15      1.06929623    -0.28713892   -76.35038307    -0.00000000    -0.00000000  0.20D-15  0.13D-15  6  2   959.93    50.85
  16      1.06929623    -0.28713892   -76.35038307     0.00000000    -0.00000000  0.40D-16  0.19D-16  6  4  1009.02    50.86

 Norm of t1 vector:      0.03702685      S-energy:    -0.00000000      T1 diagnostic:  0.00925671
                                                                       D1 diagnostic:  0.01879873

 Adding energy correction from Wij-K(Fij), methodcc=6  factor= 1.0

  CCSD correlation energy              -0.287138920073
  MP2-F12 correction (uncoupled)       -0.012750028320
  C*T doubles correction               -0.000420101952
  f12b correction                       0.002714530693


 Total CPU time for triples:    439.87 sec

  Ecorr(MP2)                           -0.287839500095
  Ecorr(MP2-F12)                       -0.301030952708
  Scale factor for triples energy       1.045829195119


 RESULTS
 =======

  Reference energy                    -76.062954644537
  F12 singles correction               -0.000289508922

 F12 singles corrections added to reference energy

  New reference energy                -76.063244153460

  F12a singlet correction              -0.012047925600
  F12a triplet correction              -0.001122204672
  F12a total correction                -0.013170130272

 F12a corrections for ansatz F12/3C(FIX) added to CCSD energy

  CCSD-F12a singlet pair energy        -0.209546346325
  CCSD-F12a triplet pair energy        -0.090762703955
  CCSD-F12a correlation energy         -0.300309050345

  Triples (T) contribution (scaled)    -0.009971756129
  Total correlation energy             -0.310280806474

  CCSD-F12a total energy              -76.363553203805
  CCSD[T]-F12a energy                 -76.373855061074
  CCSD-T-F12a energy                  -76.373381533937
 !CCSD(T)-F12a total energy           -76.373524959934

 F12b corrections for ansatz F12/3C(FIX) added to CCSD(T)-F12a energy

  CCSD-F12b singlet pair energy        -0.206978533911
  CCSD-F12b triplet pair energy        -0.090615985676
  CCSD-F12b correlation energy         -0.297594519652

  Triples (T) contribution (scaled)    -0.009971756129
  Total correlation energy             -0.307566275781

  CCSD-F12b total energy              -76.360838673112
  CCSD[T]-F12b energy                 -76.371140530381
  CCSD-T-F12b energy                  -76.370667003244
 !CCSD(T)-F12b total energy           -76.370810429241

 Timing summary (sec):

 STEP                 CPU(USER)    SYS     CPU(TOT)    WALL
 Transformation        167.99      5.67    173.66    174.11
 CCSD iterations       781.14     31.15    812.29    813.96
 Triples               439.87      3.61    443.48    444.38
 MP2-F12                60.04      1.28     61.32     61.43
 F12b energy            45.01      1.68     46.69     46.78

 Program statistics:

 Available memory in ccsd:              1999999871
 Min. memory needed in ccsd:               6763924
 Max. memory used in ccsd:                 7862874
 Max. memory used in cckext:               5171974 (17 integral passes)



 **********************************************************************************************************************************
 DATASETS  * FILE   NREC   LENGTH (MB)   RECORD NAMES
              1      19     1346.98       500      610      700      900      950      970     1000      129      960     1100   
                                          VAR    BASINP    GEOM    SYMINP    ZMAT    AOBASIS   BASIS     P2S    ABASIS      S 
                                         1400     1410     1200     1210     1080     1600     1650     1700     1380   
                                           T        V       H0       H01     AOSYM     SMH    MOLCAS    OPER     JKOP   

              2       8       17.39       700     1000      520     2100     7360     7350      200     2101   
                                         GEOM     BASIS   MCVARS     RHF    F12ABS    EF12    OPTIONS    RHF  

 PROGRAMS   *        TOTAL   CCSD(T)    HF-SCF       INT   CCSD(T)    HF-SCF       INT
 CPU TIMES  *      8289.25   1494.29    225.11      0.40   6157.61    224.41    187.19
 REAL TIME  *      8515.28 SEC
 DISK USED  *         3.24 GB (local),       82.66 GB (total)
 SF USED    *         5.12 GB
 GA USED    *         4.87 MB       (max)       0.00 MB       (current)
 **********************************************************************************************************************************

 Running procedure: SET_MONOMER2

 Dummy atoms: O4  H7  H8


 Recomputing one-electron integrals since nuclear charges changed


 PROGRAM * SEWARD (Integral evaluation for generally contracted gaussian basis sets)     Author: Roland Lindh, 1990

 Geometry written to block  1 of record 700


 Point group  C1  



 ATOMIC COORDINATES

 NR  ATOM    CHARGE       X              Y              Z

   1  O4      0.00   -4.078028977   -2.591381435   -1.799397216
   2  H7      0.00   -5.032718615   -1.436758773   -2.879375696
   3  H8      0.00   -2.589302736   -1.626109330   -1.217739515
   4  C1      6.00   -6.193010455    2.801518980    2.403542658
   5  H41     1.00   -4.656285171    1.699997622    3.119937832
   6  H42     1.00   -5.973046335    4.726205038    2.982932688
   7  H43     1.00   -7.940251230    2.077186956    3.118237078
   8  H44     1.00   -6.176569838    2.685300823    0.384937212

 Bond lengths in Bohr (Angstrom)

 1-2  1.846872847  1-3  1.867185512  4-5  2.021904040  4-6  2.022002335  4-7  2.021953343
     ( 0.977323022)     ( 0.988072022)     ( 1.069945541)     ( 1.069997556)     ( 1.069971630)

 4-8  2.022015060
     ( 1.070004290)

 Bond angles

  2-1-3  105.73056797   5-4-6  109.53398059   5-4-7  109.65604535   5-4-8  108.43490854

  6-4-7  109.49436728   6-4-8  109.86987750   7-4-8  109.83468330

 NUCLEAR CHARGE:                   10
 NUMBER OF PRIMITIVE AOS:         578
 NUMBER OF SYMMETRY AOS:          474
 NUMBER OF CONTRACTIONS:          436   (  436A   )
 NUMBER OF CORE ORBITALS:           1   (    1A   )
 NUMBER OF VALENCE ORBITALS:        8   (    8A   )

 MOLECULE CHANGED: INITIALIZING OCCUPATION AND DUMP RECORDS


 NUCLEAR REPULSION ENERGY   13.68681606

 Basis set:  JKFIT                   
 Basis size:  1104
 Attributes:
 Sphericals:   T
 Basis set:  MP2FIT                  
 Basis size:  1246
 Attributes:
 Sphericals:   T
 Basis set:  RI                      
 Basis size:   730
 Attributes:
 Sphericals:   T
 Basis set:  TDDFT                   
 Basis size:  1246
 Attributes:
 Sphericals:   T

 Eigenvalues of metric

         1 0.157E-04 0.292E-04 0.318E-04 0.357E-04 0.645E-04 0.924E-04 0.980E-04 0.105E-03


 Contracted 2-electron integrals neglected if value below      1.0D-14

 OPERATOR DM      FOR CENTER  0  COORDINATES:    0.000000    0.000000    0.000000


 **********************************************************************************************************************************
 DATASETS  * FILE   NREC   LENGTH (MB)   RECORD NAMES
              1      18       37.12       500      610      700      900      950      970     1000      129      960     1100   
                                          VAR    BASINP    GEOM    SYMINP    ZMAT    AOBASIS   BASIS     P2S    ABASIS      S 
                                         1400     1410     1200     1210     1080     1600     1650     1700   
                                           T        V       H0       H01     AOSYM     SMH    MOLCAS    OPER   

              2       8       17.39       700     1000      520     2100     7360     7350      200     2101   
                                         GEOM     BASIS   MCVARS     RHF    F12ABS    EF12    OPTIONS    RHF  

 PROGRAMS   *        TOTAL       INT   CCSD(T)    HF-SCF       INT   CCSD(T)    HF-SCF       INT
 CPU TIMES  *      8289.68      0.42   1494.29    225.11      0.40   6157.61    224.41    187.19
 REAL TIME  *      8516.40 SEC
 DISK USED  *         3.24 GB (local),       82.66 GB (total)
 SF USED    *         5.12 GB
 GA USED    *         4.87 MB       (max)       0.00 MB       (current)
 **********************************************************************************************************************************


 PROGRAM * RHF-SCF (CLOSED SHELL)       Authors: W. Meyer, H.-J. Werner


 NUMBER OF ELECTRONS:       5+    5-    SPACE SYMMETRY=1    SPIN SYMMETRY: Singlet 
 CONVERGENCE THRESHOLDS:    1.00E-08 (Density)    1.00E-11 (Energy)
 MAX. NUMBER OF ITERATIONS:       60
 INTERPOLATION TYPE:            DIIS
 INTERPOLATION STEPS:              2 (START)      1 (STEP)
 LEVEL SHIFTS:                  0.00 (CLOSED)  0.00 (OPEN) 



 Orbital guess generated from atomic densities. Full valence occupancy:    9

 Molecular orbital dump at record        2102.2

 Initial occupancy:   5

 ITERATION    DDIFF          GRAD             ENERGY        2-EL.EN.            DIPOLE MOMENTS         DIIS   ORB.
    1      0.000D+00      0.000D+00       -40.19609587     53.506293    0.00410   -0.00275   -0.00130    0    start
    2      0.000D+00      0.257D-02       -40.21334997     52.217625    0.00127   -0.00087   -0.00037    1    diag
    3      0.158D-02      0.998D-03       -40.21562589     52.672085    0.00180   -0.00123   -0.00054    2    diag
    4      0.443D-03      0.249D-03       -40.21594535     52.617272    0.00160   -0.00110   -0.00047    3    diag
    5      0.166D-03      0.322D-04       -40.21595084     52.619419    0.00157   -0.00108   -0.00046    4    diag
    6      0.408D-04      0.264D-05       -40.21595088     52.619556    0.00157   -0.00108   -0.00046    5    diag
    7      0.543D-05      0.212D-06       -40.21595088     52.619517    0.00157   -0.00108   -0.00046    6    diag
    8      0.219D-06      0.170D-07       -40.21595088     52.619518    0.00157   -0.00108   -0.00046    7    diag
    9      0.822D-07      0.217D-08       -40.21595088     52.619518    0.00157   -0.00108   -0.00046    8    diag
   10      0.827D-08      0.594D-09       -40.21595088     52.619518    0.00157   -0.00108   -0.00046    0    orth

 Final occupancy:   5

 !RHF STATE  1.1 Energy               -40.215950879457
 Nuclear energy                        13.68681606
 One-electron energy                  -80.21252584
 Two-electron energy                   26.30975890
 Virial quotient                       -0.99838098
 !RHF STATE  1.1 Dipole moment          0.00157227    -0.00107880    -0.00046328
 Dipole moment /Debye                   0.00399604    -0.00274185    -0.00117745

 Orbital energies:

         1.1          2.1          3.1          4.1          5.1          6.1          7.1
    -11.196224    -0.950661    -0.551889    -0.549955    -0.547775     0.024955     0.038135


 HOMO      5.1    -0.547775 =     -14.9057eV
 LUMO      6.1     0.024955 =       0.6790eV
 LUMO-HOMO         0.572730 =      15.5848eV


 **********************************************************************************************************************************
 DATASETS  * FILE   NREC   LENGTH (MB)   RECORD NAMES
              1      18       37.12       500      610      700      900      950      970     1000      129      960     1100   
                                          VAR    BASINP    GEOM    SYMINP    ZMAT    AOBASIS   BASIS     P2S    ABASIS      S 
                                         1400     1410     1200     1210     1080     1600     1650     1700   
                                           T        V       H0       H01     AOSYM     SMH    MOLCAS    OPER   

              2       9       27.51       700     1000      520     2100     7360     7350      200     2101     2102   
                                         GEOM     BASIS   MCVARS     RHF    F12ABS    EF12    OPTIONS    RHF      RHF  

 PROGRAMS   *        TOTAL    HF-SCF       INT   CCSD(T)    HF-SCF       INT   CCSD(T)    HF-SCF       INT
 CPU TIMES  *      8479.28    189.60      0.42   1494.29    225.11      0.40   6157.61    224.41    187.19
 REAL TIME  *      8726.33 SEC
 DISK USED  *         3.24 GB (local),       82.66 GB (total)
 SF USED    *         5.12 GB
 GA USED    *         4.87 MB       (max)       0.00 MB       (current)
 **********************************************************************************************************************************

 Basis set:  JKFIT                   
 Basis size:  1104
 Attributes:
 Sphericals:   T
 Basis set:  MP2FIT                  
 Basis size:  1246
 Attributes:
 Sphericals:   T
 Basis set:  RI                      
 Basis size:   730
 Attributes:
 Sphericals:   T
 Basis set:  TDDFT                   
 Basis size:  1246
 Attributes:
 Sphericals:   T

 PROGRAM * CCSD (Closed-shell coupled cluster)     Authors: C. Hampel, H.-J. Werner, 1991, M. Deegan, P.J. Knowles, 1992

                                  CCSD-F12 implementation by  H.-J. Werner, 2007

                   Density fitting integral evaluation by F.R. Manby, 2003,2007, G. Knizia, 2010



 Convergence thresholds:  THRVAR = 1.00D-08  THRDEN = 1.00D-10

 CCSD(T)     terms to be evaluated (factor= 1.000)


 Number of core orbitals:           1 (   1 )
 Number of closed-shell orbitals:   4 (   4 )
 Number of external orbitals:     431 ( 431 )

 Molecular orbitals read from record     2102.2  Type=RHF/CANONICAL (state 1.1)

 MP2-F12 correlation treatment (H.-J. Werner, 2006)
 ==================================================

 Using MP2-F12 with ansatz 3C(FIX)

 Using projected zeroth-order Hamiltonian (+Z)

 FOCKRIB=T FOCKRIC=T FOCKRIP=T CABSP=T CABSA=T CABSK=T CABSF=T GBC=F EBC=F DMAT=T NOFIK=T NOPAO=1 SOLVE=-1  USEPAO=0
 EXCH_A= T EXCH_B= F EXCH_C= F EXCH_P= F

 Geminal basis:    OPTFULL  GEM_TYPE=SLATER  BETA=1.0  NGEM=6

 Optimizing Gaussian exponents for each gem_beta

 Geminal optimization for beta= 1.0000
 Weight function:   m=0, omega= 1.4646

 Augmented Hessian optimization of geminal fit. Trust ratio= 0.40000
 Convergence reached after   2 iterations. Final gradient= 7.85D-16, Step= 4.26D-06, Delta= 1.28D-09

 Alpha:                 0.19532     0.81920     2.85917     9.50073    35.69989   197.79328
 Coeff:                 0.27070     0.30552     0.18297     0.10986     0.06810     0.04224


 All pairs explicitly correlated. Number of r12-pairs:           10

 Excluding core orbitals from MO domains

 AO(A)-basis ORBITAL           loaded. Number of functions:     436
 RI(R)-basis RI                loaded. Number of functions:     730
 DF-basis JKFIT                loaded. Number of functions:    1104

 Screening thresholds:   THRAO=  1.00D-10  THRMO=  1.00D-09  THRPROD=  1.00D-09
                         THRSW=  1.00D-05  THROV=  1.00D-12  THRAOF12= 1.00D-10

 CPU time for Fock operators                      9.84 sec

 Construction of ABS:
 Smallest eigenvalue of S          2.27E-04  (threshold= 1.00E-08)
 Ratio eigmin/eigmax               3.94E-05  (threshold= 1.00E-09)
 Smallest eigenvalue of S kept     2.27E-04  (threshold= 2.27E-04, 0 functions deleted, 730 kept)

 Construction of CABS:
 Smallest eigenvalue of S          1.55E-08  (threshold= 1.00E-08)
 Ratio eigmin/eigmax               1.55E-08  (threshold= 1.00E-09)
 Smallest eigenvalue of S kept     1.55E-08  (threshold= 1.55E-08, 0 functions deleted, 730 kept)

 CPU time for CABS singles                        2.19 sec

 CABS-singles contribution of  -0.00024485 patched into reference energy.
 New reference energy         -40.21619573

 AO(A)-basis ORBITAL           loaded. Number of functions:     436
 RI(R)-basis RI                loaded. Number of functions:     730
 DF-basis MP2FIT               loaded. Number of functions:    1246

 Screening thresholds:   THRAO=  1.00D-10  THRMO=  1.00D-09  THRPROD=  1.00D-09
                         THRSW=  1.00D-05  THROV=  1.00D-12  THRAOF12= 1.00D-10

 CPU time for 3-index integral evaluation        19.31 sec
 CPU time for first  half transformation          3.33 sec ( 1943.1 MFLOP/sec)
 CPU time for second half transformation          0.04 sec (  964.4 MFLOP/sec)
 CPU time for sorting                             0.09 sec
 CPU time for fitting                             1.08 sec ( 1282.3 MFLOP/sec)
 CPU time for tilde quantities                    1.28 sec ( 5681.2 MFLOP/sec)
 CPU time for assembly                            4.82 sec ( 4353.4 MFLOP/sec)
 CPU time for tranop_f12                          4.56 sec ( 4352.1 MFLOP/sec)
 CPU time for f12 integrals (total)              41.77 sec, Elapsed time:     42.79 sec
 F12-matrices built in  4 passes.
 F12-matrices built in  4 passes.
 F12-matrices built in  4 passes.
 F12-matrices built in  4 passes.
 FC-matrix built in  4 passes.
 CPU time for f12 matrices (total)                1.76 sec, Elapsed time:      1.78 sec

 Diagonal F12 approximation with fixed coefficients:  TSING= 0.500,  TTRIP= 0.250 (scaled by -1/beta)

 DF-MP2-F12 energy corrections:
 ==============================
 Approx.                                    Singlet             Triplet             Total
 DF-MP2-F12/3*C(DX,FIX)                -0.007492209695     -0.000574587731     -0.008066797425
 DF-MP2-F12/3*C(FIX)                   -0.007045178085     -0.000473232179     -0.007518410264
 DF-MP2-F12/3C(FIX)                    -0.007073956742     -0.000486732428     -0.007560689170

 DF-MP2-F12 correlation energies:
 ================================
 Approx.                                    Singlet             Triplet             Ecorr            Total Energy
 DF-MP2                                -0.154424586092     -0.056464328705     -0.210888914797    -40.427084648183
 DF-MP2-F12/3*C(DX,FIX)                -0.161916795787     -0.057038916436     -0.218955712223    -40.435151445609
 DF-MP2-F12/3*C(FIX)                   -0.161469764177     -0.056937560884     -0.218407325062    -40.434603058448
 DF-MP2-F12/3C(FIX)                    -0.161498542834     -0.056951061134     -0.218449603967    -40.434645337353

 SCS-DF-MP2 energies (F_SING= 1.20000  F_TRIP= 0.62222  F_PARALLEL= 0.33333):
 ============================================================================
 SCS-DF-MP2                            -0.220442863394    -40.436638596780
 SCS-DF-MP2-F12/3*C(DX,FIX)            -0.229791036282    -40.445986769668
 SCS-DF-MP2-F12/3*C(FIX)               -0.229191532674    -40.445387266060
 SCS-DF-MP2-F12/3C(FIX)                -0.229234467217    -40.445430200603
 Symmetry transformation completed.

 Number of N-1 electron functions:               4
 Number of N-2 electron functions:              10
 Number of singly external CSFs:              1724
 Number of doubly external CSFs:           1486950
 Total number of CSFs:                     1488675

 Pair and operator lists are different

 Length of J-op  integral file:             203.65 MB
 Length of K-op  integral file:             338.08 MB
 Length of 3-ext integral record:             0.00 MB

 Memory could be reduced to 526.20 Mwords without degradation in triples

 Integral transformation finished. Total CPU: 166.88 sec, npass=  1  Memory used: 214.75 MW

 Reference energy:                    -40.21619573

 Adding F12 terms to K(Cij), methodcc=6,  factor= 1.0

 ITER.      SQ.NORM     CORR.ENERGY   TOTAL ENERGY   ENERGY CHANGE        DEN1      VAR(S)    VAR(P)  DIIS     TIME  TIME/IT
   1      1.07024087    -0.22512230   -40.44131804    -0.01422803    -0.00847349  0.63D-03  0.94D-03  1  1   276.02    49.70
   2      1.07517148    -0.22597242   -40.44216815    -0.00085011    -0.00530358  0.15D-04  0.10D-03  2  2   324.50    50.16
   3      1.07679446    -0.22606022   -40.44225595    -0.00008780    -0.00117771  0.22D-05  0.59D-05  3  3   373.06    50.32
   4      1.07717747    -0.22606751   -40.44226325    -0.00000729    -0.00020556  0.14D-06  0.33D-06  4  4   421.86    50.46
   5      1.07722954    -0.22606914   -40.44226488    -0.00000163    -0.00000895  0.11D-07  0.21D-07  5  5   470.27    50.50
   6      1.07723813    -0.22606785   -40.44226359     0.00000129    -0.00000326  0.77D-09  0.16D-08  6  6   518.76    50.54
   7      1.07723949    -0.22606752   -40.44226326     0.00000033    -0.00000085  0.51D-10  0.12D-09  6  1   567.40    50.56
   8      1.07723946    -0.22606759   -40.44226333    -0.00000007     0.00000020  0.53D-11  0.73D-11  6  3   616.27    50.56
   9      1.07723960    -0.22606757   -40.44226331     0.00000002    -0.00000009  0.40D-12  0.59D-12  6  2   664.84    50.57
  10      1.07723960    -0.22606757   -40.44226331     0.00000000     0.00000001  0.51D-13  0.59D-13  6  4   713.58    50.58
  11      1.07723960    -0.22606757   -40.44226331     0.00000000     0.00000000  0.47D-14  0.59D-14  6  5   762.27    50.59
  12      1.07723960    -0.22606757   -40.44226330     0.00000000     0.00000000  0.11D-15  0.63D-15  6  6   810.98    50.60
  13      1.07723960    -0.22606757   -40.44226330    -0.00000000     0.00000000  0.77D-17  0.66D-16  6  1   859.49    50.61
  14      1.07723960    -0.22606757   -40.44226330    -0.00000000     0.00000000  0.11D-17  0.83D-17  6  3   908.19    50.61

 Norm of t1 vector:      0.03291650      S-energy:    -0.00000000      T1 diagnostic:  0.00822913
                                                                       D1 diagnostic:  0.01319216

 Adding energy correction from Wij-K(Fij), methodcc=6  factor= 1.0

  CCSD correlation energy              -0.226067571332
  MP2-F12 correction (uncoupled)       -0.007437277985
  C*T doubles correction               -0.000126502160
  f12b correction                       0.001936420247

 Total CPU time for triples:    439.59 sec

  Ecorr(MP2)                           -0.210894273988
  Ecorr(MP2-F12)                       -0.218454963158
  Scale factor for triples energy       1.035850613803


 RESULTS
 =======

  Reference energy                    -40.215950879456
  F12 singles correction               -0.000244853930

 F12 singles corrections added to reference energy

  New reference energy                -40.216195733386

  F12a singlet correction              -0.007074634442
  F12a triplet correction              -0.000489145703
  F12a total correction                -0.007563780145

 F12a corrections for ansatz F12/3C(FIX) added to CCSD energy

  CCSD-F12a singlet pair energy        -0.178450290292
  CCSD-F12a triplet pair energy        -0.055181061181
  CCSD-F12a correlation energy         -0.233631351477

  Triples (T) contribution (scaled)    -0.007053203482
  Total correlation energy             -0.240684554960

  CCSD-F12a total energy              -40.449827084863
  CCSD[T]-F12a energy                 -40.457116812061
  CCSD-T-F12a energy                  -40.456810438019
 !CCSD(T)-F12a total energy           -40.456880288346

 F12b corrections for ansatz F12/3C(FIX) added to CCSD(T)-F12a energy

  CCSD-F12b singlet pair energy        -0.176581417926
  CCSD-F12b triplet pair energy        -0.055113513300
  CCSD-F12b correlation energy         -0.231694931230

  Triples (T) contribution (scaled)    -0.007053203482
  Total correlation energy             -0.238748134712

  CCSD-F12b total energy              -40.447890664616
  CCSD[T]-F12b energy                 -40.455180391813
  CCSD-T-F12b energy                  -40.454874017772
 !CCSD(T)-F12b total energy           -40.454943868098

 Timing summary (sec):

 STEP                 CPU(USER)    SYS     CPU(TOT)    WALL
 Transformation        167.21      5.70    172.91    173.49
 CCSD iterations       680.37     26.33    706.70    708.74
 Triples               439.59      3.39    442.98    443.86
 MP2-F12                60.70      1.27     61.97     62.10
 F12b energy            44.88      1.60     46.48     46.57

 Program statistics:

 Available memory in ccsd:              1999999866
 Min. memory needed in ccsd:               6763924
 Max. memory used in ccsd:                 7862874
 Max. memory used in cckext:               5171974 (15 integral passes)



 **********************************************************************************************************************************
 DATASETS  * FILE   NREC   LENGTH (MB)   RECORD NAMES
              1      19     1346.98       500      610      700      900      950      970     1000      129      960     1100   
                                          VAR    BASINP    GEOM    SYMINP    ZMAT    AOBASIS   BASIS     P2S    ABASIS      S 
                                         1400     1410     1200     1210     1080     1600     1650     1700     1380   
                                           T        V       H0       H01     AOSYM     SMH    MOLCAS    OPER     JKOP   

              2       9       27.51       700     1000      520     2100     7360     7350      200     2101     2102   
                                         GEOM     BASIS   MCVARS     RHF    F12ABS    EF12    OPTIONS    RHF      RHF  

 PROGRAMS   *        TOTAL   CCSD(T)    HF-SCF       INT   CCSD(T)    HF-SCF       INT   CCSD(T)    HF-SCF       INT
 CPU TIMES  *      9872.29   1393.00    189.60      0.42   1494.29    225.11      0.40   6157.61    224.41    187.19
 REAL TIME  *     10162.12 SEC
 DISK USED  *         3.24 GB (local),       82.66 GB (total)
 SF USED    *         5.12 GB
 GA USED    *         4.87 MB       (max)       0.00 MB       (current)
 **********************************************************************************************************************************
 Molecular orbitals read from record     2102.2  Type=RHF/CANONICAL (state 1.1)
 Occupation numbers read from record     2102.2  Type=RHF/RHF (state 1.1)
 Orbital energies read from record       2102.2  Type=RHF/CANONICAL (state 1.1)
 Redundancy group numbers read from rec  2102.2  Type=RHF/RHF (state 1.1)

 CCSD(T)-F12/aug-cc-pVQZ energy=    -40.454943868098

     CCSD(T)-F12          HF-SCF     CCSD(T)-F12          HF-SCF     CCSD(T)-F12          HF-SCF
    -40.45494387    -40.21595088    -76.37081043    -76.06295464   -116.82608021   -116.27831378
 **********************************************************************************************************************************
 Molpro calculation terminated
