
 Primary working directories    : /scratch/klimes/383235/molpro.4AEHt2wZfj
 Secondary working directories  : /scratch/klimes/383235/molpro.4AEHt2wZfj
 Wavefunction directory         : /scratch/klimes/383235/
 Main file repository           : /scratch/klimes/383235/molpro.4AEHt2wZfj/

 id        : karlovklimes

 Nodes                      nprocs
 nc-01.cc.karlov.mff.cuni.cz    4

 Using customized tuning parameters: mindgm=1; mindgv=20; mindgc=4; mindgr=1; noblas=0; minvec=7
 default implementation of scratch files=sf  


 Variables initialized (930), CPU time= 0.01 sec
                                                                                 !gdirect
 memory,2000,m
 gthresh,orbital=1d-10,energy=1d-10,grid=1d-8
 
 symmetry,nosym
 angstrom
 geometry={
 O5        -0.319200000000      2.341100000000      3.764400000000
 H9         0.407500000000      2.568500000000      4.358500000000
 H10        -0.153000000000      1.405800000000      3.495900000000
 C1        -3.277200000000      1.482500000000      1.271900000000
 H41        -2.464000000000      0.899600000000      1.651000000000
 H42        -3.160800000000      2.501000000000      1.578500000000
 H43        -4.201800000000      1.099200000000      1.650100000000
 H44        -3.268500000000      1.421000000000      0.203700000000
 }
 
 nkerna=1
 nkernb=1
 
 gf=0
 sing=1
 thrdum=1d-4
 gridthr=1d-8
 
 basis={
 set,orbital
 default,avqz
 set,jkfit
 default,av5z/jkfit
 set,mp2fit
 default,av5z/mp2fit
 set,ri
 default,av5z/optri
 set,tddft
 default,av5z/mp2fit
 }
 
 proc set_monomer1
 dummy,4,5,6,7,8
 endproc
 
 proc set_monomer2
 dummy,1,2,3
 endproc
 
                                                                                 !12 energy
 {hf,accu=1.d-16}
 {ccsd(t)-f12,df_basis=mp2fit,df_basis_exch=jkfit,ri_basis=ri,scale_trip=1,THRAOF12=1d-10}
 
 set_monomer1
 {hf,accu=1.d-16}
 {ccsd(t)-f12,df_basis=mp2fit,df_basis_exch=jkfit,ri_basis=ri,scale_trip=1,THRAOF12=1d-10}
 
 set_monomer2
 {hf,accu=1.d-16}
 {ccsd(t)-f12,df_basis=mp2fit,df_basis_exch=jkfit,ri_basis=ri,scale_trip=1,THRAOF12=1d-10}
 
 Commands  initialized (760), CPU time= 0.01 sec, 617 directives.
 Default parameters read. Elapsed time= 0.21 sec

 Checking input...
 Passed
1


                                         ***  PROGRAM SYSTEM MOLPRO  ***
                                       Copyright, TTI GmbH Stuttgart, 2015
                                    Version 2019.1 linked Jan 14 2019 13:09:19


 **********************************************************************************************************************************
 LABEL *                                                                                 
  64 bit mpp version                                                                     DATE: 11-Mar-20          TIME: 16:33:59  
 **********************************************************************************************************************************

 SHA1:             d688ac825633d238f2093ded1675ba87ccd55965
 **********************************************************************************************************************************

 THRESHOLDS:

 ZERO    =  1.00D-12  ONEINT  =  1.00D-12  TWOINT  =  1.00D-11  PREFAC  =  1.00D-14  XXXXXX  =  1.00D-09  EORDER  =  1.00D-04
 ENERGY  =  1.00D-10  ETEST   =  0.00D+00  EDENS   =  0.00D+00  THRDEDEF=  1.00D-06  GRADIENT=  1.00D-02  STEP    =  1.00D-03
 ORBITAL =  1.00D-10  CIVEC   =  1.00D-05  COEFF   =  1.00D-04  PRINTCI =  5.00D-02  PUNCHCI =  9.90D+01  OPTGRAD =  3.00D-04
 OPTENERG=  1.00D-06  OPTSTEP =  3.00D-04  THRGRAD =  1.00D-10  COMPRESS=  1.00D-11  VARMIN  =  1.00D-07  VARMAX  =  1.00D-03
 THRDOUB =  0.00D+00  THRDIV  =  1.00D-05  THRRED  =  1.00D-07  THRPSP  =  1.00D+00  THRDC   =  1.00D-10  THRCS   =  1.00D-10
 THRNRM  =  1.00D-08  THREQ   =  0.00D+00  THRDE   =  1.00D+00  THRREF  =  1.00D-05  SPARFAC =  1.00D+00  THRDLP  =  1.00D-07
 THRDIA  =  1.00D-10  THRDLS  =  1.00D-07  THRGPS  =  0.00D+00  THRKEX  =  0.00D+00  THRDIS  =  2.00D-01  THRVAR  =  1.00D-10
 THRLOC  =  1.00D-06  THRGAP  =  1.00D-06  THRLOCT = -1.00D+00  THRGAPT = -1.00D+00  THRORB  =  1.00D-06  THRMLTP =  0.00D+00
 THRCPQCI=  1.00D-10  KEXTA   =  0.00D+00  THRCOARS=  0.00D+00  SYMTOL  =  1.00D-06  GRADTOL =  1.00D-06  THROVL  =  1.00D-08
 THRORTH =  1.00D-08  GRID    =  1.00D-08  GRIDMAX =  1.00D-03  DTMAX   =  0.00D+00  THROCCDE=  1.00D-01  THROCCDE=  1.00D-01
 THRPRINT=  2.50D-01


 Variable memory set to 2000000000 words,  buffer space 

 ZSYMEL=NOSYM
 ZUNIT=ANG


Geometry recognized as XYZ

 SETTING NKERNA         =         1.00000000                                  
 SETTING NKERNB         =         1.00000000                                  
 SETTING GF             =     0.00000000D+00                                  
 SETTING SING           =         1.00000000                                  
 SETTING THRDUM         =     1.00000000D-04                                  
 SETTING GRIDTHR        =     1.00000000D-08                                  
 SETTING BASIS          =    AVQZ


 Recomputing integrals since basis changed


 Using spherical harmonics

 Library entry O      S aug-cc-pVQZ          selected for orbital group  1
 Library entry O      P aug-cc-pVQZ          selected for orbital group  1
 Library entry O      D aug-cc-pVQZ          selected for orbital group  1
 Library entry O      F aug-cc-pVQZ          selected for orbital group  1
 Library entry O      G aug-cc-pVQZ          selected for orbital group  1
 Library entry H      S aug-cc-pVQZ          selected for orbital group  2
 Library entry H      P aug-cc-pVQZ          selected for orbital group  2
 Library entry H      D aug-cc-pVQZ          selected for orbital group  2
 Library entry H      F aug-cc-pVQZ          selected for orbital group  2
 Library entry C      S aug-cc-pVQZ          selected for orbital group  3
 Library entry C      P aug-cc-pVQZ          selected for orbital group  3
 Library entry C      D aug-cc-pVQZ          selected for orbital group  3
 Library entry C      F aug-cc-pVQZ          selected for orbital group  3
 Library entry C      G aug-cc-pVQZ          selected for orbital group  3


 PROGRAM * SEWARD (Integral evaluation for generally contracted gaussian basis sets)     Author: Roland Lindh, 1990

 Geometry written to block  1 of record 700


 Point group  C1  



 ATOMIC COORDINATES

 NR  ATOM    CHARGE       X              Y              Z

   1  O5      8.00   -0.603200579    4.424037830    7.113685023
   2  H9      1.00    0.770063396    4.853761551    8.236371314
   3  H10     1.00   -0.289128097    2.656576986    6.606293559
   4  C1      6.00   -6.193010455    2.801518980    2.403542658
   5  H41     1.00   -4.656285171    1.699997622    3.119937832
   6  H42     1.00   -5.973046335    4.726205038    2.982932688
   7  H43     1.00   -7.940251230    2.077186956    3.118237078
   8  H44     1.00   -6.176569838    2.685300823    0.384937212

 Bond lengths in Bohr (Angstrom)

 1-2  1.825086553  1-3  1.865477274  4-5  2.021904040  4-6  2.022002335  4-7  2.021953343
     ( 0.965794212)     ( 0.987168061)     ( 1.069945541)     ( 1.069997556)     ( 1.069971630)

 4-8  2.022015060
     ( 1.070004290)

 Bond angles

  2-1-3  105.29057030   5-4-6  109.53398059   5-4-7  109.65604535   5-4-8  108.43490854

  6-4-7  109.49436728   6-4-8  109.86987750   7-4-8  109.83468330

 NUCLEAR CHARGE:                   20
 NUMBER OF PRIMITIVE AOS:         578
 NUMBER OF SYMMETRY AOS:          474
 NUMBER OF CONTRACTIONS:          436   (  436A   )
 NUMBER OF CORE ORBITALS:           2   (    2A   )
 NUMBER OF VALENCE ORBITALS:       14   (   14A   )


 NUCLEAR REPULSION ENERGY   35.83278858


 Basis set:  JKFIT                   
 Basis size:  1104
 Attributes:
 Sphericals:   T
 Basis set:  MP2FIT                  
 Basis size:  1246
 Attributes:
 Sphericals:   T
 Basis set:  RI                      
 Basis size:   730
 Attributes:
 Sphericals:   T
 Basis set:  TDDFT                   
 Basis size:  1246
 Attributes:
 Sphericals:   T

 **********************************************************************************************************************************


 Eigenvalues of metric

         1 0.162E-04 0.292E-04 0.350E-04 0.370E-04 0.630E-04 0.836E-04 0.983E-04 0.106E-03


 Contracted 2-electron integrals neglected if value below      1.0D-14
 AO integral compression algorithm  1   Integral accuracy      1.0D-14

     21636.841 MB (compressed) written to integral file ( 54.0%)

     Node minimum: 5139.595 MB, node maximum: 5772.673 MB


 NUMBER OF SORTED TWO-ELECTRON INTEGRALS: 1134451344.     BUFFER LENGTH:  32768
 NUMBER OF SEGMENTS:  36  SEGMENT LENGTH:   31999984      RECORD LENGTH: 524288

 Memory used in sort:      32.56 MW

 SORT1 READ  5012305700. AND WROTE   917397535. INTEGRALS IN   2642 RECORDS. CPU TIME:   101.48 SEC, REAL TIME:   116.43 SEC
 SORT2 READ  3669497308. AND WROTE  4537853011. INTEGRALS IN  85036 RECORDS. CPU TIME:    19.66 SEC, REAL TIME:    27.39 SEC

 Node minimum:  1134427528.  Node maximum:  1134498978. integrals

 OPERATOR DM      FOR CENTER  0  COORDINATES:    0.000000    0.000000    0.000000


 **********************************************************************************************************************************
 DATASETS  * FILE   NREC   LENGTH (MB)   RECORD NAMES
              1      18       37.12       500      610      700      900      950      970     1000      129      960     1100   
                                          VAR    BASINP    GEOM    SYMINP    ZMAT    AOBASIS   BASIS     P2S    ABASIS      S 
                                         1400     1410     1200     1210     1080     1600     1650     1700   
                                           T        V       H0       H01     AOSYM     SMH    MOLCAS    OPER   

 PROGRAMS   *        TOTAL       INT
 CPU TIMES  *       185.05    184.83
 REAL TIME  *       217.76 SEC
 DISK USED  *        37.64 MB (local),       65.53 GB (total)
 GA USED    *         0.00 MB       (max)       0.00 MB       (current)
 **********************************************************************************************************************************


 PROGRAM * RHF-SCF (CLOSED SHELL)       Authors: W. Meyer, H.-J. Werner


 NUMBER OF ELECTRONS:      10+   10-    SPACE SYMMETRY=1    SPIN SYMMETRY: Singlet 
 CONVERGENCE THRESHOLDS:    1.00E-08 (Density)    1.00E-11 (Energy)
 MAX. NUMBER OF ITERATIONS:       60
 INTERPOLATION TYPE:            DIIS
 INTERPOLATION STEPS:              2 (START)      1 (STEP)
 LEVEL SHIFTS:                  0.00 (CLOSED)  0.00 (OPEN) 



 Orbital guess generated from atomic densities. Full valence occupancy:   16

 Molecular orbital dump at record        2100.2

 Initial occupancy:  10

 ITERATION    DDIFF          GRAD             ENERGY        2-EL.EN.            DIPOLE MOMENTS         DIIS   ORB.
    1      0.000D+00      0.000D+00      -116.22075530    157.411638    0.86662   -0.69279    0.31068    0    start
    2      0.000D+00      0.380D-02      -116.26504881    152.357836    0.51460   -0.35495    0.20908    1    diag
    3      0.273D-02      0.223D-02      -116.27871004    154.446094    0.60413   -0.43892    0.23547    2    diag
    4      0.942D-03      0.330D-03      -116.27936748    154.332918    0.59575   -0.43175    0.23244    3    diag
    5      0.202D-03      0.966D-04      -116.27943586    154.327992    0.59549   -0.43083    0.23267    4    diag
    6      0.817D-04      0.234D-04      -116.27943962    154.333585    0.59492   -0.43024    0.23250    5    diag
    7      0.219D-04      0.458D-05      -116.27943984    154.331999    0.59492   -0.43022    0.23250    6    diag
    8      0.632D-05      0.114D-05      -116.27943985    154.332160    0.59487   -0.43017    0.23250    7    diag
    9      0.130D-05      0.274D-06      -116.27943985    154.332134    0.59486   -0.43016    0.23249    8    diag
   10      0.378D-06      0.321D-07      -116.27943985    154.332135    0.59486   -0.43015    0.23249    9    orth
   11      0.409D-07      0.721D-08      -116.27943985    154.332136    0.59486   -0.43015    0.23249    9    diag
   12      0.863D-08      0.189D-08      -116.27943985    154.332136    0.59486   -0.43015    0.23249    0    orth

 Final occupancy:  10

 !RHF STATE  1.1 Energy              -116.279439854180
 Nuclear energy                        35.83278858
 One-electron energy                 -229.27829634
 Two-electron energy                   77.16606790
 Virial quotient                       -1.00066811
 !RHF STATE  1.1 Dipole moment          0.59485696    -0.43015404     0.23249046
 Dipole moment /Debye                   1.51187656    -1.09327090     0.59089311

 Orbital energies:

         1.1          2.1          3.1          4.1          5.1          6.1          7.1          8.1          9.1         10.1
    -20.567813   -11.189937    -1.342874    -0.944206    -0.709115    -0.580105    -0.545757    -0.542625    -0.541805    -0.508843

        11.1         12.1
      0.024494     0.035982


 HOMO     10.1    -0.508843 =     -13.8463eV
 LUMO     11.1     0.024494 =       0.6665eV
 LUMO-HOMO         0.533337 =      14.5128eV


 **********************************************************************************************************************************
 DATASETS  * FILE   NREC   LENGTH (MB)   RECORD NAMES
              1      18       37.12       500      610      700      900      950      970     1000      129      960     1100   
                                          VAR    BASINP    GEOM    SYMINP    ZMAT    AOBASIS   BASIS     P2S    ABASIS      S 
                                         1400     1410     1200     1210     1080     1600     1650     1700   
                                           T        V       H0       H01     AOSYM     SMH    MOLCAS    OPER   

              2       4        6.75       700     1000      520     2100   
                                         GEOM     BASIS   MCVARS     RHF  

 PROGRAMS   *        TOTAL    HF-SCF       INT
 CPU TIMES  *       386.73    201.68    184.83
 REAL TIME  *       437.10 SEC
 DISK USED  *        57.70 MB (local),       65.61 GB (total)
 SF USED    *         0.76 MB
 GA USED    *         0.00 MB       (max)       0.00 MB       (current)
 **********************************************************************************************************************************

 Basis set:  JKFIT                   
 Basis size:  1104
 Attributes:
 Sphericals:   T
 Basis set:  MP2FIT                  
 Basis size:  1246
 Attributes:
 Sphericals:   T
 Basis set:  RI                      
 Basis size:   730
 Attributes:
 Sphericals:   T
 Basis set:  TDDFT                   
 Basis size:  1246
 Attributes:
 Sphericals:   T

 PROGRAM * CCSD (Closed-shell coupled cluster)     Authors: C. Hampel, H.-J. Werner, 1991, M. Deegan, P.J. Knowles, 1992

                                  CCSD-F12 implementation by  H.-J. Werner, 2007

                   Density fitting integral evaluation by F.R. Manby, 2003,2007, G. Knizia, 2010



 Convergence thresholds:  THRVAR = 1.00D-08  THRDEN = 1.00D-10

 CCSD(T)     terms to be evaluated (factor= 1.000)


 Number of core orbitals:           2 (   2 )
 Number of closed-shell orbitals:   8 (   8 )
 Number of external orbitals:     426 ( 426 )

 Molecular orbitals read from record     2100.2  Type=RHF/CANONICAL (state 1.1)

 MP2-F12 correlation treatment (H.-J. Werner, 2006)
 ==================================================

 Using MP2-F12 with ansatz 3C(FIX)

 Using projected zeroth-order Hamiltonian (+Z)

 FOCKRIB=T FOCKRIC=T FOCKRIP=T CABSP=T CABSA=T CABSK=T CABSF=T GBC=F EBC=F DMAT=T NOFIK=T NOPAO=1 SOLVE=-1  USEPAO=0
 EXCH_A= T EXCH_B= F EXCH_C= F EXCH_P= F

 Geminal basis:    OPTFULL  GEM_TYPE=SLATER  BETA=1.0  NGEM=6

 Optimizing Gaussian exponents for each gem_beta

 Geminal optimization for beta= 1.0000
 Weight function:   m=0, omega= 1.4646

 Augmented Hessian optimization of geminal fit. Trust ratio= 0.40000
 Convergence reached after   2 iterations. Final gradient= 7.85D-16, Step= 4.26D-06, Delta= 1.28D-09

 Alpha:                 0.19532     0.81920     2.85917     9.50073    35.69989   197.79328
 Coeff:                 0.27070     0.30552     0.18297     0.10986     0.06810     0.04224


 All pairs explicitly correlated. Number of r12-pairs:           36

 Excluding core orbitals from MO domains

 AO(A)-basis ORBITAL           loaded. Number of functions:     436
 RI(R)-basis RI                loaded. Number of functions:     730
 DF-basis JKFIT                loaded. Number of functions:    1104

 Screening thresholds:   THRAO=  1.00D-10  THRMO=  1.00D-09  THRPROD=  1.00D-09
                         THRSW=  1.00D-05  THROV=  1.00D-12  THRAOF12= 1.00D-10

 CPU time for Fock operators                     11.32 sec

 Construction of ABS:
 Smallest eigenvalue of S          2.27E-04  (threshold= 1.00E-08)
 Ratio eigmin/eigmax               3.94E-05  (threshold= 1.00E-09)
 Smallest eigenvalue of S kept     2.27E-04  (threshold= 2.27E-04, 0 functions deleted, 730 kept)

 Construction of CABS:
 Smallest eigenvalue of S          1.60E-08  (threshold= 1.00E-08)
 Ratio eigmin/eigmax               1.60E-08  (threshold= 1.00E-09)
 Smallest eigenvalue of S kept     1.60E-08  (threshold= 1.60E-08, 0 functions deleted, 730 kept)

 CPU time for CABS singles                        2.17 sec

 CABS-singles contribution of  -0.00052852 patched into reference energy.
 New reference energy        -116.27996837

 AO(A)-basis ORBITAL           loaded. Number of functions:     436
 RI(R)-basis RI                loaded. Number of functions:     730
 DF-basis MP2FIT               loaded. Number of functions:    1246

 Screening thresholds:   THRAO=  1.00D-10  THRMO=  1.00D-09  THRPROD=  1.00D-09
                         THRSW=  1.00D-05  THROV=  1.00D-12  THRAOF12= 1.00D-10

 CPU time for 3-index integral evaluation        18.03 sec
 CPU time for first  half transformation          4.30 sec ( 2995.0 MFLOP/sec)
 CPU time for second half transformation          0.13 sec ( 1188.1 MFLOP/sec)
 CPU time for sorting                             0.15 sec
 CPU time for fitting                             1.71 sec ( 4343.4 MFLOP/sec)
 CPU time for tilde quantities                    2.23 sec ( 4516.9 MFLOP/sec)
 CPU time for assembly                           15.82 sec ( 4482.8 MFLOP/sec)
 CPU time for tranop_f12                         15.41 sec ( 4472.7 MFLOP/sec)
 CPU time for f12 integrals (total)              79.44 sec, Elapsed time:     81.52 sec
 F12-matrices built in  4 passes.
 F12-matrices built in  4 passes.
 F12-matrices built in  4 passes.
 F12-matrices built in  4 passes.
 FC-matrix built in  4 passes.
 CPU time for f12 matrices (total)                5.78 sec, Elapsed time:      5.86 sec

 Diagonal F12 approximation with fixed coefficients:  TSING= 0.500,  TTRIP= 0.250 (scaled by -1/beta)

 DF-MP2-F12 energy corrections:
 ==============================
 Approx.                                    Singlet             Triplet             Total
 DF-MP2-F12/3*C(DX,FIX)                -0.021235984289     -0.002109582707     -0.023345566997
 DF-MP2-F12/3*C(FIX)                   -0.019169395774     -0.001554985566     -0.020724381340
 DF-MP2-F12/3C(FIX)                    -0.019185763858     -0.001606095312     -0.020791859170

 DF-MP2-F12 correlation energies:
 ================================
 Approx.                                    Singlet             Triplet             Ecorr            Total Energy
 DF-MP2                                -0.340618715865     -0.158147708717     -0.498766424581   -116.778734799279
 DF-MP2-F12/3*C(DX,FIX)                -0.361854700154     -0.160257291424     -0.522111991578   -116.802080366276
 DF-MP2-F12/3*C(FIX)                   -0.359788111638     -0.159702694283     -0.519490805921   -116.799459180619
 DF-MP2-F12/3C(FIX)                    -0.359804479723     -0.159753804028     -0.519558283751   -116.799526658449

 SCS-DF-MP2 energies (F_SING= 1.20000  F_TRIP= 0.62222  F_PARALLEL= 0.33333):
 ============================================================================
 SCS-DF-MP2                            -0.507145477794   -116.787113852492
 SCS-DF-MP2-F12/3*C(DX,FIX)            -0.533941288182   -116.813909662880
 SCS-DF-MP2-F12/3*C(FIX)               -0.531116299298   -116.811084673996
 SCS-DF-MP2-F12/3C(FIX)                -0.531167742618   -116.811136117317
 Symmetry transformation completed.

 Number of N-1 electron functions:               8
 Number of N-2 electron functions:              36
 Number of singly external CSFs:              3408
 Number of doubly external CSFs:           5808936
 Total number of CSFs:                     5812345

 Pair and operator lists are different

 Length of J-op  integral file:               0.75 GB
 Length of K-op  integral file:               0.98 GB
 Length of 3-ext integral record:             0.00 MB

 Memory could be reduced to 828.63 Mwords without degradation in triples

 Integral transformation finished. Total CPU: 295.96 sec, npass=  1  Memory used: 389.45 MW

 Reference energy:                   -116.27996837

 Adding F12 terms to K(Cij), methodcc=6,  factor= 1.0

 ITER.      SQ.NORM     CORR.ENERGY   TOTAL ENERGY   ENERGY CHANGE        DEN1      VAR(S)    VAR(P)  DIIS     TIME  TIME/IT
   1      1.13382946    -0.51243100  -116.79239937    -0.01365514    -0.00175437  0.14D-02  0.20D-02  1  1   558.77   157.25
   2      1.14206418    -0.51307049  -116.79303886    -0.00063949    -0.00997628  0.29D-04  0.24D-03  2  2   720.42   160.52
   3      1.14509008    -0.51326241  -116.79323078    -0.00019192    -0.00214041  0.13D-04  0.14D-04  3  3   877.85   160.16
   4      1.14606550    -0.51328219  -116.79325056    -0.00001978    -0.00058263  0.66D-06  0.12D-05  4  4  1038.19   160.74
   5      1.14623212    -0.51328193  -116.79325031     0.00000026    -0.00003910  0.19D-06  0.88D-07  5  5  1191.87   159.74
   6      1.14627448    -0.51327917  -116.79324754     0.00000276    -0.00000605  0.20D-07  0.74D-08  6  6  1346.54   159.23
   7      1.14628571    -0.51327793  -116.79324631     0.00000124    -0.00000345  0.17D-08  0.69D-09  6  1  1501.72   158.94
   8      1.14628736    -0.51327800  -116.79324637    -0.00000007     0.00000042  0.24D-09  0.75D-10  6  3  1656.77   158.71
   9      1.14628836    -0.51327792  -116.79324630     0.00000007    -0.00000030  0.16D-10  0.13D-10  6  2  1811.79   158.50
  10      1.14628846    -0.51327792  -116.79324630     0.00000000     0.00000006  0.21D-11  0.14D-11  6  4  1966.97   158.36
  11      1.14628846    -0.51327792  -116.79324630     0.00000000     0.00000003  0.34D-12  0.20D-12  6  5  2122.28   158.27
  12      1.14628845    -0.51327792  -116.79324630    -0.00000000     0.00000001  0.70D-13  0.26D-13  6  6  2277.87   158.21
  13      1.14628843    -0.51327792  -116.79324630    -0.00000000     0.00000001  0.13D-13  0.34D-14  6  1  2433.60   158.18
  14      1.14628842    -0.51327792  -116.79324630    -0.00000000     0.00000000  0.18D-14  0.80D-15  6  3  2589.34   158.14
  15      1.14628842    -0.51327792  -116.79324630    -0.00000000     0.00000000  0.21D-15  0.12D-15  6  2  2745.33   158.12
  16      1.14628842    -0.51327792  -116.79324630    -0.00000000    -0.00000000  0.18D-16  0.14D-16  6  4  2900.47   158.06
  17      1.14628842    -0.51327792  -116.79324630     0.00000000    -0.00000000  0.25D-17  0.21D-17  6  5  3055.97   158.03

 Norm of t1 vector:      0.04952133      S-energy:    -0.00000000      T1 diagnostic:  0.00875422
                                                                       D1 diagnostic:  0.01880535

 Adding energy correction from Wij-K(Fij), methodcc=6  factor= 1.0

  CCSD correlation energy              -0.513277924421
  MP2-F12 correction (uncoupled)       -0.020209802899
  C*T doubles correction               -0.000558254345
  f12b correction                       0.004654924051

   CPU time for triples:   2031.98 sec for i =  1 -  7 /  8 (~  68.8 % done)
   CPU time for triples:    813.19 sec for i =  8 -  8 /  8 (  100.0 % done)

 Total CPU time for triples:   2850.69 sec

  Ecorr(MP2)                           -0.498775860368
  Ecorr(MP2-F12)                       -0.519567719538
  Scale factor for triples energy       1.041685776763


 RESULTS
 =======

  Reference energy                   -116.279439854179
  F12 singles correction               -0.000528520519

 F12 singles corrections added to reference energy

  New reference energy               -116.279968374698

  F12a singlet correction              -0.019151296731
  F12a triplet correction              -0.001616760513
  F12a total correction                -0.020768057244

 F12a corrections for ansatz F12/3C(FIX) added to CCSD energy

  CCSD-F12a singlet pair energy        -0.387755984458
  CCSD-F12a triplet pair energy        -0.146289996999
  CCSD-F12a correlation energy         -0.534045981665

  Triples (T) contribution (scaled)    -0.017048084740
  Total correlation energy             -0.551094066405

  CCSD-F12a total energy             -116.814014356363
  CCSD[T]-F12a energy                -116.831626147687
  CCSD-T-F12a energy                 -116.830850395780
 !CCSD(T)-F12a total energy          -116.831062441103

 F12b corrections for ansatz F12/3C(FIX) added to CCSD(T)-F12a energy

  CCSD-F12b singlet pair energy        -0.383316014856
  CCSD-F12b triplet pair energy        -0.146075042549
  CCSD-F12b correlation energy         -0.529391057614

  Triples (T) contribution (scaled)    -0.017048084740
  Total correlation energy             -0.546439142354

  CCSD-F12b total energy             -116.809359432312
  CCSD[T]-F12b energy                -116.826971223636
  CCSD-T-F12b energy                 -116.826195471729
 !CCSD(T)-F12b total energy          -116.826407517052

 Timing summary (sec):

 STEP                 CPU(USER)    SYS     CPU(TOT)    WALL
 Transformation        297.13      7.55    304.68    306.38
 CCSD iterations      2653.03     29.53   2682.56   2686.75
 Triples              2850.69      6.50   2857.19   2861.46
 MP2-F12               105.90      2.48    108.38    108.51
 F12b energy           132.16      1.27    133.43    133.62

 Program statistics:

 Available memory in ccsd:              1999999554
 Min. memory needed in ccsd:              16971337
 Max. memory used in ccsd:                21987113
 Max. memory used in cckext:              15122080 (18 integral passes)



 **********************************************************************************************************************************
 DATASETS  * FILE   NREC   LENGTH (MB)   RECORD NAMES
              1      19     2602.04       500      610      700      900      950      970     1000      129      960     1100   
                                          VAR    BASINP    GEOM    SYMINP    ZMAT    AOBASIS   BASIS     P2S    ABASIS      S 
                                         1400     1410     1200     1210     1080     1600     1650     1700     1380   
                                           T        V       H0       H01     AOSYM     SMH    MOLCAS    OPER     JKOP   

              2       6       10.56       700     1000      520     2100     7360     7350   
                                         GEOM     BASIS   MCVARS     RHF    F12ABS    EF12   

 PROGRAMS   *        TOTAL   CCSD(T)    HF-SCF       INT
 CPU TIMES  *      6425.87   6039.14    201.68    184.83
 REAL TIME  *      6535.22 SEC
 DISK USED  *         3.24 GB (local),       76.45 GB (total)
 SF USED    *         5.12 GB
 GA USED    *         4.87 MB       (max)       0.00 MB       (current)
 **********************************************************************************************************************************

 Running procedure: SET_MONOMER1

 Dummy atoms: C1  H41  H42  H43  H44


 Recomputing one-electron integrals since nuclear charges changed


 PROGRAM * SEWARD (Integral evaluation for generally contracted gaussian basis sets)     Author: Roland Lindh, 1990

 Geometry written to block  1 of record 700


 Point group  C1  



 ATOMIC COORDINATES

 NR  ATOM    CHARGE       X              Y              Z

   1  O5      8.00   -0.603200579    4.424037830    7.113685023
   2  H9      1.00    0.770063396    4.853761551    8.236371314
   3  H10     1.00   -0.289128097    2.656576986    6.606293559
   4  C1      0.00   -6.193010455    2.801518980    2.403542658
   5  H41     0.00   -4.656285171    1.699997622    3.119937832
   6  H42     0.00   -5.973046335    4.726205038    2.982932688
   7  H43     0.00   -7.940251230    2.077186956    3.118237078
   8  H44     0.00   -6.176569838    2.685300823    0.384937212

 Bond lengths in Bohr (Angstrom)

 1-2  1.825086553  1-3  1.865477274  4-5  2.021904040  4-6  2.022002335  4-7  2.021953343
     ( 0.965794212)     ( 0.987168061)     ( 1.069945541)     ( 1.069997556)     ( 1.069971630)

 4-8  2.022015060
     ( 1.070004290)

 Bond angles

  2-1-3  105.29057030   5-4-6  109.53398059   5-4-7  109.65604535   5-4-8  108.43490854

  6-4-7  109.49436728   6-4-8  109.86987750   7-4-8  109.83468330

 NUCLEAR CHARGE:                   10
 NUMBER OF PRIMITIVE AOS:         578
 NUMBER OF SYMMETRY AOS:          474
 NUMBER OF CONTRACTIONS:          436   (  436A   )
 NUMBER OF CORE ORBITALS:           1   (    1A   )
 NUMBER OF VALENCE ORBITALS:        6   (    6A   )

 MOLECULE CHANGED: INITIALIZING OCCUPATION AND DUMP RECORDS


 NUCLEAR REPULSION ENERGY    9.01266574

 Basis set:  JKFIT                   
 Basis size:  1104
 Attributes:
 Sphericals:   T
 Basis set:  MP2FIT                  
 Basis size:  1246
 Attributes:
 Sphericals:   T
 Basis set:  RI                      
 Basis size:   730
 Attributes:
 Sphericals:   T
 Basis set:  TDDFT                   
 Basis size:  1246
 Attributes:
 Sphericals:   T

 Eigenvalues of metric

         1 0.162E-04 0.292E-04 0.350E-04 0.370E-04 0.630E-04 0.836E-04 0.983E-04 0.106E-03


 Contracted 2-electron integrals neglected if value below      1.0D-14

 OPERATOR DM      FOR CENTER  0  COORDINATES:    0.000000    0.000000    0.000000


 **********************************************************************************************************************************
 DATASETS  * FILE   NREC   LENGTH (MB)   RECORD NAMES
              1      18       37.12       500      610      700      900      950      970     1000      129      960     1100   
                                          VAR    BASINP    GEOM    SYMINP    ZMAT    AOBASIS   BASIS     P2S    ABASIS      S 
                                         1400     1410     1200     1210     1080     1600     1650     1700   
                                           T        V       H0       H01     AOSYM     SMH    MOLCAS    OPER   

              2       7       10.59       700     1000      520     2100     7360     7350      200   
                                         GEOM     BASIS   MCVARS     RHF    F12ABS    EF12    OPTIONS    

 PROGRAMS   *        TOTAL       INT   CCSD(T)    HF-SCF       INT
 CPU TIMES  *      6426.27      0.39   6039.14    201.68    184.83
 REAL TIME  *      6536.49 SEC
 DISK USED  *         3.24 GB (local),       76.45 GB (total)
 SF USED    *         5.12 GB
 GA USED    *         4.87 MB       (max)       0.00 MB       (current)
 **********************************************************************************************************************************


 PROGRAM * RHF-SCF (CLOSED SHELL)       Authors: W. Meyer, H.-J. Werner


 NUMBER OF ELECTRONS:       5+    5-    SPACE SYMMETRY=1    SPIN SYMMETRY: Singlet 
 CONVERGENCE THRESHOLDS:    1.00E-08 (Density)    1.00E-11 (Energy)
 MAX. NUMBER OF ITERATIONS:       60
 INTERPOLATION TYPE:            DIIS
 INTERPOLATION STEPS:              2 (START)      1 (STEP)
 LEVEL SHIFTS:                  0.00 (CLOSED)  0.00 (OPEN) 



 Orbital guess generated from atomic densities. Full valence occupancy:    7

 Molecular orbital dump at record        2101.2

 Initial occupancy:   5

 ITERATION    DDIFF          GRAD             ENERGY        2-EL.EN.            DIPOLE MOMENTS         DIIS   ORB.
    1      0.000D+00      0.000D+00       -76.02524073     77.430781    0.86246   -0.69117    0.31147    0    start
    2      0.000D+00      0.467D-02       -76.05203666     73.781694    0.50397   -0.39696    0.18484    1    diag
    3      0.221D-02      0.297D-02       -76.06354919     75.399754    0.59379   -0.46920    0.21717    2    diag
    4      0.835D-03      0.278D-03       -76.06374278     75.308629    0.59070   -0.46539    0.21660    3    diag
    5      0.105D-03      0.776D-04       -76.06376355     75.322880    0.58958   -0.46393    0.21642    4    diag
    6      0.325D-04      0.154D-04       -76.06376488     75.321865    0.58936   -0.46357    0.21642    5    diag
    7      0.815D-05      0.312D-05       -76.06376495     75.322011    0.58928   -0.46346    0.21641    6    diag
    8      0.217D-05      0.589D-06       -76.06376495     75.321996    0.58925   -0.46343    0.21640    7    diag
    9      0.407D-06      0.789D-07       -76.06376495     75.321988    0.58925   -0.46343    0.21640    8    diag
   10      0.465D-07      0.180D-07       -76.06376495     75.321990    0.58925   -0.46343    0.21640    9    orth
   11      0.116D-07      0.365D-08       -76.06376495     75.321990    0.58925   -0.46343    0.21640    9    diag
   12      0.251D-08      0.714D-09       -76.06376495     75.321990    0.58925   -0.46343    0.21640    0    orth

 Final occupancy:   5

 !RHF STATE  1.1 Energy               -76.063764953719
 Nuclear energy                         9.01266574
 One-electron energy                 -122.73742563
 Two-electron energy                   37.66099493
 Virial quotient                       -1.00189968
 !RHF STATE  1.1 Dipole moment          0.58924630    -0.46342923     0.21639727
 Dipole moment /Debye                   1.49761662    -1.17784247     0.54999098

 Orbital energies:

         1.1          2.1          3.1          4.1          5.1          6.1          7.1
    -20.567693    -1.342705    -0.708860    -0.579753    -0.508707     0.021515     0.032843


 HOMO      5.1    -0.508707 =     -13.8426eV
 LUMO      6.1     0.021515 =       0.5854eV
 LUMO-HOMO         0.530222 =      14.4281eV


 **********************************************************************************************************************************
 DATASETS  * FILE   NREC   LENGTH (MB)   RECORD NAMES
              1      18       37.12       500      610      700      900      950      970     1000      129      960     1100   
                                          VAR    BASINP    GEOM    SYMINP    ZMAT    AOBASIS   BASIS     P2S    ABASIS      S 
                                         1400     1410     1200     1210     1080     1600     1650     1700   
                                           T        V       H0       H01     AOSYM     SMH    MOLCAS    OPER   

              2       8       17.39       700     1000      520     2100     7360     7350      200     2101   
                                         GEOM     BASIS   MCVARS     RHF    F12ABS    EF12    OPTIONS    RHF  

 PROGRAMS   *        TOTAL    HF-SCF       INT   CCSD(T)    HF-SCF       INT
 CPU TIMES  *      6626.60    200.33      0.39   6039.14    201.68    184.83
 REAL TIME  *      6754.21 SEC
 DISK USED  *         3.24 GB (local),       76.45 GB (total)
 SF USED    *         5.12 GB
 GA USED    *         4.87 MB       (max)       0.00 MB       (current)
 **********************************************************************************************************************************

 Basis set:  JKFIT                   
 Basis size:  1104
 Attributes:
 Sphericals:   T
 Basis set:  MP2FIT                  
 Basis size:  1246
 Attributes:
 Sphericals:   T
 Basis set:  RI                      
 Basis size:   730
 Attributes:
 Sphericals:   T
 Basis set:  TDDFT                   
 Basis size:  1246
 Attributes:
 Sphericals:   T

 PROGRAM * CCSD (Closed-shell coupled cluster)     Authors: C. Hampel, H.-J. Werner, 1991, M. Deegan, P.J. Knowles, 1992

                                  CCSD-F12 implementation by  H.-J. Werner, 2007

                   Density fitting integral evaluation by F.R. Manby, 2003,2007, G. Knizia, 2010



 Convergence thresholds:  THRVAR = 1.00D-08  THRDEN = 1.00D-10

 CCSD(T)     terms to be evaluated (factor= 1.000)


 Number of core orbitals:           1 (   1 )
 Number of closed-shell orbitals:   4 (   4 )
 Number of external orbitals:     431 ( 431 )

 Molecular orbitals read from record     2101.2  Type=RHF/CANONICAL (state 1.1)

 MP2-F12 correlation treatment (H.-J. Werner, 2006)
 ==================================================

 Using MP2-F12 with ansatz 3C(FIX)

 Using projected zeroth-order Hamiltonian (+Z)

 FOCKRIB=T FOCKRIC=T FOCKRIP=T CABSP=T CABSA=T CABSK=T CABSF=T GBC=F EBC=F DMAT=T NOFIK=T NOPAO=1 SOLVE=-1  USEPAO=0
 EXCH_A= T EXCH_B= F EXCH_C= F EXCH_P= F

 Geminal basis:    OPTFULL  GEM_TYPE=SLATER  BETA=1.0  NGEM=6

 Optimizing Gaussian exponents for each gem_beta

 Geminal optimization for beta= 1.0000
 Weight function:   m=0, omega= 1.4646

 Augmented Hessian optimization of geminal fit. Trust ratio= 0.40000
 Convergence reached after   2 iterations. Final gradient= 8.31D-16, Step= 4.24D-06, Delta= 1.28D-09

 Alpha:                 0.19532     0.81920     2.85917     9.50073    35.69989   197.79328
 Coeff:                 0.27070     0.30552     0.18297     0.10986     0.06810     0.04224


 All pairs explicitly correlated. Number of r12-pairs:           10

 Excluding core orbitals from MO domains

 AO(A)-basis ORBITAL           loaded. Number of functions:     436
 RI(R)-basis RI                loaded. Number of functions:     730
 DF-basis JKFIT                loaded. Number of functions:    1104

 Screening thresholds:   THRAO=  1.00D-10  THRMO=  1.00D-09  THRPROD=  1.00D-09
                         THRSW=  1.00D-05  THROV=  1.00D-12  THRAOF12= 1.00D-10

 CPU time for Fock operators                      9.45 sec

 Construction of ABS:
 Smallest eigenvalue of S          2.27E-04  (threshold= 1.00E-08)
 Ratio eigmin/eigmax               3.94E-05  (threshold= 1.00E-09)
 Smallest eigenvalue of S kept     2.27E-04  (threshold= 2.27E-04, 0 functions deleted, 730 kept)

 Construction of CABS:
 Smallest eigenvalue of S          1.60E-08  (threshold= 1.00E-08)
 Ratio eigmin/eigmax               1.60E-08  (threshold= 1.00E-09)
 Smallest eigenvalue of S kept     1.60E-08  (threshold= 1.60E-08, 0 functions deleted, 730 kept)

 CPU time for CABS singles                        2.27 sec

 CABS-singles contribution of  -0.00028255 patched into reference energy.
 New reference energy         -76.06404750

 AO(A)-basis ORBITAL           loaded. Number of functions:     436
 RI(R)-basis RI                loaded. Number of functions:     730
 DF-basis MP2FIT               loaded. Number of functions:    1246

 Screening thresholds:   THRAO=  1.00D-10  THRMO=  1.00D-09  THRPROD=  1.00D-09
                         THRSW=  1.00D-05  THROV=  1.00D-12  THRAOF12= 1.00D-10

 CPU time for 3-index integral evaluation        18.30 sec
 CPU time for first  half transformation          3.00 sec ( 2133.9 MFLOP/sec)
 CPU time for second half transformation          0.03 sec ( 1251.0 MFLOP/sec)
 CPU time for sorting                             0.02 sec
 CPU time for fitting                             1.30 sec ( 2082.8 MFLOP/sec)
 CPU time for tilde quantities                    1.36 sec ( 5347.0 MFLOP/sec)
 CPU time for assembly                            4.87 sec ( 3763.3 MFLOP/sec)
 CPU time for tranop_f12                          4.34 sec ( 4151.4 MFLOP/sec)
 CPU time for f12 integrals (total)              39.95 sec, Elapsed time:     40.95 sec
 F12-matrices built in  4 passes.
 F12-matrices built in  4 passes.
 F12-matrices built in  4 passes.
 F12-matrices built in  4 passes.
 FC-matrix built in  4 passes.
 CPU time for f12 matrices (total)                1.68 sec, Elapsed time:      1.68 sec

 Diagonal F12 approximation with fixed coefficients:  TSING= 0.500,  TTRIP= 0.250 (scaled by -1/beta)

 DF-MP2-F12 energy corrections:
 ==============================
 Approx.                                    Singlet             Triplet             Total
 DF-MP2-F12/3*C(DX,FIX)                -0.013736911892     -0.001532323866     -0.015269235758
 DF-MP2-F12/3*C(FIX)                   -0.012117703198     -0.001078348421     -0.013196051619
 DF-MP2-F12/3C(FIX)                    -0.012104857305     -0.001115530563     -0.013220387868

 DF-MP2-F12 correlation energies:
 ================================
 Approx.                                    Singlet             Triplet             Ecorr            Total Energy
 DF-MP2                                -0.186043953125     -0.101311589439     -0.287355542565    -76.351403042989
 DF-MP2-F12/3*C(DX,FIX)                -0.199780865018     -0.102843913305     -0.302624778323    -76.366672278747
 DF-MP2-F12/3*C(FIX)                   -0.198161656324     -0.102389937860     -0.300551594184    -76.364599094608
 DF-MP2-F12/3C(FIX)                    -0.198148810430     -0.102427120002     -0.300575930432    -76.364623430856

 SCS-DF-MP2 energies (F_SING= 1.20000  F_TRIP= 0.62222  F_PARALLEL= 0.33333):
 ============================================================================
 SCS-DF-MP2                            -0.286291066068    -76.350338566492
 SCS-DF-MP2-F12/3*C(DX,FIX)            -0.303728806300    -76.367776306724
 SCS-DF-MP2-F12/3*C(FIX)               -0.301503282257    -76.365550782681
 SCS-DF-MP2-F12/3C(FIX)                -0.301511002740    -76.365558503164
 Symmetry transformation completed.

 Number of N-1 electron functions:               4
 Number of N-2 electron functions:              10
 Number of singly external CSFs:              1724
 Number of doubly external CSFs:           1486950
 Total number of CSFs:                     1488675

 Pair and operator lists are different

 Length of J-op  integral file:             203.65 MB
 Length of K-op  integral file:             338.08 MB
 Length of 3-ext integral record:             0.00 MB

 Memory could be reduced to 526.20 Mwords without degradation in triples

 Integral transformation finished. Total CPU: 157.98 sec, npass=  1  Memory used: 214.75 MW

 Reference energy:                    -76.06404750

 Adding F12 terms to K(Cij), methodcc=6,  factor= 1.0

 ITER.      SQ.NORM     CORR.ENERGY   TOTAL ENERGY   ENERGY CHANGE        DEN1      VAR(S)    VAR(P)  DIIS     TIME  TIME/IT
   1      1.06337845    -0.28682390   -76.35087140     0.00053572     0.00667423  0.78D-03  0.10D-02  1  1   262.42    46.83
   2      1.06688573    -0.28662075   -76.35066825     0.00020315    -0.00485676  0.13D-04  0.11D-03  2  2   308.40    47.10
   3      1.06810153    -0.28671636   -76.35076386    -0.00009561    -0.00081260  0.98D-05  0.74D-05  3  3   355.09    47.38
   4      1.06865045    -0.28673117   -76.35077867    -0.00001481    -0.00033784  0.52D-06  0.70D-06  4  4   401.02    47.37
   5      1.06875436    -0.28672950   -76.35077700     0.00000168    -0.00002824  0.16D-06  0.52D-07  5  5   447.25    47.46
   6      1.06878673    -0.28672735   -76.35077485     0.00000214    -0.00000411  0.17D-07  0.41D-08  6  6   493.55    47.48
   7      1.06879562    -0.28672674   -76.35077424     0.00000061    -0.00000190  0.10D-08  0.50D-09  6  1   539.42    47.46
   8      1.06879709    -0.28672674   -76.35077424     0.00000001     0.00000006  0.14D-09  0.54D-10  6  2   585.80    47.52
   9      1.06879760    -0.28672672   -76.35077422     0.00000002     0.00000002  0.11D-10  0.81D-11  6  3   631.69    47.48
  10      1.06879770    -0.28672672   -76.35077422     0.00000000     0.00000002  0.17D-11  0.73D-12  6  4   677.97    47.52
  11      1.06879769    -0.28672672   -76.35077422    -0.00000000     0.00000002  0.34D-12  0.12D-12  6  5   723.67    47.49
  12      1.06879768    -0.28672672   -76.35077422    -0.00000000     0.00000000  0.68D-13  0.18D-13  6  6   770.02    47.52
  13      1.06879768    -0.28672672   -76.35077422    -0.00000000     0.00000000  0.99D-14  0.28D-14  6  1   815.91    47.52
  14      1.06879767    -0.28672672   -76.35077422    -0.00000000     0.00000000  0.12D-14  0.64D-15  6  2   861.82    47.51
  15      1.06879767    -0.28672672   -76.35077422    -0.00000000     0.00000000  0.13D-15  0.83D-16  6  3   908.07    47.52
  16      1.06879767    -0.28672672   -76.35077422    -0.00000000     0.00000000  0.16D-16  0.10D-16  6  4   953.70    47.50

 Norm of t1 vector:      0.03666485      S-energy:    -0.00000000      T1 diagnostic:  0.00916621
                                                                       D1 diagnostic:  0.01860718

 Adding energy correction from Wij-K(Fij), methodcc=6  factor= 1.0

  CCSD correlation energy              -0.286726718310
  MP2-F12 correction (uncoupled)       -0.012763617947
  C*T doubles correction               -0.000430554472
  f12b correction                       0.002715049601


 Total CPU time for triples:    437.77 sec

  Ecorr(MP2)                           -0.287359625423
  Ecorr(MP2-F12)                       -0.300580013290
  Scale factor for triples energy       1.046006420868


 RESULTS
 =======

  Reference energy                    -76.063764953720
  F12 singles correction               -0.000282546704

 F12 singles corrections added to reference energy

  New reference energy                -76.064047500424

  F12a singlet correction              -0.012070107957
  F12a triplet correction              -0.001124064462
  F12a total correction                -0.013194172418

 F12a corrections for ansatz F12/3C(FIX) added to CCSD energy

  CCSD-F12a singlet pair energy        -0.209190059367
  CCSD-F12a triplet pair energy        -0.090730831347
  CCSD-F12a correlation energy         -0.299920890728

  Triples (T) contribution (scaled)    -0.009904604785
  Total correlation energy             -0.309825495512

  CCSD-F12a total energy              -76.363968391152
  CCSD[T]-F12a energy                 -76.374197727587
  CCSD-T-F12a energy                  -76.373732119580
 !CCSD(T)-F12a total energy           -76.373872995937

 F12b corrections for ansatz F12/3C(FIX) added to CCSD(T)-F12a energy

  CCSD-F12b singlet pair energy        -0.206621918772
  CCSD-F12b triplet pair energy        -0.090583922340
  CCSD-F12b correlation energy         -0.297205841127

  Triples (T) contribution (scaled)    -0.009904604785
  Total correlation energy             -0.307110445911

  CCSD-F12b total energy              -76.361253341551
  CCSD[T]-F12b energy                 -76.371482677985
  CCSD-T-F12b energy                  -76.371017069979
 !CCSD(T)-F12b total energy           -76.371157946335

 Timing summary (sec):

 STEP                 CPU(USER)    SYS     CPU(TOT)    WALL
 Transformation        158.35      3.67    162.02    162.23
 CCSD iterations       737.02     22.03    759.05    760.17
 Triples               437.77      1.14    438.91    439.59
 MP2-F12                58.41      1.26     59.67     59.74
 F12b energy            42.52      1.32     43.84     43.90

 Program statistics:

 Available memory in ccsd:              1999999871
 Min. memory needed in ccsd:               6763924
 Max. memory used in ccsd:                 7862874
 Max. memory used in cckext:               5171974 (17 integral passes)



 **********************************************************************************************************************************
 DATASETS  * FILE   NREC   LENGTH (MB)   RECORD NAMES
              1      19     1346.98       500      610      700      900      950      970     1000      129      960     1100   
                                          VAR    BASINP    GEOM    SYMINP    ZMAT    AOBASIS   BASIS     P2S    ABASIS      S 
                                         1400     1410     1200     1210     1080     1600     1650     1700     1380   
                                           T        V       H0       H01     AOSYM     SMH    MOLCAS    OPER     JKOP   

              2       8       17.39       700     1000      520     2100     7360     7350      200     2101   
                                         GEOM     BASIS   MCVARS     RHF    F12ABS    EF12    OPTIONS    RHF  

 PROGRAMS   *        TOTAL   CCSD(T)    HF-SCF       INT   CCSD(T)    HF-SCF       INT
 CPU TIMES  *      8060.92   1434.32    200.33      0.39   6039.14    201.68    184.83
 REAL TIME  *      8220.90 SEC
 DISK USED  *         3.24 GB (local),       76.45 GB (total)
 SF USED    *         5.12 GB
 GA USED    *         4.87 MB       (max)       0.00 MB       (current)
 **********************************************************************************************************************************

 Running procedure: SET_MONOMER2

 Dummy atoms: O5  H9  H10


 Recomputing one-electron integrals since nuclear charges changed


 PROGRAM * SEWARD (Integral evaluation for generally contracted gaussian basis sets)     Author: Roland Lindh, 1990

 Geometry written to block  1 of record 700


 Point group  C1  



 ATOMIC COORDINATES

 NR  ATOM    CHARGE       X              Y              Z

   1  O5      0.00   -0.603200579    4.424037830    7.113685023
   2  H9      0.00    0.770063396    4.853761551    8.236371314
   3  H10     0.00   -0.289128097    2.656576986    6.606293559
   4  C1      6.00   -6.193010455    2.801518980    2.403542658
   5  H41     1.00   -4.656285171    1.699997622    3.119937832
   6  H42     1.00   -5.973046335    4.726205038    2.982932688
   7  H43     1.00   -7.940251230    2.077186956    3.118237078
   8  H44     1.00   -6.176569838    2.685300823    0.384937212

 Bond lengths in Bohr (Angstrom)

 1-2  1.825086553  1-3  1.865477274  4-5  2.021904040  4-6  2.022002335  4-7  2.021953343
     ( 0.965794212)     ( 0.987168061)     ( 1.069945541)     ( 1.069997556)     ( 1.069971630)

 4-8  2.022015060
     ( 1.070004290)

 Bond angles

  2-1-3  105.29057030   5-4-6  109.53398059   5-4-7  109.65604535   5-4-8  108.43490854

  6-4-7  109.49436728   6-4-8  109.86987750   7-4-8  109.83468330

 NUCLEAR CHARGE:                   10
 NUMBER OF PRIMITIVE AOS:         578
 NUMBER OF SYMMETRY AOS:          474
 NUMBER OF CONTRACTIONS:          436   (  436A   )
 NUMBER OF CORE ORBITALS:           1   (    1A   )
 NUMBER OF VALENCE ORBITALS:        8   (    8A   )

 MOLECULE CHANGED: INITIALIZING OCCUPATION AND DUMP RECORDS


 NUCLEAR REPULSION ENERGY   13.68681606

 Basis set:  JKFIT                   
 Basis size:  1104
 Attributes:
 Sphericals:   T
 Basis set:  MP2FIT                  
 Basis size:  1246
 Attributes:
 Sphericals:   T
 Basis set:  RI                      
 Basis size:   730
 Attributes:
 Sphericals:   T
 Basis set:  TDDFT                   
 Basis size:  1246
 Attributes:
 Sphericals:   T

 Eigenvalues of metric

         1 0.162E-04 0.292E-04 0.350E-04 0.370E-04 0.630E-04 0.836E-04 0.983E-04 0.106E-03


 Contracted 2-electron integrals neglected if value below      1.0D-14

 OPERATOR DM      FOR CENTER  0  COORDINATES:    0.000000    0.000000    0.000000


 **********************************************************************************************************************************
 DATASETS  * FILE   NREC   LENGTH (MB)   RECORD NAMES
              1      18       37.12       500      610      700      900      950      970     1000      129      960     1100   
                                          VAR    BASINP    GEOM    SYMINP    ZMAT    AOBASIS   BASIS     P2S    ABASIS      S 
                                         1400     1410     1200     1210     1080     1600     1650     1700   
                                           T        V       H0       H01     AOSYM     SMH    MOLCAS    OPER   

              2       8       17.39       700     1000      520     2100     7360     7350      200     2101   
                                         GEOM     BASIS   MCVARS     RHF    F12ABS    EF12    OPTIONS    RHF  

 PROGRAMS   *        TOTAL       INT   CCSD(T)    HF-SCF       INT   CCSD(T)    HF-SCF       INT
 CPU TIMES  *      8061.33      0.40   1434.32    200.33      0.39   6039.14    201.68    184.83
 REAL TIME  *      8222.04 SEC
 DISK USED  *         3.24 GB (local),       76.45 GB (total)
 SF USED    *         5.12 GB
 GA USED    *         4.87 MB       (max)       0.00 MB       (current)
 **********************************************************************************************************************************


 PROGRAM * RHF-SCF (CLOSED SHELL)       Authors: W. Meyer, H.-J. Werner


 NUMBER OF ELECTRONS:       5+    5-    SPACE SYMMETRY=1    SPIN SYMMETRY: Singlet 
 CONVERGENCE THRESHOLDS:    1.00E-08 (Density)    1.00E-11 (Energy)
 MAX. NUMBER OF ITERATIONS:       60
 INTERPOLATION TYPE:            DIIS
 INTERPOLATION STEPS:              2 (START)      1 (STEP)
 LEVEL SHIFTS:                  0.00 (CLOSED)  0.00 (OPEN) 



 Orbital guess generated from atomic densities. Full valence occupancy:    9

 Molecular orbital dump at record        2102.2

 Initial occupancy:   5

 ITERATION    DDIFF          GRAD             ENERGY        2-EL.EN.            DIPOLE MOMENTS         DIIS   ORB.
    1      0.000D+00      0.000D+00       -40.19609430     53.506279    0.00410   -0.00276   -0.00131    0    start
    2      0.000D+00      0.257D-02       -40.21334822     52.217618    0.00128   -0.00087   -0.00039    1    diag
    3      0.158D-02      0.998D-03       -40.21562412     52.672076    0.00181   -0.00123   -0.00056    2    diag
    4      0.441D-03      0.249D-03       -40.21594356     52.617263    0.00161   -0.00110   -0.00049    3    diag
    5      0.166D-03      0.322D-04       -40.21594905     52.619411    0.00158   -0.00108   -0.00048    4    diag
    6      0.417D-04      0.264D-05       -40.21594910     52.619548    0.00158   -0.00108   -0.00048    5    diag
    7      0.554D-05      0.212D-06       -40.21594910     52.619508    0.00158   -0.00108   -0.00048    6    diag
    8      0.216D-06      0.170D-07       -40.21594910     52.619509    0.00158   -0.00108   -0.00048    7    diag
    9      0.822D-07      0.218D-08       -40.21594910     52.619509    0.00158   -0.00108   -0.00048    8    diag
   10      0.824D-08      0.595D-09       -40.21594910     52.619509    0.00158   -0.00108   -0.00048    0    orth

 Final occupancy:   5

 !RHF STATE  1.1 Energy               -40.215949095454
 Nuclear energy                        13.68681606
 One-electron energy                  -80.21251985
 Two-electron energy                   26.30975470
 Virial quotient                       -0.99838093
 !RHF STATE  1.1 Dipole moment          0.00158150    -0.00107657    -0.00047779
 Dipole moment /Debye                   0.00401950    -0.00273619    -0.00121433

 Orbital energies:

         1.1          2.1          3.1          4.1          5.1          6.1          7.1
    -11.196224    -0.950662    -0.551889    -0.549955    -0.547776     0.023796     0.035868


 HOMO      5.1    -0.547776 =     -14.9057eV
 LUMO      6.1     0.023796 =       0.6475eV
 LUMO-HOMO         0.571572 =      15.5533eV


 **********************************************************************************************************************************
 DATASETS  * FILE   NREC   LENGTH (MB)   RECORD NAMES
              1      18       37.12       500      610      700      900      950      970     1000      129      960     1100   
                                          VAR    BASINP    GEOM    SYMINP    ZMAT    AOBASIS   BASIS     P2S    ABASIS      S 
                                         1400     1410     1200     1210     1080     1600     1650     1700   
                                           T        V       H0       H01     AOSYM     SMH    MOLCAS    OPER   

              2       9       27.51       700     1000      520     2100     7360     7350      200     2101     2102   
                                         GEOM     BASIS   MCVARS     RHF    F12ABS    EF12    OPTIONS    RHF      RHF  

 PROGRAMS   *        TOTAL    HF-SCF       INT   CCSD(T)    HF-SCF       INT   CCSD(T)    HF-SCF       INT
 CPU TIMES  *      8235.41    174.08      0.40   1434.32    200.33      0.39   6039.14    201.68    184.83
 REAL TIME  *      8411.17 SEC
 DISK USED  *         3.24 GB (local),       76.45 GB (total)
 SF USED    *         5.12 GB
 GA USED    *         4.87 MB       (max)       0.00 MB       (current)
 **********************************************************************************************************************************

 Basis set:  JKFIT                   
 Basis size:  1104
 Attributes:
 Sphericals:   T
 Basis set:  MP2FIT                  
 Basis size:  1246
 Attributes:
 Sphericals:   T
 Basis set:  RI                      
 Basis size:   730
 Attributes:
 Sphericals:   T
 Basis set:  TDDFT                   
 Basis size:  1246
 Attributes:
 Sphericals:   T

 PROGRAM * CCSD (Closed-shell coupled cluster)     Authors: C. Hampel, H.-J. Werner, 1991, M. Deegan, P.J. Knowles, 1992

                                  CCSD-F12 implementation by  H.-J. Werner, 2007

                   Density fitting integral evaluation by F.R. Manby, 2003,2007, G. Knizia, 2010



 Convergence thresholds:  THRVAR = 1.00D-08  THRDEN = 1.00D-10

 CCSD(T)     terms to be evaluated (factor= 1.000)


 Number of core orbitals:           1 (   1 )
 Number of closed-shell orbitals:   4 (   4 )
 Number of external orbitals:     431 ( 431 )

 Molecular orbitals read from record     2102.2  Type=RHF/CANONICAL (state 1.1)

 MP2-F12 correlation treatment (H.-J. Werner, 2006)
 ==================================================

 Using MP2-F12 with ansatz 3C(FIX)

 Using projected zeroth-order Hamiltonian (+Z)

 FOCKRIB=T FOCKRIC=T FOCKRIP=T CABSP=T CABSA=T CABSK=T CABSF=T GBC=F EBC=F DMAT=T NOFIK=T NOPAO=1 SOLVE=-1  USEPAO=0
 EXCH_A= T EXCH_B= F EXCH_C= F EXCH_P= F

 Geminal basis:    OPTFULL  GEM_TYPE=SLATER  BETA=1.0  NGEM=6

 Optimizing Gaussian exponents for each gem_beta

 Geminal optimization for beta= 1.0000
 Weight function:   m=0, omega= 1.4646

 Augmented Hessian optimization of geminal fit. Trust ratio= 0.40000
 Convergence reached after   2 iterations. Final gradient= 7.85D-16, Step= 4.26D-06, Delta= 1.28D-09

 Alpha:                 0.19532     0.81920     2.85917     9.50073    35.69989   197.79328
 Coeff:                 0.27070     0.30552     0.18297     0.10986     0.06810     0.04224


 All pairs explicitly correlated. Number of r12-pairs:           10

 Excluding core orbitals from MO domains

 AO(A)-basis ORBITAL           loaded. Number of functions:     436
 RI(R)-basis RI                loaded. Number of functions:     730
 DF-basis JKFIT                loaded. Number of functions:    1104

 Screening thresholds:   THRAO=  1.00D-10  THRMO=  1.00D-09  THRPROD=  1.00D-09
                         THRSW=  1.00D-05  THROV=  1.00D-12  THRAOF12= 1.00D-10

 CPU time for Fock operators                      9.57 sec

 Construction of ABS:
 Smallest eigenvalue of S          2.27E-04  (threshold= 1.00E-08)
 Ratio eigmin/eigmax               3.94E-05  (threshold= 1.00E-09)
 Smallest eigenvalue of S kept     2.27E-04  (threshold= 2.27E-04, 0 functions deleted, 730 kept)

 Construction of CABS:
 Smallest eigenvalue of S          1.60E-08  (threshold= 1.00E-08)
 Ratio eigmin/eigmax               1.60E-08  (threshold= 1.00E-09)
 Smallest eigenvalue of S kept     1.60E-08  (threshold= 1.60E-08, 0 functions deleted, 730 kept)

 CPU time for CABS singles                        2.28 sec

 CABS-singles contribution of  -0.00024625 patched into reference energy.
 New reference energy         -40.21619534

 AO(A)-basis ORBITAL           loaded. Number of functions:     436
 RI(R)-basis RI                loaded. Number of functions:     730
 DF-basis MP2FIT               loaded. Number of functions:    1246

 Screening thresholds:   THRAO=  1.00D-10  THRMO=  1.00D-09  THRPROD=  1.00D-09
                         THRSW=  1.00D-05  THROV=  1.00D-12  THRAOF12= 1.00D-10

 CPU time for 3-index integral evaluation        18.37 sec
 CPU time for first  half transformation          3.27 sec ( 1977.5 MFLOP/sec)
 CPU time for second half transformation          0.03 sec ( 1277.2 MFLOP/sec)
 CPU time for sorting                             0.07 sec
 CPU time for fitting                             1.16 sec ( 2347.5 MFLOP/sec)
 CPU time for tilde quantities                    1.41 sec ( 3538.9 MFLOP/sec)
 CPU time for assembly                            4.59 sec ( 4096.1 MFLOP/sec)
 CPU time for tranop_f12                          4.47 sec ( 3814.3 MFLOP/sec)
 CPU time for f12 integrals (total)              40.63 sec, Elapsed time:     41.76 sec
 F12-matrices built in  4 passes.
 F12-matrices built in  4 passes.
 F12-matrices built in  4 passes.
 F12-matrices built in  4 passes.
 FC-matrix built in  4 passes.
 CPU time for f12 matrices (total)                1.73 sec, Elapsed time:      1.76 sec

 Diagonal F12 approximation with fixed coefficients:  TSING= 0.500,  TTRIP= 0.250 (scaled by -1/beta)

 DF-MP2-F12 energy corrections:
 ==============================
 Approx.                                    Singlet             Triplet             Total
 DF-MP2-F12/3*C(DX,FIX)                -0.007497225779     -0.000575117077     -0.008072342856
 DF-MP2-F12/3*C(FIX)                   -0.007050126057     -0.000473732522     -0.007523858579
 DF-MP2-F12/3C(FIX)                    -0.007079139181     -0.000487217754     -0.007566356935

 DF-MP2-F12 correlation energies:
 ================================
 Approx.                                    Singlet             Triplet             Ecorr            Total Energy
 DF-MP2                                -0.154419120642     -0.056463850774     -0.210882971416    -40.427078312308
 DF-MP2-F12/3*C(DX,FIX)                -0.161916346421     -0.057038967851     -0.218955314272    -40.435150655163
 DF-MP2-F12/3*C(FIX)                   -0.161469246699     -0.056937583296     -0.218406829995    -40.434602170886
 DF-MP2-F12/3C(FIX)                    -0.161498259823     -0.056951068528     -0.218449328351    -40.434644669243

 SCS-DF-MP2 energies (F_SING= 1.20000  F_TRIP= 0.62222  F_PARALLEL= 0.33333):
 ============================================================================
 SCS-DF-MP2                            -0.220436007474    -40.436631348366
 SCS-DF-MP2-F12/3*C(DX,FIX)            -0.229790529035    -40.445985869926
 SCS-DF-MP2-F12/3*C(FIX)               -0.229190925645    -40.445386266536
 SCS-DF-MP2-F12/3C(FIX)                -0.229234132205    -40.445429473097
 Symmetry transformation completed.

 Number of N-1 electron functions:               4
 Number of N-2 electron functions:              10
 Number of singly external CSFs:              1724
 Number of doubly external CSFs:           1486950
 Total number of CSFs:                     1488675

 Pair and operator lists are different

 Length of J-op  integral file:             203.65 MB
 Length of K-op  integral file:             338.08 MB
 Length of 3-ext integral record:             0.00 MB

 Memory could be reduced to 526.20 Mwords without degradation in triples

 Integral transformation finished. Total CPU: 162.00 sec, npass=  1  Memory used: 214.75 MW

 Reference energy:                    -40.21619534

 Adding F12 terms to K(Cij), methodcc=6,  factor= 1.0

 ITER.      SQ.NORM     CORR.ENERGY   TOTAL ENERGY   ENERGY CHANGE        DEN1      VAR(S)    VAR(P)  DIIS     TIME  TIME/IT
   1      1.07024048    -0.22511765   -40.44131299    -0.01422930    -0.00847493  0.63D-03  0.94D-03  1  1   268.23    47.78
   2      1.07517116    -0.22596750   -40.44216284    -0.00084985    -0.00530349  0.15D-04  0.10D-03  2  2   315.24    48.09
   3      1.07679389    -0.22605532   -40.44225067    -0.00008783    -0.00117744  0.22D-05  0.59D-05  3  3   362.13    48.12
   4      1.07717689    -0.22606263   -40.44225797    -0.00000731    -0.00020555  0.14D-06  0.33D-06  4  4   408.71    48.13
   5      1.07722894    -0.22606426   -40.44225960    -0.00000163    -0.00000893  0.11D-07  0.20D-07  5  5   455.09    48.13
   6      1.07723753    -0.22606296   -40.44225830     0.00000130    -0.00000329  0.75D-09  0.15D-08  6  6   501.89    48.19
   7      1.07723886    -0.22606264   -40.44225798     0.00000032    -0.00000083  0.50D-10  0.11D-09  6  1   548.85    48.23
   8      1.07723883    -0.22606271   -40.44225805    -0.00000007     0.00000021  0.50D-11  0.64D-11  6  3   595.65    48.25
   9      1.07723896    -0.22606269   -40.44225803     0.00000002    -0.00000009  0.35D-12  0.50D-12  6  2   642.25    48.24
  10      1.07723897    -0.22606269   -40.44225803     0.00000000     0.00000001  0.48D-13  0.54D-13  6  4   688.81    48.23
  11      1.07723897    -0.22606269   -40.44225803     0.00000000    -0.00000000  0.45D-14  0.56D-14  6  5   735.45    48.23
  12      1.07723897    -0.22606269   -40.44225803     0.00000000     0.00000000  0.95D-16  0.60D-15  6  6   782.60    48.26
  13      1.07723897    -0.22606269   -40.44225803    -0.00000000     0.00000000  0.70D-17  0.64D-16  6  1   829.38    48.28
  14      1.07723897    -0.22606269   -40.44225803    -0.00000000     0.00000000  0.12D-17  0.86D-17  6  3   876.08    48.28

 Norm of t1 vector:      0.03291693      S-energy:    -0.00000000      T1 diagnostic:  0.00822923
                                                                       D1 diagnostic:  0.01319219

 Adding energy correction from Wij-K(Fij), methodcc=6  factor= 1.0

  CCSD correlation energy              -0.226062686926
  MP2-F12 correction (uncoupled)       -0.007442300709
  C*T doubles correction               -0.000126968670
  f12b correction                       0.001937623280

 Total CPU time for triples:    425.49 sec

  Ecorr(MP2)                           -0.210888348391
  Ecorr(MP2-F12)                       -0.218454705326
  Scale factor for triples energy       1.035878496810


 RESULTS
 =======

  Reference energy                    -40.215949095455
  F12 singles correction               -0.000246245436

 F12 singles corrections added to reference energy

  New reference energy                -40.216195340891

  F12a singlet correction              -0.007079607103
  F12a triplet correction              -0.000489662275
  F12a total correction                -0.007569269378

 F12a corrections for ansatz F12/3C(FIX) added to CCSD energy

  CCSD-F12a singlet pair energy        -0.178450786050
  CCSD-F12a triplet pair energy        -0.055181170251
  CCSD-F12a correlation energy         -0.233631956305

  Triples (T) contribution (scaled)    -0.007053010260
  Total correlation energy             -0.240684966564

  CCSD-F12a total energy              -40.449827297196
  CCSD[T]-F12a energy                 -40.457116843910
  CCSD-T-F12a energy                  -40.456810453366
 !CCSD(T)-F12a total energy           -40.456880307456

 F12b corrections for ansatz F12/3C(FIX) added to CCSD(T)-F12a energy

  CCSD-F12b singlet pair energy        -0.176580780557
  CCSD-F12b triplet pair energy        -0.055113552464
  CCSD-F12b correlation energy         -0.231694333025

  Triples (T) contribution (scaled)    -0.007053010260
  Total correlation energy             -0.238747343284

  CCSD-F12b total energy              -40.447889673916
  CCSD[T]-F12b energy                 -40.455179220630
  CCSD-T-F12b energy                  -40.454872830086
 !CCSD(T)-F12b total energy           -40.454942684175

 Timing summary (sec):

 STEP                 CPU(USER)    SYS     CPU(TOT)    WALL
 Transformation        162.35      4.25    166.60    166.81
 CCSD iterations       654.51     20.68    675.19    676.15
 Triples               425.49      1.10    426.59    427.22
 MP2-F12                59.32      1.33     60.65     60.72
 F12b energy            42.68      1.22     43.90     43.97

 Program statistics:

 Available memory in ccsd:              1999999866
 Min. memory needed in ccsd:               6763924
 Max. memory used in ccsd:                 7862874
 Max. memory used in cckext:               5171974 (15 integral passes)



 **********************************************************************************************************************************
 DATASETS  * FILE   NREC   LENGTH (MB)   RECORD NAMES
              1      19     1346.98       500      610      700      900      950      970     1000      129      960     1100   
                                          VAR    BASINP    GEOM    SYMINP    ZMAT    AOBASIS   BASIS     P2S    ABASIS      S 
                                         1400     1410     1200     1210     1080     1600     1650     1700     1380   
                                           T        V       H0       H01     AOSYM     SMH    MOLCAS    OPER     JKOP   

              2       9       27.51       700     1000      520     2100     7360     7350      200     2101     2102   
                                         GEOM     BASIS   MCVARS     RHF    F12ABS    EF12    OPTIONS    RHF      RHF  

 PROGRAMS   *        TOTAL   CCSD(T)    HF-SCF       INT   CCSD(T)    HF-SCF       INT   CCSD(T)    HF-SCF       INT
 CPU TIMES  *      9579.98   1344.57    174.08      0.40   1434.32    200.33      0.39   6039.14    201.68    184.83
 REAL TIME  *      9787.12 SEC
 DISK USED  *         3.24 GB (local),       76.45 GB (total)
 SF USED    *         5.12 GB
 GA USED    *         4.87 MB       (max)       0.00 MB       (current)
 **********************************************************************************************************************************
 Molecular orbitals read from record     2102.2  Type=RHF/CANONICAL (state 1.1)
 Occupation numbers read from record     2102.2  Type=RHF/RHF (state 1.1)
 Orbital energies read from record       2102.2  Type=RHF/CANONICAL (state 1.1)
 Redundancy group numbers read from rec  2102.2  Type=RHF/RHF (state 1.1)

 CCSD(T)-F12/aug-cc-pVQZ energy=    -40.454942684175

     CCSD(T)-F12          HF-SCF     CCSD(T)-F12          HF-SCF     CCSD(T)-F12          HF-SCF
    -40.45494268    -40.21594910    -76.37115795    -76.06376495   -116.82640752   -116.27943985
 **********************************************************************************************************************************
 Molpro calculation terminated
