
 Primary working directories    : /scratch/klimes/383237/molpro.0oFhBQ1z38
 Secondary working directories  : /scratch/klimes/383237/molpro.0oFhBQ1z38
 Wavefunction directory         : /scratch/klimes/383237/
 Main file repository           : /scratch/klimes/383237/molpro.0oFhBQ1z38/

 id        : karlovklimes

 Nodes                      nprocs
 nc-02.cc.karlov.mff.cuni.cz    4

 Using customized tuning parameters: mindgm=1; mindgv=20; mindgc=4; mindgr=1; noblas=0; minvec=7
 default implementation of scratch files=sf  


 Variables initialized (930), CPU time= 0.01 sec
                                                                                 !gdirect
 memory,2000,m
 gthresh,orbital=1d-10,energy=1d-10,grid=1d-8
 
 symmetry,nosym
 angstrom
 geometry={
 O6        -0.534600000000      4.167800000000      1.543100000000
 H11        -0.433700000000      3.518000000000      2.262500000000
 H12        -0.341300000000      3.668400000000      0.725200000000
 C1        -3.277200000000      1.482500000000      1.271900000000
 H41        -2.464000000000      0.899600000000      1.651000000000
 H42        -3.160800000000      2.501000000000      1.578500000000
 H43        -4.201800000000      1.099200000000      1.650100000000
 H44        -3.268500000000      1.421000000000      0.203700000000
 }
 
 nkerna=1
 nkernb=1
 
 gf=0
 sing=1
 thrdum=1d-4
 gridthr=1d-8
 
 basis={
 set,orbital
 default,avqz
 set,jkfit
 default,av5z/jkfit
 set,mp2fit
 default,av5z/mp2fit
 set,ri
 default,av5z/optri
 set,tddft
 default,av5z/mp2fit
 }
 
 proc set_monomer1
 dummy,4,5,6,7,8
 endproc
 
 proc set_monomer2
 dummy,1,2,3
 endproc
 
                                                                                 !12 energy
 {hf,accu=1.d-16}
 {ccsd(t)-f12,df_basis=mp2fit,df_basis_exch=jkfit,ri_basis=ri,scale_trip=1,THRAOF12=1d-10}
 
 set_monomer1
 {hf,accu=1.d-16}
 {ccsd(t)-f12,df_basis=mp2fit,df_basis_exch=jkfit,ri_basis=ri,scale_trip=1,THRAOF12=1d-10}
 
 set_monomer2
 {hf,accu=1.d-16}
 {ccsd(t)-f12,df_basis=mp2fit,df_basis_exch=jkfit,ri_basis=ri,scale_trip=1,THRAOF12=1d-10}
 
 Commands  initialized (760), CPU time= 0.01 sec, 617 directives.
 Default parameters read. Elapsed time= 0.20 sec

 Checking input...
 Passed
1


                                         ***  PROGRAM SYSTEM MOLPRO  ***
                                       Copyright, TTI GmbH Stuttgart, 2015
                                    Version 2019.1 linked Jan 14 2019 13:09:19


 **********************************************************************************************************************************
 LABEL *                                                                                 
  64 bit mpp version                                                                     DATE: 11-Mar-20          TIME: 16:36:08  
 **********************************************************************************************************************************

 SHA1:             d688ac825633d238f2093ded1675ba87ccd55965
 **********************************************************************************************************************************

 THRESHOLDS:

 ZERO    =  1.00D-12  ONEINT  =  1.00D-12  TWOINT  =  1.00D-11  PREFAC  =  1.00D-14  XXXXXX  =  1.00D-09  EORDER  =  1.00D-04
 ENERGY  =  1.00D-10  ETEST   =  0.00D+00  EDENS   =  0.00D+00  THRDEDEF=  1.00D-06  GRADIENT=  1.00D-02  STEP    =  1.00D-03
 ORBITAL =  1.00D-10  CIVEC   =  1.00D-05  COEFF   =  1.00D-04  PRINTCI =  5.00D-02  PUNCHCI =  9.90D+01  OPTGRAD =  3.00D-04
 OPTENERG=  1.00D-06  OPTSTEP =  3.00D-04  THRGRAD =  1.00D-10  COMPRESS=  1.00D-11  VARMIN  =  1.00D-07  VARMAX  =  1.00D-03
 THRDOUB =  0.00D+00  THRDIV  =  1.00D-05  THRRED  =  1.00D-07  THRPSP  =  1.00D+00  THRDC   =  1.00D-10  THRCS   =  1.00D-10
 THRNRM  =  1.00D-08  THREQ   =  0.00D+00  THRDE   =  1.00D+00  THRREF  =  1.00D-05  SPARFAC =  1.00D+00  THRDLP  =  1.00D-07
 THRDIA  =  1.00D-10  THRDLS  =  1.00D-07  THRGPS  =  0.00D+00  THRKEX  =  0.00D+00  THRDIS  =  2.00D-01  THRVAR  =  1.00D-10
 THRLOC  =  1.00D-06  THRGAP  =  1.00D-06  THRLOCT = -1.00D+00  THRGAPT = -1.00D+00  THRORB  =  1.00D-06  THRMLTP =  0.00D+00
 THRCPQCI=  1.00D-10  KEXTA   =  0.00D+00  THRCOARS=  0.00D+00  SYMTOL  =  1.00D-06  GRADTOL =  1.00D-06  THROVL  =  1.00D-08
 THRORTH =  1.00D-08  GRID    =  1.00D-08  GRIDMAX =  1.00D-03  DTMAX   =  0.00D+00  THROCCDE=  1.00D-01  THROCCDE=  1.00D-01
 THRPRINT=  2.50D-01


 Variable memory set to 2000000000 words,  buffer space 

 ZSYMEL=NOSYM
 ZUNIT=ANG


Geometry recognized as XYZ

 SETTING NKERNA         =         1.00000000                                  
 SETTING NKERNB         =         1.00000000                                  
 SETTING GF             =     0.00000000D+00                                  
 SETTING SING           =         1.00000000                                  
 SETTING THRDUM         =     1.00000000D-04                                  
 SETTING GRIDTHR        =     1.00000000D-08                                  
 SETTING BASIS          =    AVQZ


 Recomputing integrals since basis changed


 Using spherical harmonics

 Library entry O      S aug-cc-pVQZ          selected for orbital group  1
 Library entry O      P aug-cc-pVQZ          selected for orbital group  1
 Library entry O      D aug-cc-pVQZ          selected for orbital group  1
 Library entry O      F aug-cc-pVQZ          selected for orbital group  1
 Library entry O      G aug-cc-pVQZ          selected for orbital group  1
 Library entry H      S aug-cc-pVQZ          selected for orbital group  2
 Library entry H      P aug-cc-pVQZ          selected for orbital group  2
 Library entry H      D aug-cc-pVQZ          selected for orbital group  2
 Library entry H      F aug-cc-pVQZ          selected for orbital group  2
 Library entry C      S aug-cc-pVQZ          selected for orbital group  3
 Library entry C      P aug-cc-pVQZ          selected for orbital group  3
 Library entry C      D aug-cc-pVQZ          selected for orbital group  3
 Library entry C      F aug-cc-pVQZ          selected for orbital group  3
 Library entry C      G aug-cc-pVQZ          selected for orbital group  3


 PROGRAM * SEWARD (Integral evaluation for generally contracted gaussian basis sets)     Author: Roland Lindh, 1990

 Geometry written to block  1 of record 700


 Point group  C1  



 ATOMIC COORDINATES

 NR  ATOM    CHARGE       X              Y              Z

   1  O6      8.00   -1.010247586    7.876000542    2.916036383
   2  H11     1.00   -0.819574220    6.648056506    4.275505357
   3  H12     1.00   -0.644963526    6.932271315    1.370429386
   4  C1      6.00   -6.193010455    2.801518980    2.403542658
   5  H41     1.00   -4.656285171    1.699997622    3.119937832
   6  H42     1.00   -5.973046335    4.726205038    2.982932688
   7  H43     1.00   -7.940251230    2.077186956    3.118237078
   8  H44     1.00   -6.176569838    2.685300823    0.384937212

 Bond lengths in Bohr (Angstrom)

 1-2  1.841835709  1-3  1.847419359  4-5  2.021904040  4-6  2.022002335  4-7  2.021953343
     ( 0.974657483)     ( 0.977612224)     ( 1.069945541)     ( 1.069997556)     ( 1.069971630)

 4-8  2.022015060
     ( 1.070004290)

 Bond angles

  2-1-3  104.86126985   5-4-6  109.53398059   5-4-7  109.65604535   5-4-8  108.43490854

  6-4-7  109.49436728   6-4-8  109.86987750   7-4-8  109.83468330

 NUCLEAR CHARGE:                   20
 NUMBER OF PRIMITIVE AOS:         578
 NUMBER OF SYMMETRY AOS:          474
 NUMBER OF CONTRACTIONS:          436   (  436A   )
 NUMBER OF CORE ORBITALS:           2   (    2A   )
 NUMBER OF VALENCE ORBITALS:       14   (   14A   )


 NUCLEAR REPULSION ENERGY   36.57703656


 Basis set:  JKFIT                   
 Basis size:  1104
 Attributes:
 Sphericals:   T
 Basis set:  MP2FIT                  
 Basis size:  1246
 Attributes:
 Sphericals:   T
 Basis set:  RI                      
 Basis size:   730
 Attributes:
 Sphericals:   T
 Basis set:  TDDFT                   
 Basis size:  1246
 Attributes:
 Sphericals:   T

 **********************************************************************************************************************************


 Eigenvalues of metric

         1 0.150E-04 0.241E-04 0.337E-04 0.373E-04 0.620E-04 0.842E-04 0.954E-04 0.104E-03


 Contracted 2-electron integrals neglected if value below      1.0D-14
 AO integral compression algorithm  1   Integral accuracy      1.0D-14

     23489.413 MB (compressed) written to integral file ( 58.6%)

     Node minimum: 5122.032 MB, node maximum: 6445.335 MB


 NUMBER OF SORTED TWO-ELECTRON INTEGRALS: 1134451344.     BUFFER LENGTH:  32768
 NUMBER OF SEGMENTS:  36  SEGMENT LENGTH:   31999984      RECORD LENGTH: 524288

 Memory used in sort:      32.56 MW

 SORT1 READ  5012305700. AND WROTE   978471683. INTEGRALS IN   2819 RECORDS. CPU TIME:   120.51 SEC, REAL TIME:   139.96 SEC
 SORT2 READ  3914171127. AND WROTE  4537853011. INTEGRALS IN  78156 RECORDS. CPU TIME:    27.05 SEC, REAL TIME:    62.42 SEC

 Node minimum:  1134427528.  Node maximum:  1134498978. integrals

 OPERATOR DM      FOR CENTER  0  COORDINATES:    0.000000    0.000000    0.000000


 **********************************************************************************************************************************
 DATASETS  * FILE   NREC   LENGTH (MB)   RECORD NAMES
              1      18       37.12       500      610      700      900      950      970     1000      129      960     1100   
                                          VAR    BASINP    GEOM    SYMINP    ZMAT    AOBASIS   BASIS     P2S    ABASIS      S 
                                         1400     1410     1200     1210     1080     1600     1650     1700   
                                           T        V       H0       H01     AOSYM     SMH    MOLCAS    OPER   

 PROGRAMS   *        TOTAL       INT
 CPU TIMES  *       223.28    223.06
 REAL TIME  *       291.19 SEC
 DISK USED  *        37.64 MB (local),       70.66 GB (total)
 GA USED    *         0.00 MB       (max)       0.00 MB       (current)
 **********************************************************************************************************************************


 PROGRAM * RHF-SCF (CLOSED SHELL)       Authors: W. Meyer, H.-J. Werner


 NUMBER OF ELECTRONS:      10+   10-    SPACE SYMMETRY=1    SPIN SYMMETRY: Singlet 
 CONVERGENCE THRESHOLDS:    1.00E-08 (Density)    1.00E-11 (Energy)
 MAX. NUMBER OF ITERATIONS:       60
 INTERPOLATION TYPE:            DIIS
 INTERPOLATION STEPS:              2 (START)      1 (STEP)
 LEVEL SHIFTS:                  0.00 (CLOSED)  0.00 (OPEN) 



 Orbital guess generated from atomic densities. Full valence occupancy:   16

 Molecular orbital dump at record        2100.2

 Initial occupancy:  10

 ITERATION    DDIFF          GRAD             ENERGY        2-EL.EN.            DIPOLE MOMENTS         DIIS   ORB.
    1      0.000D+00      0.000D+00      -116.22189362    158.567634    0.29094   -1.11220   -0.09783    0    start
    2      0.000D+00      0.378D-02      -116.26576856    153.751931    0.13500   -0.62374   -0.05738    1    diag
    3      0.273D-02      0.221D-02      -116.27914365    155.762321    0.17591   -0.74515   -0.06685    2    diag
    4      0.944D-03      0.330D-03      -116.27979769    155.650215    0.17411   -0.73349   -0.06526    3    diag
    5      0.204D-03      0.963D-04      -116.27986610    155.644596    0.17342   -0.73264   -0.06496    4    diag
    6      0.826D-04      0.235D-04      -116.27986995    155.650302    0.17310   -0.73175   -0.06479    5    diag
    7      0.225D-04      0.472D-05      -116.27987018    155.648609    0.17308   -0.73174   -0.06476    6    diag
    8      0.665D-05      0.119D-05      -116.27987020    155.648780    0.17304   -0.73168   -0.06475    7    diag
    9      0.147D-05      0.276D-06      -116.27987020    155.648753    0.17304   -0.73166   -0.06475    8    diag
   10      0.410D-06      0.327D-07      -116.27987020    155.648755    0.17304   -0.73166   -0.06475    9    orth
   11      0.443D-07      0.776D-08      -116.27987020    155.648756    0.17304   -0.73166   -0.06475    9    diag
   12      0.902D-08      0.204D-08      -116.27987020    155.648757    0.17304   -0.73166   -0.06475    0    orth

 Final occupancy:  10

 !RHF STATE  1.1 Energy              -116.279870201793
 Nuclear energy                        36.57703656
 One-electron energy                 -230.68128502
 Two-electron energy                   77.82437826
 Virial quotient                       -1.00063884
 !RHF STATE  1.1 Dipole moment          0.17303625    -0.73165635    -0.06474861
 Dipole moment /Debye                   0.43978548    -1.85956314    -0.16456378

 Orbital energies:

         1.1          2.1          3.1          4.1          5.1          6.1          7.1          8.1          9.1         10.1
    -20.567228   -11.198495    -1.342709    -0.953391    -0.707832    -0.580559    -0.554623    -0.552643    -0.551064    -0.507721

        11.1         12.1
      0.022833     0.037080


 HOMO     10.1    -0.507721 =     -13.8158eV
 LUMO     11.1     0.022833 =       0.6213eV
 LUMO-HOMO         0.530554 =      14.4371eV


 **********************************************************************************************************************************
 DATASETS  * FILE   NREC   LENGTH (MB)   RECORD NAMES
              1      18       37.12       500      610      700      900      950      970     1000      129      960     1100   
                                          VAR    BASINP    GEOM    SYMINP    ZMAT    AOBASIS   BASIS     P2S    ABASIS      S 
                                         1400     1410     1200     1210     1080     1600     1650     1700   
                                           T        V       H0       H01     AOSYM     SMH    MOLCAS    OPER   

              2       4        6.75       700     1000      520     2100   
                                         GEOM     BASIS   MCVARS     RHF  

 PROGRAMS   *        TOTAL    HF-SCF       INT
 CPU TIMES  *       517.66    294.37    223.06
 REAL TIME  *       629.96 SEC
 DISK USED  *        57.70 MB (local),       70.74 GB (total)
 SF USED    *         0.76 MB
 GA USED    *         0.00 MB       (max)       0.00 MB       (current)
 **********************************************************************************************************************************

 Basis set:  JKFIT                   
 Basis size:  1104
 Attributes:
 Sphericals:   T
 Basis set:  MP2FIT                  
 Basis size:  1246
 Attributes:
 Sphericals:   T
 Basis set:  RI                      
 Basis size:   730
 Attributes:
 Sphericals:   T
 Basis set:  TDDFT                   
 Basis size:  1246
 Attributes:
 Sphericals:   T

 PROGRAM * CCSD (Closed-shell coupled cluster)     Authors: C. Hampel, H.-J. Werner, 1991, M. Deegan, P.J. Knowles, 1992

                                  CCSD-F12 implementation by  H.-J. Werner, 2007

                   Density fitting integral evaluation by F.R. Manby, 2003,2007, G. Knizia, 2010



 Convergence thresholds:  THRVAR = 1.00D-08  THRDEN = 1.00D-10

 CCSD(T)     terms to be evaluated (factor= 1.000)


 Number of core orbitals:           2 (   2 )
 Number of closed-shell orbitals:   8 (   8 )
 Number of external orbitals:     426 ( 426 )

 Molecular orbitals read from record     2100.2  Type=RHF/CANONICAL (state 1.1)

 MP2-F12 correlation treatment (H.-J. Werner, 2006)
 ==================================================

 Using MP2-F12 with ansatz 3C(FIX)

 Using projected zeroth-order Hamiltonian (+Z)

 FOCKRIB=T FOCKRIC=T FOCKRIP=T CABSP=T CABSA=T CABSK=T CABSF=T GBC=F EBC=F DMAT=T NOFIK=T NOPAO=1 SOLVE=-1  USEPAO=0
 EXCH_A= T EXCH_B= F EXCH_C= F EXCH_P= F

 Geminal basis:    OPTFULL  GEM_TYPE=SLATER  BETA=1.0  NGEM=6

 Optimizing Gaussian exponents for each gem_beta

 Geminal optimization for beta= 1.0000
 Weight function:   m=0, omega= 1.4646

 Augmented Hessian optimization of geminal fit. Trust ratio= 0.40000
 Convergence reached after   2 iterations. Final gradient= 7.85D-16, Step= 4.26D-06, Delta= 1.28D-09

 Alpha:                 0.19532     0.81920     2.85917     9.50073    35.69989   197.79328
 Coeff:                 0.27070     0.30552     0.18297     0.10986     0.06810     0.04224


 All pairs explicitly correlated. Number of r12-pairs:           36

 Excluding core orbitals from MO domains

 AO(A)-basis ORBITAL           loaded. Number of functions:     436
 RI(R)-basis RI                loaded. Number of functions:     730
 DF-basis JKFIT                loaded. Number of functions:    1104

 Screening thresholds:   THRAO=  1.00D-10  THRMO=  1.00D-09  THRPROD=  1.00D-09
                         THRSW=  1.00D-05  THROV=  1.00D-12  THRAOF12= 1.00D-10

 CPU time for Fock operators                     12.49 sec

 Construction of ABS:
 Smallest eigenvalue of S          2.26E-04  (threshold= 1.00E-08)
 Ratio eigmin/eigmax               3.94E-05  (threshold= 1.00E-09)
 Smallest eigenvalue of S kept     2.26E-04  (threshold= 2.26E-04, 0 functions deleted, 730 kept)

 Construction of CABS:
 Smallest eigenvalue of S          1.56E-08  (threshold= 1.00E-08)
 Ratio eigmin/eigmax               1.56E-08  (threshold= 1.00E-09)
 Smallest eigenvalue of S kept     1.56E-08  (threshold= 1.56E-08, 0 functions deleted, 730 kept)

 CPU time for CABS singles                        2.33 sec

 CABS-singles contribution of  -0.00053881 patched into reference energy.
 New reference energy        -116.28040901

 AO(A)-basis ORBITAL           loaded. Number of functions:     436
 RI(R)-basis RI                loaded. Number of functions:     730
 DF-basis MP2FIT               loaded. Number of functions:    1246

 Screening thresholds:   THRAO=  1.00D-10  THRMO=  1.00D-09  THRPROD=  1.00D-09
                         THRSW=  1.00D-05  THROV=  1.00D-12  THRAOF12= 1.00D-10

 CPU time for 3-index integral evaluation        20.13 sec
 CPU time for first  half transformation          6.14 sec ( 2139.6 MFLOP/sec)
 CPU time for second half transformation          0.15 sec ( 1027.3 MFLOP/sec)
 CPU time for sorting                             0.18 sec
 CPU time for fitting                             1.92 sec ( 3868.4 MFLOP/sec)
 CPU time for tilde quantities                    2.34 sec ( 4304.6 MFLOP/sec)
 CPU time for assembly                           16.75 sec ( 4233.9 MFLOP/sec)
 CPU time for tranop_f12                         16.55 sec ( 4165.4 MFLOP/sec)
 CPU time for f12 integrals (total)              87.01 sec, Elapsed time:     90.82 sec
 F12-matrices built in  4 passes.
 F12-matrices built in  4 passes.
 F12-matrices built in  4 passes.
 F12-matrices built in  4 passes.
 FC-matrix built in  4 passes.
 CPU time for f12 matrices (total)                6.84 sec, Elapsed time:      7.08 sec

 Diagonal F12 approximation with fixed coefficients:  TSING= 0.500,  TTRIP= 0.250 (scaled by -1/beta)

 DF-MP2-F12 energy corrections:
 ==============================
 Approx.                                    Singlet             Triplet             Total
 DF-MP2-F12/3*C(DX,FIX)                -0.021224690616     -0.002109909483     -0.023334600100
 DF-MP2-F12/3*C(FIX)                   -0.019154883804     -0.001555277642     -0.020710161446
 DF-MP2-F12/3C(FIX)                    -0.019169581660     -0.001606711126     -0.020776292786

 DF-MP2-F12 correlation energies:
 ================================
 Approx.                                    Singlet             Triplet             Ecorr            Total Energy
 DF-MP2                                -0.340649854469     -0.158346197506     -0.498996051976   -116.779405061380
 DF-MP2-F12/3*C(DX,FIX)                -0.361874545086     -0.160456106990     -0.522330652075   -116.802739661480
 DF-MP2-F12/3*C(FIX)                   -0.359804738274     -0.159901475148     -0.519706213422   -116.800115222827
 DF-MP2-F12/3C(FIX)                    -0.359819436130     -0.159952908632     -0.519772344762   -116.800181354167

 SCS-DF-MP2 energies (F_SING= 1.20000  F_TRIP= 0.62222  F_PARALLEL= 0.33333):
 ============================================================================
 SCS-DF-MP2                            -0.507306348256   -116.787715357661
 SCS-DF-MP2-F12/3*C(DX,FIX)            -0.534088809563   -116.814497818968
 SCS-DF-MP2-F12/3*C(FIX)               -0.531259937132   -116.811668946536
 SCS-DF-MP2-F12/3C(FIX)                -0.531309577616   -116.811718587020
 Symmetry transformation completed.

 Number of N-1 electron functions:               8
 Number of N-2 electron functions:              36
 Number of singly external CSFs:              3408
 Number of doubly external CSFs:           5808936
 Total number of CSFs:                     5812345

 Pair and operator lists are different

 Length of J-op  integral file:               0.75 GB
 Length of K-op  integral file:               0.98 GB
 Length of 3-ext integral record:             0.00 MB

 Memory could be reduced to 828.63 Mwords without degradation in triples

 Integral transformation finished. Total CPU: 375.53 sec, npass=  1  Memory used: 389.45 MW

 Reference energy:                   -116.28040901

 Adding F12 terms to K(Cij), methodcc=6,  factor= 1.0

 ITER.      SQ.NORM     CORR.ENERGY   TOTAL ENERGY   ENERGY CHANGE        DEN1      VAR(S)    VAR(P)  DIIS     TIME  TIME/IT
   1      1.13385552    -0.51266016  -116.79306917    -0.01365479    -0.00176144  0.14D-02  0.20D-02  1  1   673.89   183.83
   2      1.14209191    -0.51330707  -116.79371607    -0.00064691    -0.00997277  0.30D-04  0.24D-03  2  2   857.98   186.19
   3      1.14512408    -0.51349775  -116.79390676    -0.00019069    -0.00214058  0.13D-04  0.14D-04  3  3  1041.40   186.58
   4      1.14610150    -0.51351679  -116.79392580    -0.00001903    -0.00058268  0.66D-06  0.13D-05  4  4  1224.52   186.96
   5      1.14627004    -0.51351647  -116.79392548     0.00000031    -0.00004020  0.20D-06  0.89D-07  5  5  1406.26   186.96
   6      1.14631321    -0.51351365  -116.79392266     0.00000282    -0.00000607  0.21D-07  0.79D-08  6  6  1589.31   187.08
   7      1.14632458    -0.51351241  -116.79392142     0.00000124    -0.00000341  0.19D-08  0.83D-09  6  1  1772.70   187.26
   8      1.14632618    -0.51351243  -116.79392144    -0.00000002     0.00000034  0.35D-09  0.11D-09  6  3  1956.15   187.36
   9      1.14632734    -0.51351236  -116.79392137     0.00000007    -0.00000033  0.30D-10  0.17D-10  6  2  2138.67   187.34
  10      1.14632753    -0.51351236  -116.79392137     0.00000000     0.00000006  0.27D-11  0.19D-11  6  4  2322.21   187.41
  11      1.14632751    -0.51351237  -116.79392138    -0.00000000     0.00000005  0.49D-12  0.28D-12  6  5  2505.23   187.42
  12      1.14632750    -0.51351237  -116.79392138    -0.00000000     0.00000002  0.85D-13  0.34D-13  6  6  2687.09   187.32
  13      1.14632749    -0.51351237  -116.79392138    -0.00000000     0.00000001  0.27D-13  0.82D-14  6  5  2869.97   187.30
  14      1.14632748    -0.51351237  -116.79392138    -0.00000000     0.00000000  0.32D-14  0.94D-15  6  1  3053.01   187.31
  15      1.14632748    -0.51351237  -116.79392138    -0.00000000     0.00000000  0.44D-15  0.16D-15  6  3  3237.22   187.39
  16      1.14632748    -0.51351237  -116.79392138    -0.00000000    -0.00000000  0.63D-16  0.26D-16  6  2  3421.11   187.44
  17      1.14632748    -0.51351237  -116.79392138     0.00000000    -0.00000000  0.13D-16  0.38D-17  6  4  3603.56   187.38

 Norm of t1 vector:      0.04982952      S-energy:    -0.00000000      T1 diagnostic:  0.00880870
                                                                       D1 diagnostic:  0.01927699

 Adding energy correction from Wij-K(Fij), methodcc=6  factor= 1.0

  CCSD correlation energy              -0.513512367807
  MP2-F12 correction (uncoupled)       -0.020212818725
  C*T doubles correction               -0.000546528537
  f12b correction                       0.004652739186

   CPU time for triples:   2336.08 sec for i =  1 -  7 /  8 (~  68.8 % done)
   CPU time for triples:    935.54 sec for i =  8 -  8 /  8 (  100.0 % done)

 Total CPU time for triples:   3278.65 sec

  Ecorr(MP2)                           -0.499005368217
  Ecorr(MP2-F12)                       -0.519781661004
  Scale factor for triples energy       1.041635409376


 RESULTS
 =======

  Reference energy                   -116.279870201795
  F12 singles correction               -0.000538807610

 F12 singles corrections added to reference energy

  New reference energy               -116.280409009405

  F12a singlet correction              -0.019141597563
  F12a triplet correction              -0.001617749700
  F12a total correction                -0.020759347262

 F12a corrections for ansatz F12/3C(FIX) added to CCSD energy

  CCSD-F12a singlet pair energy        -0.387732075693
  CCSD-F12a triplet pair energy        -0.146539639203
  CCSD-F12a correlation energy         -0.534271715069

  Triples (T) contribution (scaled)    -0.017098488536
  Total correlation energy             -0.551370203605

  CCSD-F12a total energy             -116.814680724474
  CCSD[T]-F12a energy                -116.832344841610
  CCSD-T-F12a energy                 -116.831566203239
 !CCSD(T)-F12a total energy          -116.831779213010

 F12b corrections for ansatz F12/3C(FIX) added to CCSD(T)-F12a energy

  CCSD-F12b singlet pair energy        -0.383294434444
  CCSD-F12b triplet pair energy        -0.146324541267
  CCSD-F12b correlation energy         -0.529618975883

  Triples (T) contribution (scaled)    -0.017098488536
  Total correlation energy             -0.546717464419

  CCSD-F12b total energy             -116.810027985288
  CCSD[T]-F12b energy                -116.827692102425
  CCSD-T-F12b energy                 -116.826913464053
 !CCSD(T)-F12b total energy          -116.827126473824

 Timing summary (sec):

 STEP                 CPU(USER)    SYS     CPU(TOT)    WALL
 Transformation        376.71     15.61    392.32    393.71
 CCSD iterations      3110.49     66.56   3177.05   3185.70
 Triples              3278.65     41.83   3320.48   3324.96
 MP2-F12               116.48      4.49    120.97    121.31
 F12b energy           155.73      2.90    158.63    158.84

 Program statistics:

 Available memory in ccsd:              1999999554
 Min. memory needed in ccsd:              16971337
 Max. memory used in ccsd:                21987113
 Max. memory used in cckext:              15122080 (18 integral passes)



 **********************************************************************************************************************************
 DATASETS  * FILE   NREC   LENGTH (MB)   RECORD NAMES
              1      19     2602.04       500      610      700      900      950      970     1000      129      960     1100   
                                          VAR    BASINP    GEOM    SYMINP    ZMAT    AOBASIS   BASIS     P2S    ABASIS      S 
                                         1400     1410     1200     1210     1080     1600     1650     1700     1380   
                                           T        V       H0       H01     AOSYM     SMH    MOLCAS    OPER     JKOP   

              2       6       10.56       700     1000      520     2100     7360     7350   
                                         GEOM     BASIS   MCVARS     RHF    F12ABS    EF12   

 PROGRAMS   *        TOTAL   CCSD(T)    HF-SCF       INT
 CPU TIMES  *      7555.96   7038.29    294.37    223.06
 REAL TIME  *      7815.44 SEC
 DISK USED  *         3.24 GB (local),       81.58 GB (total)
 SF USED    *         5.12 GB
 GA USED    *         4.87 MB       (max)       0.00 MB       (current)
 **********************************************************************************************************************************

 Running procedure: SET_MONOMER1

 Dummy atoms: C1  H41  H42  H43  H44


 Recomputing one-electron integrals since nuclear charges changed


 PROGRAM * SEWARD (Integral evaluation for generally contracted gaussian basis sets)     Author: Roland Lindh, 1990

 Geometry written to block  1 of record 700


 Point group  C1  



 ATOMIC COORDINATES

 NR  ATOM    CHARGE       X              Y              Z

   1  O6      8.00   -1.010247586    7.876000542    2.916036383
   2  H11     1.00   -0.819574220    6.648056506    4.275505357
   3  H12     1.00   -0.644963526    6.932271315    1.370429386
   4  C1      0.00   -6.193010455    2.801518980    2.403542658
   5  H41     0.00   -4.656285171    1.699997622    3.119937832
   6  H42     0.00   -5.973046335    4.726205038    2.982932688
   7  H43     0.00   -7.940251230    2.077186956    3.118237078
   8  H44     0.00   -6.176569838    2.685300823    0.384937212

 Bond lengths in Bohr (Angstrom)

 1-2  1.841835709  1-3  1.847419359  4-5  2.021904040  4-6  2.022002335  4-7  2.021953343
     ( 0.974657483)     ( 0.977612224)     ( 1.069945541)     ( 1.069997556)     ( 1.069971630)

 4-8  2.022015060
     ( 1.070004290)

 Bond angles

  2-1-3  104.86126985   5-4-6  109.53398059   5-4-7  109.65604535   5-4-8  108.43490854

  6-4-7  109.49436728   6-4-8  109.86987750   7-4-8  109.83468330

 NUCLEAR CHARGE:                   10
 NUMBER OF PRIMITIVE AOS:         578
 NUMBER OF SYMMETRY AOS:          474
 NUMBER OF CONTRACTIONS:          436   (  436A   )
 NUMBER OF CORE ORBITALS:           1   (    1A   )
 NUMBER OF VALENCE ORBITALS:        6   (    6A   )

 MOLECULE CHANGED: INITIALIZING OCCUPATION AND DUMP RECORDS


 NUCLEAR REPULSION ENERGY    9.01583577

 Basis set:  JKFIT                   
 Basis size:  1104
 Attributes:
 Sphericals:   T
 Basis set:  MP2FIT                  
 Basis size:  1246
 Attributes:
 Sphericals:   T
 Basis set:  RI                      
 Basis size:   730
 Attributes:
 Sphericals:   T
 Basis set:  TDDFT                   
 Basis size:  1246
 Attributes:
 Sphericals:   T

 Eigenvalues of metric

         1 0.150E-04 0.241E-04 0.337E-04 0.373E-04 0.620E-04 0.842E-04 0.954E-04 0.104E-03


 Contracted 2-electron integrals neglected if value below      1.0D-14

 OPERATOR DM      FOR CENTER  0  COORDINATES:    0.000000    0.000000    0.000000


 **********************************************************************************************************************************
 DATASETS  * FILE   NREC   LENGTH (MB)   RECORD NAMES
              1      18       37.12       500      610      700      900      950      970     1000      129      960     1100   
                                          VAR    BASINP    GEOM    SYMINP    ZMAT    AOBASIS   BASIS     P2S    ABASIS      S 
                                         1400     1410     1200     1210     1080     1600     1650     1700   
                                           T        V       H0       H01     AOSYM     SMH    MOLCAS    OPER   

              2       7       10.59       700     1000      520     2100     7360     7350      200   
                                         GEOM     BASIS   MCVARS     RHF    F12ABS    EF12    OPTIONS    

 PROGRAMS   *        TOTAL       INT   CCSD(T)    HF-SCF       INT
 CPU TIMES  *      7556.38      0.40   7038.29    294.37    223.06
 REAL TIME  *      7816.85 SEC
 DISK USED  *         3.24 GB (local),       81.58 GB (total)
 SF USED    *         5.12 GB
 GA USED    *         4.87 MB       (max)       0.00 MB       (current)
 **********************************************************************************************************************************


 PROGRAM * RHF-SCF (CLOSED SHELL)       Authors: W. Meyer, H.-J. Werner


 NUMBER OF ELECTRONS:       5+    5-    SPACE SYMMETRY=1    SPIN SYMMETRY: Singlet 
 CONVERGENCE THRESHOLDS:    1.00E-08 (Density)    1.00E-11 (Energy)
 MAX. NUMBER OF ITERATIONS:       60
 INTERPOLATION TYPE:            DIIS
 INTERPOLATION STEPS:              2 (START)      1 (STEP)
 LEVEL SHIFTS:                  0.00 (CLOSED)  0.00 (OPEN) 



 Orbital guess generated from atomic densities. Full valence occupancy:    7

 Molecular orbital dump at record        2101.2

 Initial occupancy:   5

 ITERATION    DDIFF          GRAD             ENERGY        2-EL.EN.            DIPOLE MOMENTS         DIIS   ORB.
    1      0.000D+00      0.000D+00       -76.02547410     77.431005    0.28478   -1.11208   -0.09630    0    start
    2      0.000D+00      0.467D-02       -76.05229440     73.785784    0.16544   -0.64640   -0.05504    1    diag
    3      0.223D-02      0.297D-02       -76.06380356     75.403021    0.19519   -0.76256   -0.06514    2    diag
    4      0.843D-03      0.278D-03       -76.06399640     75.311790    0.19401   -0.75801   -0.06457    3    diag
    5      0.106D-03      0.775D-04       -76.06401709     75.326122    0.19358   -0.75635   -0.06435    4    diag
    6      0.339D-04      0.153D-04       -76.06401841     75.325113    0.19349   -0.75599   -0.06430    5    diag
    7      0.872D-05      0.310D-05       -76.06401847     75.325259    0.19346   -0.75587   -0.06428    6    diag
    8      0.244D-05      0.583D-06       -76.06401848     75.325244    0.19345   -0.75584   -0.06427    7    diag
    9      0.445D-06      0.770D-07       -76.06401848     75.325236    0.19345   -0.75583   -0.06427    8    diag
   10      0.520D-07      0.171D-07       -76.06401848     75.325239    0.19345   -0.75583   -0.06427    9    orth
   11      0.137D-07      0.296D-08       -76.06401848     75.325238    0.19345   -0.75583   -0.06427    9    diag
   12      0.254D-08      0.478D-09       -76.06401848     75.325238    0.19345   -0.75583   -0.06427    0    orth

 Final occupancy:   5

 !RHF STATE  1.1 Energy               -76.064018476084
 Nuclear energy                         9.01583577
 One-electron energy                 -122.74247342
 Two-electron energy                   37.66261917
 Virial quotient                       -1.00188645
 !RHF STATE  1.1 Dipole moment          0.19344801    -0.75583024    -0.06427398
 Dipole moment /Debye                   0.49166359    -1.92100303    -0.16335745

 Orbital energies:

         1.1          2.1          3.1          4.1          5.1          6.1          7.1
    -20.567842    -1.343053    -0.708193    -0.580673    -0.508856     0.017259     0.034847


 HOMO      5.1    -0.508856 =     -13.8467eV
 LUMO      6.1     0.017259 =       0.4696eV
 LUMO-HOMO         0.526115 =      14.3163eV


 **********************************************************************************************************************************
 DATASETS  * FILE   NREC   LENGTH (MB)   RECORD NAMES
              1      18       37.12       500      610      700      900      950      970     1000      129      960     1100   
                                          VAR    BASINP    GEOM    SYMINP    ZMAT    AOBASIS   BASIS     P2S    ABASIS      S 
                                         1400     1410     1200     1210     1080     1600     1650     1700   
                                           T        V       H0       H01     AOSYM     SMH    MOLCAS    OPER   

              2       8       17.39       700     1000      520     2100     7360     7350      200     2101   
                                         GEOM     BASIS   MCVARS     RHF    F12ABS    EF12    OPTIONS    RHF  

 PROGRAMS   *        TOTAL    HF-SCF       INT   CCSD(T)    HF-SCF       INT
 CPU TIMES  *      7849.09    292.70      0.40   7038.29    294.37    223.06
 REAL TIME  *      8152.56 SEC
 DISK USED  *         3.24 GB (local),       81.58 GB (total)
 SF USED    *         5.12 GB
 GA USED    *         4.87 MB       (max)       0.00 MB       (current)
 **********************************************************************************************************************************

 Basis set:  JKFIT                   
 Basis size:  1104
 Attributes:
 Sphericals:   T
 Basis set:  MP2FIT                  
 Basis size:  1246
 Attributes:
 Sphericals:   T
 Basis set:  RI                      
 Basis size:   730
 Attributes:
 Sphericals:   T
 Basis set:  TDDFT                   
 Basis size:  1246
 Attributes:
 Sphericals:   T

 PROGRAM * CCSD (Closed-shell coupled cluster)     Authors: C. Hampel, H.-J. Werner, 1991, M. Deegan, P.J. Knowles, 1992

                                  CCSD-F12 implementation by  H.-J. Werner, 2007

                   Density fitting integral evaluation by F.R. Manby, 2003,2007, G. Knizia, 2010



 Convergence thresholds:  THRVAR = 1.00D-08  THRDEN = 1.00D-10

 CCSD(T)     terms to be evaluated (factor= 1.000)


 Number of core orbitals:           1 (   1 )
 Number of closed-shell orbitals:   4 (   4 )
 Number of external orbitals:     431 ( 431 )

 Molecular orbitals read from record     2101.2  Type=RHF/CANONICAL (state 1.1)

 MP2-F12 correlation treatment (H.-J. Werner, 2006)
 ==================================================

 Using MP2-F12 with ansatz 3C(FIX)

 Using projected zeroth-order Hamiltonian (+Z)

 FOCKRIB=T FOCKRIC=T FOCKRIP=T CABSP=T CABSA=T CABSK=T CABSF=T GBC=F EBC=F DMAT=T NOFIK=T NOPAO=1 SOLVE=-1  USEPAO=0
 EXCH_A= T EXCH_B= F EXCH_C= F EXCH_P= F

 Geminal basis:    OPTFULL  GEM_TYPE=SLATER  BETA=1.0  NGEM=6

 Optimizing Gaussian exponents for each gem_beta

 Geminal optimization for beta= 1.0000
 Weight function:   m=0, omega= 1.4646

 Augmented Hessian optimization of geminal fit. Trust ratio= 0.40000
 Convergence reached after   2 iterations. Final gradient= 8.31D-16, Step= 4.24D-06, Delta= 1.28D-09

 Alpha:                 0.19532     0.81920     2.85917     9.50073    35.69989   197.79328
 Coeff:                 0.27070     0.30552     0.18297     0.10986     0.06810     0.04224


 All pairs explicitly correlated. Number of r12-pairs:           10

 Excluding core orbitals from MO domains

 AO(A)-basis ORBITAL           loaded. Number of functions:     436
 RI(R)-basis RI                loaded. Number of functions:     730
 DF-basis JKFIT                loaded. Number of functions:    1104

 Screening thresholds:   THRAO=  1.00D-10  THRMO=  1.00D-09  THRPROD=  1.00D-09
                         THRSW=  1.00D-05  THROV=  1.00D-12  THRAOF12= 1.00D-10

 CPU time for Fock operators                     10.38 sec

 Construction of ABS:
 Smallest eigenvalue of S          2.26E-04  (threshold= 1.00E-08)
 Ratio eigmin/eigmax               3.94E-05  (threshold= 1.00E-09)
 Smallest eigenvalue of S kept     2.26E-04  (threshold= 2.26E-04, 0 functions deleted, 730 kept)

 Construction of CABS:
 Smallest eigenvalue of S          1.56E-08  (threshold= 1.00E-08)
 Ratio eigmin/eigmax               1.56E-08  (threshold= 1.00E-09)
 Smallest eigenvalue of S kept     1.56E-08  (threshold= 1.56E-08, 0 functions deleted, 730 kept)

 CPU time for CABS singles                        2.37 sec

 CABS-singles contribution of  -0.00029394 patched into reference energy.
 New reference energy         -76.06431242

 AO(A)-basis ORBITAL           loaded. Number of functions:     436
 RI(R)-basis RI                loaded. Number of functions:     730
 DF-basis MP2FIT               loaded. Number of functions:    1246

 Screening thresholds:   THRAO=  1.00D-10  THRMO=  1.00D-09  THRPROD=  1.00D-09
                         THRSW=  1.00D-05  THROV=  1.00D-12  THRAOF12= 1.00D-10

 CPU time for 3-index integral evaluation        20.49 sec
 CPU time for first  half transformation          4.61 sec ( 1407.4 MFLOP/sec)
 CPU time for second half transformation          0.03 sec ( 1290.6 MFLOP/sec)
 CPU time for sorting                             0.07 sec
 CPU time for fitting                             1.30 sec (   47.8 MFLOP/sec)
 CPU time for tilde quantities                    1.51 sec ( 5691.9 MFLOP/sec)
 CPU time for assembly                            5.04 sec ( 3260.4 MFLOP/sec)
 CPU time for tranop_f12                          4.55 sec ( 3309.9 MFLOP/sec)
 CPU time for f12 integrals (total)              44.79 sec, Elapsed time:     46.42 sec
 F12-matrices built in  4 passes.
 F12-matrices built in  4 passes.
 F12-matrices built in  4 passes.
 F12-matrices built in  4 passes.
 FC-matrix built in  4 passes.
 CPU time for f12 matrices (total)                1.73 sec, Elapsed time:      1.79 sec

 Diagonal F12 approximation with fixed coefficients:  TSING= 0.500,  TTRIP= 0.250 (scaled by -1/beta)

 DF-MP2-F12 energy corrections:
 ==============================
 Approx.                                    Singlet             Triplet             Total
 DF-MP2-F12/3*C(DX,FIX)                -0.013716271770     -0.001530427881     -0.015246699651
 DF-MP2-F12/3*C(FIX)                   -0.012093678157     -0.001076123901     -0.013169802058
 DF-MP2-F12/3C(FIX)                    -0.012079179690     -0.001113343719     -0.013192523409

 DF-MP2-F12 correlation energies:
 ================================
 Approx.                                    Singlet             Triplet             Ecorr            Total Energy
 DF-MP2                                -0.186070088950     -0.101319184255     -0.287389273205    -76.351701688636
 DF-MP2-F12/3*C(DX,FIX)                -0.199786360720     -0.102849612136     -0.302635972856    -76.366948388287
 DF-MP2-F12/3*C(FIX)                   -0.198163767107     -0.102395308156     -0.300559075263    -76.364871490694
 DF-MP2-F12/3C(FIX)                    -0.198149268640     -0.102432527974     -0.300581796614    -76.364894212045

 SCS-DF-MP2 energies (F_SING= 1.20000  F_TRIP= 0.62222  F_PARALLEL= 0.33333):
 ============================================================================
 SCS-DF-MP2                            -0.286327154721    -76.350639570152
 SCS-DF-MP2-F12/3*C(DX,FIX)            -0.303738947082    -76.368051362513
 SCS-DF-MP2-F12/3*C(FIX)               -0.301509156714    -76.365821572145
 SCS-DF-MP2-F12/3C(FIX)                -0.301514917552    -76.365827332982
 Symmetry transformation completed.

 Number of N-1 electron functions:               4
 Number of N-2 electron functions:              10
 Number of singly external CSFs:              1724
 Number of doubly external CSFs:           1486950
 Total number of CSFs:                     1488675

 Pair and operator lists are different

 Length of J-op  integral file:             203.65 MB
 Length of K-op  integral file:             338.08 MB
 Length of 3-ext integral record:             0.00 MB

 Memory could be reduced to 526.20 Mwords without degradation in triples

 Integral transformation finished. Total CPU: 196.66 sec, npass=  1  Memory used: 214.75 MW

 Reference energy:                    -76.06431242

 Adding F12 terms to K(Cij), methodcc=6,  factor= 1.0

 ITER.      SQ.NORM     CORR.ENERGY   TOTAL ENERGY   ENERGY CHANGE        DEN1      VAR(S)    VAR(P)  DIIS     TIME  TIME/IT
   1      1.06336872    -0.28684380   -76.35115621     0.00054949     0.00668491  0.78D-03  0.10D-02  1  1   316.41    57.56
   2      1.06687459    -0.28664449   -76.35095690     0.00019931    -0.00485775  0.13D-04  0.11D-03  2  2   371.92    58.10
   3      1.06808818    -0.28673962   -76.35105204    -0.00009514    -0.00081273  0.96D-05  0.74D-05  3  3   427.27    58.27
   4      1.06863398    -0.28675436   -76.35106677    -0.00001474    -0.00033614  0.52D-06  0.72D-06  4  4   483.08    58.41
   5      1.06873777    -0.28675272   -76.35106514     0.00000163    -0.00002911  0.17D-06  0.55D-07  5  5   538.77    58.53
   6      1.06877019    -0.28675061   -76.35106303     0.00000211    -0.00000398  0.20D-07  0.47D-08  6  6   594.47    58.59
   7      1.06877932    -0.28675002   -76.35106243     0.00000060    -0.00000186  0.15D-08  0.72D-09  6  1   650.05    58.62
   8      1.06878109    -0.28674995   -76.35106237     0.00000006    -0.00000012  0.23D-09  0.91D-10  6  2   705.11    58.59
   9      1.06878166    -0.28674995   -76.35106236     0.00000001     0.00000010  0.23D-10  0.10D-10  6  3   760.87    58.62
  10      1.06878187    -0.28674993   -76.35106235     0.00000001    -0.00000002  0.20D-11  0.12D-11  6  4   816.18    58.65
  11      1.06878186    -0.28674994   -76.35106235    -0.00000000     0.00000003  0.43D-12  0.15D-12  6  5   871.83    58.68
  12      1.06878186    -0.28674994   -76.35106235     0.00000000     0.00000000  0.75D-13  0.24D-13  6  6   927.17    58.68
  13      1.06878186    -0.28674994   -76.35106235    -0.00000000     0.00000000  0.13D-13  0.41D-14  6  1   982.61    58.68
  14      1.06878186    -0.28674994   -76.35106235    -0.00000000     0.00000000  0.19D-14  0.74D-15  6  2  1038.00    58.69
  15      1.06878186    -0.28674994   -76.35106235    -0.00000000    -0.00000000  0.24D-15  0.12D-15  6  5  1093.71    58.69
  16      1.06878186    -0.28674994   -76.35106235    -0.00000000    -0.00000000  0.22D-16  0.86D-17  6  3  1149.52    58.70

 Norm of t1 vector:      0.03663190      S-energy:    -0.00000000      T1 diagnostic:  0.00915798
                                                                       D1 diagnostic:  0.01859154

 Adding energy correction from Wij-K(Fij), methodcc=6  factor= 1.0

  CCSD correlation energy              -0.286749936345
  MP2-F12 correction (uncoupled)       -0.012755474155
  C*T doubles correction               -0.000418326404
  f12b correction                       0.002710911847


 Total CPU time for triples:    491.02 sec

  Ecorr(MP2)                           -0.287393284405
  Ecorr(MP2-F12)                       -0.300585807813
  Scale factor for triples energy       1.045904076834


 RESULTS
 =======

  Reference energy                    -76.064018476086
  F12 singles correction               -0.000293939345

 F12 singles corrections added to reference energy

  New reference energy                -76.064312415431

  F12a singlet correction              -0.012051314772
  F12a triplet correction              -0.001122485786
  F12a total correction                -0.013173800558

 F12a corrections for ansatz F12/3C(FIX) added to CCSD energy

  CCSD-F12a singlet pair energy        -0.209186154758
  CCSD-F12a triplet pair energy        -0.090737582133
  CCSD-F12a correlation energy         -0.299923736903

  Triples (T) contribution (scaled)    -0.009905731559
  Total correlation energy             -0.309829468463

  CCSD-F12a total energy              -76.364236152334
  CCSD[T]-F12a energy                 -76.374466579563
  CCSD-T-F12a energy                  -76.374001022051
 !CCSD(T)-F12a total energy           -76.374141883894

 F12b corrections for ansatz F12/3C(FIX) added to CCSD(T)-F12a energy

  CCSD-F12b singlet pair energy        -0.206621915237
  CCSD-F12b triplet pair energy        -0.090590909807
  CCSD-F12b correlation energy         -0.297212825056

  Triples (T) contribution (scaled)    -0.009905731559
  Total correlation energy             -0.307118556616

  CCSD-F12b total energy              -76.361525240487
  CCSD[T]-F12b energy                 -76.371755667716
  CCSD-T-F12b energy                  -76.371290110204
 !CCSD(T)-F12b total energy           -76.371430972047

 Timing summary (sec):

 STEP                 CPU(USER)    SYS     CPU(TOT)    WALL
 Transformation        197.05      9.69    206.74    206.99
 CCSD iterations       887.92     50.11    938.03    939.42
 Triples               491.02      7.21    498.23    498.87
 MP2-F12                64.64      2.17     66.81     66.89
 F12b energy            51.38      2.66     54.04     54.14

 Program statistics:

 Available memory in ccsd:              1999999871
 Min. memory needed in ccsd:               6763924
 Max. memory used in ccsd:                 7862874
 Max. memory used in cckext:               5171974 (17 integral passes)



 **********************************************************************************************************************************
 DATASETS  * FILE   NREC   LENGTH (MB)   RECORD NAMES
              1      19     1346.98       500      610      700      900      950      970     1000      129      960     1100   
                                          VAR    BASINP    GEOM    SYMINP    ZMAT    AOBASIS   BASIS     P2S    ABASIS      S 
                                         1400     1410     1200     1210     1080     1600     1650     1700     1380   
                                           T        V       H0       H01     AOSYM     SMH    MOLCAS    OPER     JKOP   

              2       8       17.39       700     1000      520     2100     7360     7350      200     2101   
                                         GEOM     BASIS   MCVARS     RHF    F12ABS    EF12    OPTIONS    RHF  

 PROGRAMS   *        TOTAL   CCSD(T)    HF-SCF       INT   CCSD(T)    HF-SCF       INT
 CPU TIMES  *      9541.36   1692.26    292.70      0.40   7038.29    294.37    223.06
 REAL TIME  *      9919.97 SEC
 DISK USED  *         3.24 GB (local),       81.58 GB (total)
 SF USED    *         5.12 GB
 GA USED    *         4.87 MB       (max)       0.00 MB       (current)
 **********************************************************************************************************************************

 Running procedure: SET_MONOMER2

 Dummy atoms: O6  H11  H12


 Recomputing one-electron integrals since nuclear charges changed


 PROGRAM * SEWARD (Integral evaluation for generally contracted gaussian basis sets)     Author: Roland Lindh, 1990

 Geometry written to block  1 of record 700


 Point group  C1  



 ATOMIC COORDINATES

 NR  ATOM    CHARGE       X              Y              Z

   1  O6      0.00   -1.010247586    7.876000542    2.916036383
   2  H11     0.00   -0.819574220    6.648056506    4.275505357
   3  H12     0.00   -0.644963526    6.932271315    1.370429386
   4  C1      6.00   -6.193010455    2.801518980    2.403542658
   5  H41     1.00   -4.656285171    1.699997622    3.119937832
   6  H42     1.00   -5.973046335    4.726205038    2.982932688
   7  H43     1.00   -7.940251230    2.077186956    3.118237078
   8  H44     1.00   -6.176569838    2.685300823    0.384937212

 Bond lengths in Bohr (Angstrom)

 1-2  1.841835709  1-3  1.847419359  4-5  2.021904040  4-6  2.022002335  4-7  2.021953343
     ( 0.974657483)     ( 0.977612224)     ( 1.069945541)     ( 1.069997556)     ( 1.069971630)

 4-8  2.022015060
     ( 1.070004290)

 Bond angles

  2-1-3  104.86126985   5-4-6  109.53398059   5-4-7  109.65604535   5-4-8  108.43490854

  6-4-7  109.49436728   6-4-8  109.86987750   7-4-8  109.83468330

 NUCLEAR CHARGE:                   10
 NUMBER OF PRIMITIVE AOS:         578
 NUMBER OF SYMMETRY AOS:          474
 NUMBER OF CONTRACTIONS:          436   (  436A   )
 NUMBER OF CORE ORBITALS:           1   (    1A   )
 NUMBER OF VALENCE ORBITALS:        8   (    8A   )

 MOLECULE CHANGED: INITIALIZING OCCUPATION AND DUMP RECORDS


 NUCLEAR REPULSION ENERGY   13.68681606

 Basis set:  JKFIT                   
 Basis size:  1104
 Attributes:
 Sphericals:   T
 Basis set:  MP2FIT                  
 Basis size:  1246
 Attributes:
 Sphericals:   T
 Basis set:  RI                      
 Basis size:   730
 Attributes:
 Sphericals:   T
 Basis set:  TDDFT                   
 Basis size:  1246
 Attributes:
 Sphericals:   T

 Eigenvalues of metric

         1 0.150E-04 0.241E-04 0.337E-04 0.373E-04 0.620E-04 0.842E-04 0.954E-04 0.104E-03


 Contracted 2-electron integrals neglected if value below      1.0D-14

 OPERATOR DM      FOR CENTER  0  COORDINATES:    0.000000    0.000000    0.000000


 **********************************************************************************************************************************
 DATASETS  * FILE   NREC   LENGTH (MB)   RECORD NAMES
              1      18       37.12       500      610      700      900      950      970     1000      129      960     1100   
                                          VAR    BASINP    GEOM    SYMINP    ZMAT    AOBASIS   BASIS     P2S    ABASIS      S 
                                         1400     1410     1200     1210     1080     1600     1650     1700   
                                           T        V       H0       H01     AOSYM     SMH    MOLCAS    OPER   

              2       8       17.39       700     1000      520     2100     7360     7350      200     2101   
                                         GEOM     BASIS   MCVARS     RHF    F12ABS    EF12    OPTIONS    RHF  

 PROGRAMS   *        TOTAL       INT   CCSD(T)    HF-SCF       INT   CCSD(T)    HF-SCF       INT
 CPU TIMES  *      9541.79      0.41   1692.26    292.70      0.40   7038.29    294.37    223.06
 REAL TIME  *      9921.15 SEC
 DISK USED  *         3.24 GB (local),       81.58 GB (total)
 SF USED    *         5.12 GB
 GA USED    *         4.87 MB       (max)       0.00 MB       (current)
 **********************************************************************************************************************************


 PROGRAM * RHF-SCF (CLOSED SHELL)       Authors: W. Meyer, H.-J. Werner


 NUMBER OF ELECTRONS:       5+    5-    SPACE SYMMETRY=1    SPIN SYMMETRY: Singlet 
 CONVERGENCE THRESHOLDS:    1.00E-08 (Density)    1.00E-11 (Energy)
 MAX. NUMBER OF ITERATIONS:       60
 INTERPOLATION TYPE:            DIIS
 INTERPOLATION STEPS:              2 (START)      1 (STEP)
 LEVEL SHIFTS:                  0.00 (CLOSED)  0.00 (OPEN) 



 Orbital guess generated from atomic densities. Full valence occupancy:    9

 Molecular orbital dump at record        2102.2

 Initial occupancy:   5

 ITERATION    DDIFF          GRAD             ENERGY        2-EL.EN.            DIPOLE MOMENTS         DIIS   ORB.
    1      0.000D+00      0.000D+00       -40.19609602     53.506292    0.00410   -0.00276   -0.00131    0    start
    2      0.000D+00      0.257D-02       -40.21335019     52.217621    0.00129   -0.00088   -0.00040    1    diag
    3      0.158D-02      0.998D-03       -40.21562613     52.672081    0.00182   -0.00124   -0.00056    2    diag
    4      0.444D-03      0.249D-03       -40.21594559     52.617268    0.00162   -0.00110   -0.00050    3    diag
    5      0.166D-03      0.322D-04       -40.21595108     52.619416    0.00159   -0.00109   -0.00049    4    diag
    6      0.414D-04      0.264D-05       -40.21595112     52.619552    0.00159   -0.00108   -0.00049    5    diag
    7      0.558D-05      0.212D-06       -40.21595112     52.619513    0.00159   -0.00108   -0.00049    6    diag
    8      0.215D-06      0.170D-07       -40.21595112     52.619514    0.00159   -0.00108   -0.00049    7    diag
    9      0.827D-07      0.217D-08       -40.21595112     52.619514    0.00159   -0.00108   -0.00049    8    diag
   10      0.844D-08      0.593D-09       -40.21595112     52.619514    0.00159   -0.00108   -0.00049    0    orth

 Final occupancy:   5

 !RHF STATE  1.1 Energy               -40.215951120756
 Nuclear energy                        13.68681606
 One-electron energy                  -80.21252416
 Two-electron energy                   26.30975698
 Virial quotient                       -0.99838109
 !RHF STATE  1.1 Dipole moment          0.00158884    -0.00108373    -0.00048794
 Dipole moment /Debye                   0.00403815    -0.00275438    -0.00124013

 Orbital energies:

         1.1          2.1          3.1          4.1          5.1          6.1          7.1
    -11.196224    -0.950661    -0.551890    -0.549955    -0.547775     0.024930     0.037299


 HOMO      5.1    -0.547775 =     -14.9057eV
 LUMO      6.1     0.024930 =       0.6784eV
 LUMO-HOMO         0.572705 =      15.5841eV


 **********************************************************************************************************************************
 DATASETS  * FILE   NREC   LENGTH (MB)   RECORD NAMES
              1      18       37.12       500      610      700      900      950      970     1000      129      960     1100   
                                          VAR    BASINP    GEOM    SYMINP    ZMAT    AOBASIS   BASIS     P2S    ABASIS      S 
                                         1400     1410     1200     1210     1080     1600     1650     1700   
                                           T        V       H0       H01     AOSYM     SMH    MOLCAS    OPER   

              2       9       27.51       700     1000      520     2100     7360     7350      200     2101     2102   
                                         GEOM     BASIS   MCVARS     RHF    F12ABS    EF12    OPTIONS    RHF      RHF  

 PROGRAMS   *        TOTAL    HF-SCF       INT   CCSD(T)    HF-SCF       INT   CCSD(T)    HF-SCF       INT
 CPU TIMES  *      9789.01    247.22      0.41   1692.26    292.70      0.40   7038.29    294.37    223.06
 REAL TIME  *     10204.35 SEC
 DISK USED  *         3.24 GB (local),       81.58 GB (total)
 SF USED    *         5.12 GB
 GA USED    *         4.87 MB       (max)       0.00 MB       (current)
 **********************************************************************************************************************************

 Basis set:  JKFIT                   
 Basis size:  1104
 Attributes:
 Sphericals:   T
 Basis set:  MP2FIT                  
 Basis size:  1246
 Attributes:
 Sphericals:   T
 Basis set:  RI                      
 Basis size:   730
 Attributes:
 Sphericals:   T
 Basis set:  TDDFT                   
 Basis size:  1246
 Attributes:
 Sphericals:   T

 PROGRAM * CCSD (Closed-shell coupled cluster)     Authors: C. Hampel, H.-J. Werner, 1991, M. Deegan, P.J. Knowles, 1992

                                  CCSD-F12 implementation by  H.-J. Werner, 2007

                   Density fitting integral evaluation by F.R. Manby, 2003,2007, G. Knizia, 2010



 Convergence thresholds:  THRVAR = 1.00D-08  THRDEN = 1.00D-10

 CCSD(T)     terms to be evaluated (factor= 1.000)


 Number of core orbitals:           1 (   1 )
 Number of closed-shell orbitals:   4 (   4 )
 Number of external orbitals:     431 ( 431 )

 Molecular orbitals read from record     2102.2  Type=RHF/CANONICAL (state 1.1)

 MP2-F12 correlation treatment (H.-J. Werner, 2006)
 ==================================================

 Using MP2-F12 with ansatz 3C(FIX)

 Using projected zeroth-order Hamiltonian (+Z)

 FOCKRIB=T FOCKRIC=T FOCKRIP=T CABSP=T CABSA=T CABSK=T CABSF=T GBC=F EBC=F DMAT=T NOFIK=T NOPAO=1 SOLVE=-1  USEPAO=0
 EXCH_A= T EXCH_B= F EXCH_C= F EXCH_P= F

 Geminal basis:    OPTFULL  GEM_TYPE=SLATER  BETA=1.0  NGEM=6

 Optimizing Gaussian exponents for each gem_beta

 Geminal optimization for beta= 1.0000
 Weight function:   m=0, omega= 1.4646

 Augmented Hessian optimization of geminal fit. Trust ratio= 0.40000
 Convergence reached after   2 iterations. Final gradient= 7.85D-16, Step= 4.26D-06, Delta= 1.28D-09

 Alpha:                 0.19532     0.81920     2.85917     9.50073    35.69989   197.79328
 Coeff:                 0.27070     0.30552     0.18297     0.10986     0.06810     0.04224


 All pairs explicitly correlated. Number of r12-pairs:           10

 Excluding core orbitals from MO domains

 AO(A)-basis ORBITAL           loaded. Number of functions:     436
 RI(R)-basis RI                loaded. Number of functions:     730
 DF-basis JKFIT                loaded. Number of functions:    1104

 Screening thresholds:   THRAO=  1.00D-10  THRMO=  1.00D-09  THRPROD=  1.00D-09
                         THRSW=  1.00D-05  THROV=  1.00D-12  THRAOF12= 1.00D-10

 CPU time for Fock operators                     10.37 sec

 Construction of ABS:
 Smallest eigenvalue of S          2.26E-04  (threshold= 1.00E-08)
 Ratio eigmin/eigmax               3.94E-05  (threshold= 1.00E-09)
 Smallest eigenvalue of S kept     2.26E-04  (threshold= 2.26E-04, 0 functions deleted, 730 kept)

 Construction of CABS:
 Smallest eigenvalue of S          1.56E-08  (threshold= 1.00E-08)
 Ratio eigmin/eigmax               1.56E-08  (threshold= 1.00E-09)
 Smallest eigenvalue of S kept     1.56E-08  (threshold= 1.56E-08, 0 functions deleted, 730 kept)

 CPU time for CABS singles                        2.37 sec

 CABS-singles contribution of  -0.00024466 patched into reference energy.
 New reference energy         -40.21619578

 AO(A)-basis ORBITAL           loaded. Number of functions:     436
 RI(R)-basis RI                loaded. Number of functions:     730
 DF-basis MP2FIT               loaded. Number of functions:    1246

 Screening thresholds:   THRAO=  1.00D-10  THRMO=  1.00D-09  THRPROD=  1.00D-09
                         THRSW=  1.00D-05  THROV=  1.00D-12  THRAOF12= 1.00D-10

 CPU time for 3-index integral evaluation        19.90 sec
 CPU time for first  half transformation          4.80 sec ( 1366.4 MFLOP/sec)
 CPU time for second half transformation          0.05 sec (  766.0 MFLOP/sec)
 CPU time for sorting                             0.06 sec
 CPU time for fitting                             1.12 sec ( 5270.2 MFLOP/sec)
 CPU time for tilde quantities                    1.43 sec ( 6010.3 MFLOP/sec)
 CPU time for assembly                            4.90 sec ( 3992.3 MFLOP/sec)
 CPU time for tranop_f12                          4.50 sec ( 3447.7 MFLOP/sec)
 CPU time for f12 integrals (total)              44.21 sec, Elapsed time:     46.09 sec
 F12-matrices built in  4 passes.
 F12-matrices built in  4 passes.
 F12-matrices built in  4 passes.
 F12-matrices built in  4 passes.
 FC-matrix built in  4 passes.
 CPU time for f12 matrices (total)                1.74 sec, Elapsed time:      1.78 sec

 Diagonal F12 approximation with fixed coefficients:  TSING= 0.500,  TTRIP= 0.250 (scaled by -1/beta)

 DF-MP2-F12 energy corrections:
 ==============================
 Approx.                                    Singlet             Triplet             Total
 DF-MP2-F12/3*C(DX,FIX)                -0.007494511444     -0.000574870326     -0.008069381770
 DF-MP2-F12/3*C(FIX)                   -0.007047418133     -0.000473505942     -0.007520924075
 DF-MP2-F12/3C(FIX)                    -0.007076168317     -0.000486992738     -0.007563161055

 DF-MP2-F12 correlation energies:
 ================================
 Approx.                                    Singlet             Triplet             Ecorr            Total Energy
 DF-MP2                                -0.154421908512     -0.056463868174     -0.210885776687    -40.427081553727
 DF-MP2-F12/3*C(DX,FIX)                -0.161916419956     -0.057038738500     -0.218955158457    -40.435150935497
 DF-MP2-F12/3*C(FIX)                   -0.161469326645     -0.056937374117     -0.218406700762    -40.434602477803
 DF-MP2-F12/3C(FIX)                    -0.161498076830     -0.056950860912     -0.218448937742    -40.434644714782

 SCS-DF-MP2 energies (F_SING= 1.20000  F_TRIP= 0.62222  F_PARALLEL= 0.33333):
 ============================================================================
 SCS-DF-MP2                            -0.220439363746    -40.436635140786
 SCS-DF-MP2-F12/3*C(DX,FIX)            -0.229790474570    -40.445986251610
 SCS-DF-MP2-F12/3*C(FIX)               -0.229190891425    -40.445386668465
 SCS-DF-MP2-F12/3C(FIX)                -0.229233783430    -40.445429560470
 Symmetry transformation completed.

 Number of N-1 electron functions:               4
 Number of N-2 electron functions:              10
 Number of singly external CSFs:              1724
 Number of doubly external CSFs:           1486950
 Total number of CSFs:                     1488675

 Pair and operator lists are different

 Length of J-op  integral file:             203.65 MB
 Length of K-op  integral file:             338.08 MB
 Length of 3-ext integral record:             0.00 MB

 Memory could be reduced to 526.20 Mwords without degradation in triples

 Integral transformation finished. Total CPU: 196.77 sec, npass=  1  Memory used: 214.75 MW

 Reference energy:                    -40.21619578

 Adding F12 terms to K(Cij), methodcc=6,  factor= 1.0

 ITER.      SQ.NORM     CORR.ENERGY   TOTAL ENERGY   ENERGY CHANGE        DEN1      VAR(S)    VAR(P)  DIIS     TIME  TIME/IT
   1      1.07024039    -0.22511973   -40.44131550    -0.01422859    -0.00847423  0.63D-03  0.94D-03  1  1   315.62    57.32
   2      1.07517106    -0.22596978   -40.44216556    -0.00085006    -0.00530355  0.15D-04  0.10D-03  2  2   370.83    57.82
   3      1.07679388    -0.22605759   -40.44225336    -0.00008780    -0.00117754  0.22D-05  0.59D-05  3  3   425.86    58.00
   4      1.07717688    -0.22606489   -40.44226067    -0.00000730    -0.00020555  0.14D-06  0.33D-06  4  4   480.98    58.09
   5      1.07722894    -0.22606652   -40.44226229    -0.00000163    -0.00000894  0.11D-07  0.21D-07  5  5   536.08    58.15
   6      1.07723753    -0.22606522   -40.44226100     0.00000129    -0.00000327  0.77D-09  0.16D-08  6  6   591.49    58.25
   7      1.07723888    -0.22606490   -40.44226067     0.00000033    -0.00000085  0.51D-10  0.12D-09  6  1   646.73    58.31
   8      1.07723885    -0.22606497   -40.44226074    -0.00000007     0.00000020  0.53D-11  0.72D-11  6  3   702.15    58.32
   9      1.07723899    -0.22606495   -40.44226073     0.00000002    -0.00000009  0.39D-12  0.58D-12  6  2   757.63    58.35
  10      1.07723899    -0.22606495   -40.44226072     0.00000000     0.00000001  0.51D-13  0.59D-13  6  4   812.65    58.37
  11      1.07723899    -0.22606495   -40.44226072     0.00000000     0.00000000  0.47D-14  0.58D-14  6  5   868.20    58.39
  12      1.07723899    -0.22606495   -40.44226072     0.00000000     0.00000000  0.11D-15  0.63D-15  6  6   923.69    58.42
  13      1.07723899    -0.22606495   -40.44226072    -0.00000000     0.00000000  0.75D-17  0.66D-16  6  1   978.76    58.42
  14      1.07723899    -0.22606495   -40.44226072    -0.00000000     0.00000000  0.11D-17  0.83D-17  6  3  1034.02    58.43

 Norm of t1 vector:      0.03291683      S-energy:    -0.00000000      T1 diagnostic:  0.00822921
                                                                       D1 diagnostic:  0.01319209

 Adding energy correction from Wij-K(Fij), methodcc=6  factor= 1.0

  CCSD correlation energy              -0.226064945146
  MP2-F12 correction (uncoupled)       -0.007439426707
  C*T doubles correction               -0.000126685426
  f12b correction                       0.001937031752

 Total CPU time for triples:    490.21 sec

  Ecorr(MP2)                           -0.210891136149
  Ecorr(MP2-F12)                       -0.218454297204
  Scale factor for triples energy       1.035862868364


 RESULTS
 =======

  Reference energy                    -40.215951120758
  F12 singles correction               -0.000244656283

 F12 singles corrections added to reference energy

  New reference energy                -40.216195777040

  F12a singlet correction              -0.007076698331
  F12a triplet correction              -0.000489413801
  F12a total correction                -0.007566112132

 F12a corrections for ansatz F12/3C(FIX) added to CCSD energy

  CCSD-F12a singlet pair energy        -0.178450154010
  CCSD-F12a triplet pair energy        -0.055180903264
  CCSD-F12a correlation energy         -0.233631057278

  Triples (T) contribution (scaled)    -0.007053003595
  Total correlation energy             -0.240684060872

  CCSD-F12a total energy              -40.449826834318
  CCSD[T]-F12a energy                 -40.457116369538
  CCSD-T-F12a energy                  -40.456809983116
 !CCSD(T)-F12a total energy           -40.456879837913

 F12b corrections for ansatz F12/3C(FIX) added to CCSD(T)-F12a energy

  CCSD-F12b singlet pair energy        -0.176580709114
  CCSD-F12b triplet pair energy        -0.055113316408
  CCSD-F12b correlation energy         -0.231694025526

  Triples (T) contribution (scaled)    -0.007053003595
  Total correlation energy             -0.238747029121

  CCSD-F12b total energy              -40.447889802567
  CCSD[T]-F12b energy                 -40.455179337787
  CCSD-T-F12b energy                  -40.454872951365
 !CCSD(T)-F12b total energy           -40.454942806161

 Timing summary (sec):

 STEP                 CPU(USER)    SYS     CPU(TOT)    WALL
 Transformation        197.12      8.92    206.04    206.39
 CCSD iterations       772.88     44.05    816.93    818.20
 Triples               490.21      7.26    497.47    498.23
 MP2-F12                64.11      2.12     66.23     66.54
 F12b energy            50.89      2.77     53.66     53.73

 Program statistics:

 Available memory in ccsd:              1999999866
 Min. memory needed in ccsd:               6763924
 Max. memory used in ccsd:                 7862874
 Max. memory used in cckext:               5171974 (15 integral passes)



 **********************************************************************************************************************************
 DATASETS  * FILE   NREC   LENGTH (MB)   RECORD NAMES
              1      19     1346.98       500      610      700      900      950      970     1000      129      960     1100   
                                          VAR    BASINP    GEOM    SYMINP    ZMAT    AOBASIS   BASIS     P2S    ABASIS      S 
                                         1400     1410     1200     1210     1080     1600     1650     1700     1380   
                                           T        V       H0       H01     AOSYM     SMH    MOLCAS    OPER     JKOP   

              2       9       27.51       700     1000      520     2100     7360     7350      200     2101     2102   
                                         GEOM     BASIS   MCVARS     RHF    F12ABS    EF12    OPTIONS    RHF      RHF  

 PROGRAMS   *        TOTAL   CCSD(T)    HF-SCF       INT   CCSD(T)    HF-SCF       INT   CCSD(T)    HF-SCF       INT
 CPU TIMES  *     11364.46   1575.45    247.22      0.41   1692.26    292.70      0.40   7038.29    294.37    223.06
 REAL TIME  *     11848.41 SEC
 DISK USED  *         3.24 GB (local),       81.58 GB (total)
 SF USED    *         5.12 GB
 GA USED    *         4.87 MB       (max)       0.00 MB       (current)
 **********************************************************************************************************************************
 Molecular orbitals read from record     2102.2  Type=RHF/CANONICAL (state 1.1)
 Occupation numbers read from record     2102.2  Type=RHF/RHF (state 1.1)
 Orbital energies read from record       2102.2  Type=RHF/CANONICAL (state 1.1)
 Redundancy group numbers read from rec  2102.2  Type=RHF/RHF (state 1.1)

 CCSD(T)-F12/aug-cc-pVQZ energy=    -40.454942806161

     CCSD(T)-F12          HF-SCF     CCSD(T)-F12          HF-SCF     CCSD(T)-F12          HF-SCF
    -40.45494281    -40.21595112    -76.37143097    -76.06401848   -116.82712647   -116.27987020
 **********************************************************************************************************************************
 Molpro calculation terminated
