
 Primary working directories    : /scratch/klimes/383238/molpro.l2pRSwDNJV
 Secondary working directories  : /scratch/klimes/383238/molpro.l2pRSwDNJV
 Wavefunction directory         : /scratch/klimes/383238/
 Main file repository           : /scratch/klimes/383238/molpro.l2pRSwDNJV/

 id        : karlovklimes

 Nodes                      nprocs
 nc-20.cc.karlov.mff.cuni.cz    4

 Using customized tuning parameters: mindgm=1; mindgv=20; mindgc=4; mindgr=1; noblas=0; minvec=7
 default implementation of scratch files=sf  


 Variables initialized (930), CPU time= 0.01 sec
                                                                                 !gdirect
 memory,2000,m
 gthresh,orbital=1d-10,energy=1d-10,grid=1d-8
 
 symmetry,nosym
 angstrom
 geometry={
 O7        -2.308700000000     -1.513700000000      3.385000000000
 H13        -2.780100000000     -1.810400000000      2.580800000000
 H14        -2.957300000000     -0.995700000000      3.906300000000
 C1        -3.277200000000      1.482500000000      1.271900000000
 H41        -2.464000000000      0.899600000000      1.651000000000
 H42        -3.160800000000      2.501000000000      1.578500000000
 H43        -4.201800000000      1.099200000000      1.650100000000
 H44        -3.268500000000      1.421000000000      0.203700000000
 }
 
 nkerna=1
 nkernb=1
 
 gf=0
 sing=1
 thrdum=1d-4
 gridthr=1d-8
 
 basis={
 set,orbital
 default,avqz
 set,jkfit
 default,av5z/jkfit
 set,mp2fit
 default,av5z/mp2fit
 set,ri
 default,av5z/optri
 set,tddft
 default,av5z/mp2fit
 }
 
 proc set_monomer1
 dummy,4,5,6,7,8
 endproc
 
 proc set_monomer2
 dummy,1,2,3
 endproc
 
                                                                                 !12 energy
 {hf,accu=1.d-16}
 {ccsd(t)-f12,df_basis=mp2fit,df_basis_exch=jkfit,ri_basis=ri,scale_trip=1,THRAOF12=1d-10}
 
 set_monomer1
 {hf,accu=1.d-16}
 {ccsd(t)-f12,df_basis=mp2fit,df_basis_exch=jkfit,ri_basis=ri,scale_trip=1,THRAOF12=1d-10}
 
 set_monomer2
 {hf,accu=1.d-16}
 {ccsd(t)-f12,df_basis=mp2fit,df_basis_exch=jkfit,ri_basis=ri,scale_trip=1,THRAOF12=1d-10}
 
 Commands  initialized (760), CPU time= 0.02 sec, 617 directives.
 Default parameters read. Elapsed time= 0.22 sec

 Checking input...
 Passed
1


                                         ***  PROGRAM SYSTEM MOLPRO  ***
                                       Copyright, TTI GmbH Stuttgart, 2015
                                    Version 2019.1 linked Jan 14 2019 13:09:19


 **********************************************************************************************************************************
 LABEL *                                                                                 
  64 bit mpp version                                                                     DATE: 11-Mar-20          TIME: 16:36:28  
 **********************************************************************************************************************************

 SHA1:             d688ac825633d238f2093ded1675ba87ccd55965
 **********************************************************************************************************************************

 THRESHOLDS:

 ZERO    =  1.00D-12  ONEINT  =  1.00D-12  TWOINT  =  1.00D-11  PREFAC  =  1.00D-14  XXXXXX  =  1.00D-09  EORDER  =  1.00D-04
 ENERGY  =  1.00D-10  ETEST   =  0.00D+00  EDENS   =  0.00D+00  THRDEDEF=  1.00D-06  GRADIENT=  1.00D-02  STEP    =  1.00D-03
 ORBITAL =  1.00D-10  CIVEC   =  1.00D-05  COEFF   =  1.00D-04  PRINTCI =  5.00D-02  PUNCHCI =  9.90D+01  OPTGRAD =  3.00D-04
 OPTENERG=  1.00D-06  OPTSTEP =  3.00D-04  THRGRAD =  1.00D-10  COMPRESS=  1.00D-11  VARMIN  =  1.00D-07  VARMAX  =  1.00D-03
 THRDOUB =  0.00D+00  THRDIV  =  1.00D-05  THRRED  =  1.00D-07  THRPSP  =  1.00D+00  THRDC   =  1.00D-10  THRCS   =  1.00D-10
 THRNRM  =  1.00D-08  THREQ   =  0.00D+00  THRDE   =  1.00D+00  THRREF  =  1.00D-05  SPARFAC =  1.00D+00  THRDLP  =  1.00D-07
 THRDIA  =  1.00D-10  THRDLS  =  1.00D-07  THRGPS  =  0.00D+00  THRKEX  =  0.00D+00  THRDIS  =  2.00D-01  THRVAR  =  1.00D-10
 THRLOC  =  1.00D-06  THRGAP  =  1.00D-06  THRLOCT = -1.00D+00  THRGAPT = -1.00D+00  THRORB  =  1.00D-06  THRMLTP =  0.00D+00
 THRCPQCI=  1.00D-10  KEXTA   =  0.00D+00  THRCOARS=  0.00D+00  SYMTOL  =  1.00D-06  GRADTOL =  1.00D-06  THROVL  =  1.00D-08
 THRORTH =  1.00D-08  GRID    =  1.00D-08  GRIDMAX =  1.00D-03  DTMAX   =  0.00D+00  THROCCDE=  1.00D-01  THROCCDE=  1.00D-01
 THRPRINT=  2.50D-01


 Variable memory set to 2000000000 words,  buffer space 

 ZSYMEL=NOSYM
 ZUNIT=ANG


Geometry recognized as XYZ

 SETTING NKERNA         =         1.00000000                                  
 SETTING NKERNB         =         1.00000000                                  
 SETTING GF             =     0.00000000D+00                                  
 SETTING SING           =         1.00000000                                  
 SETTING THRDUM         =     1.00000000D-04                                  
 SETTING GRIDTHR        =     1.00000000D-08                                  
 SETTING BASIS          =    AVQZ


 Recomputing integrals since basis changed


 Using spherical harmonics

 Library entry O      S aug-cc-pVQZ          selected for orbital group  1
 Library entry O      P aug-cc-pVQZ          selected for orbital group  1
 Library entry O      D aug-cc-pVQZ          selected for orbital group  1
 Library entry O      F aug-cc-pVQZ          selected for orbital group  1
 Library entry O      G aug-cc-pVQZ          selected for orbital group  1
 Library entry H      S aug-cc-pVQZ          selected for orbital group  2
 Library entry H      P aug-cc-pVQZ          selected for orbital group  2
 Library entry H      D aug-cc-pVQZ          selected for orbital group  2
 Library entry H      F aug-cc-pVQZ          selected for orbital group  2
 Library entry C      S aug-cc-pVQZ          selected for orbital group  3
 Library entry C      P aug-cc-pVQZ          selected for orbital group  3
 Library entry C      D aug-cc-pVQZ          selected for orbital group  3
 Library entry C      F aug-cc-pVQZ          selected for orbital group  3
 Library entry C      G aug-cc-pVQZ          selected for orbital group  3


 PROGRAM * SEWARD (Integral evaluation for generally contracted gaussian basis sets)     Author: Roland Lindh, 1990

 Geometry written to block  1 of record 700


 Point group  C1  



 ATOMIC COORDINATES

 NR  ATOM    CHARGE       X              Y              Z

   1  O7      8.00   -4.362810704   -2.860478435    6.396722932
   2  H13     1.00   -5.253627599   -3.421160176    4.877005182
   3  H14     1.00   -5.588487068   -1.881600302    7.381837160
   4  C1      6.00   -6.193010455    2.801518980    2.403542658
   5  H41     1.00   -4.656285171    1.699997622    3.119937832
   6  H42     1.00   -5.973046335    4.726205038    2.982932688
   7  H43     1.00   -7.940251230    2.077186956    3.118237078
   8  H44     1.00   -6.176569838    2.685300823    0.384937212

 Bond lengths in Bohr (Angstrom)

 1-2  1.848637551  1-3  1.852278325  4-5  2.021904040  4-6  2.022002335  4-7  2.021953343
     ( 0.978256863)     ( 0.980183478)     ( 1.069945541)     ( 1.069997556)     ( 1.069971630)

 4-8  2.022015060
     ( 1.070004290)

 Bond angles

  2-1-3  106.17843926   5-4-6  109.53398059   5-4-7  109.65604535   5-4-8  108.43490854

  6-4-7  109.49436728   6-4-8  109.86987750   7-4-8  109.83468330

 NUCLEAR CHARGE:                   20
 NUMBER OF PRIMITIVE AOS:         578
 NUMBER OF SYMMETRY AOS:          474
 NUMBER OF CONTRACTIONS:          436   (  436A   )
 NUMBER OF CORE ORBITALS:           2   (    2A   )
 NUMBER OF VALENCE ORBITALS:       14   (   14A   )


 NUCLEAR REPULSION ENERGY   36.78088270


 Basis set:  JKFIT                   
 Basis size:  1104
 Attributes:
 Sphericals:   T
 Basis set:  MP2FIT                  
 Basis size:  1246
 Attributes:
 Sphericals:   T
 Basis set:  RI                      
 Basis size:   730
 Attributes:
 Sphericals:   T
 Basis set:  TDDFT                   
 Basis size:  1246
 Attributes:
 Sphericals:   T

 **********************************************************************************************************************************


 Eigenvalues of metric

         1 0.157E-04 0.310E-04 0.321E-04 0.350E-04 0.619E-04 0.857E-04 0.990E-04 0.105E-03


 Contracted 2-electron integrals neglected if value below      1.0D-14
 AO integral compression algorithm  1   Integral accuracy      1.0D-14

     23936.631 MB (compressed) written to integral file ( 59.7%)

     Node minimum: 5293.474 MB, node maximum: 6725.304 MB


 NUMBER OF SORTED TWO-ELECTRON INTEGRALS: 1134451344.     BUFFER LENGTH:  32768
 NUMBER OF SEGMENTS:  36  SEGMENT LENGTH:   31999984      RECORD LENGTH: 524288

 Memory used in sort:      32.56 MW

 SORT1 READ  5012305700. AND WROTE   986477269. INTEGRALS IN   2840 RECORDS. CPU TIME:   113.50 SEC, REAL TIME:   132.97 SEC
 SORT2 READ  3945906279. AND WROTE  4537853011. INTEGRALS IN  80772 RECORDS. CPU TIME:    19.65 SEC, REAL TIME:    29.05 SEC

 Node minimum:  1134427528.  Node maximum:  1134498978. integrals

 OPERATOR DM      FOR CENTER  0  COORDINATES:    0.000000    0.000000    0.000000


 **********************************************************************************************************************************
 DATASETS  * FILE   NREC   LENGTH (MB)   RECORD NAMES
              1      18       37.12       500      610      700      900      950      970     1000      129      960     1100   
                                          VAR    BASINP    GEOM    SYMINP    ZMAT    AOBASIS   BASIS     P2S    ABASIS      S 
                                         1400     1410     1200     1210     1080     1600     1650     1700   
                                           T        V       H0       H01     AOSYM     SMH    MOLCAS    OPER   

 PROGRAMS   *        TOTAL       INT
 CPU TIMES  *       199.60    199.36
 REAL TIME  *       240.56 SEC
 DISK USED  *        37.64 MB (local),       71.44 GB (total)
 GA USED    *         0.00 MB       (max)       0.00 MB       (current)
 **********************************************************************************************************************************


 PROGRAM * RHF-SCF (CLOSED SHELL)       Authors: W. Meyer, H.-J. Werner


 NUMBER OF ELECTRONS:      10+   10-    SPACE SYMMETRY=1    SPIN SYMMETRY: Singlet 
 CONVERGENCE THRESHOLDS:    1.00E-08 (Density)    1.00E-11 (Energy)
 MAX. NUMBER OF ITERATIONS:       60
 INTERPOLATION TYPE:            DIIS
 INTERPOLATION STEPS:              2 (START)      1 (STEP)
 LEVEL SHIFTS:                  0.00 (CLOSED)  0.00 (OPEN) 



 Orbital guess generated from atomic densities. Full valence occupancy:   16

 Molecular orbital dump at record        2100.2

 Initial occupancy:  10

 ITERATION    DDIFF          GRAD             ENERGY        2-EL.EN.            DIPOLE MOMENTS         DIIS   ORB.
    1      0.000D+00      0.000D+00      -116.22150858    158.982994   -1.08117    0.20865   -0.27221    0    start
    2      0.000D+00      0.377D-02      -116.26519786    154.179091   -0.59324    0.13870   -0.16369    1    diag
    3      0.272D-02      0.221D-02      -116.27854017    156.187361   -0.71520    0.15433   -0.18965    2    diag
    4      0.939D-03      0.330D-03      -116.27919666    156.074829   -0.70407    0.15098   -0.18637    3    diag
    5      0.203D-03      0.966D-04      -116.27926556    156.069149   -0.70307    0.15119   -0.18637    4    diag
    6      0.816D-04      0.237D-04      -116.27926951    156.074813   -0.70210    0.15111   -0.18624    5    diag
    7      0.222D-04      0.481D-05      -116.27926975    156.073137   -0.70207    0.15113   -0.18625    6    diag
    8      0.650D-05      0.124D-05      -116.27926977    156.073315   -0.70199    0.15114   -0.18625    7    diag
    9      0.139D-05      0.285D-06      -116.27926977    156.073287   -0.70197    0.15113   -0.18624    8    diag
   10      0.409D-06      0.346D-07      -116.27926977    156.073289   -0.70197    0.15113   -0.18624    9    orth
   11      0.449D-07      0.859D-08      -116.27926977    156.073290   -0.70197    0.15113   -0.18624    9    diag
   12      0.102D-07      0.226D-08      -116.27926977    156.073289   -0.70197    0.15113   -0.18624    9    diag
   13      0.297D-08      0.581D-09      -116.27926977    156.073290   -0.70197    0.15113   -0.18624    0    orth

 Final occupancy:  10

 !RHF STATE  1.1 Energy              -116.279269773689
 Nuclear energy                        36.78088270
 One-electron energy                 -231.09679737
 Two-electron energy                   78.03664490
 Virial quotient                       -1.00073700
 !RHF STATE  1.1 Dipole moment         -0.70197396     0.15113492    -0.18624413
 Dipole moment /Debye                  -1.78412299     0.38412149    -0.47335436

 Orbital energies:

         1.1          2.1          3.1          4.1          5.1          6.1          7.1          8.1          9.1         10.1
    -20.567195   -11.198412    -1.340462    -0.953495    -0.708722    -0.577785    -0.554902    -0.553260    -0.550776    -0.506744

        11.1         12.1
      0.022895     0.037239


 HOMO     10.1    -0.506744 =     -13.7892eV
 LUMO     11.1     0.022895 =       0.6230eV
 LUMO-HOMO         0.529639 =      14.4122eV


 **********************************************************************************************************************************
 DATASETS  * FILE   NREC   LENGTH (MB)   RECORD NAMES
              1      18       37.12       500      610      700      900      950      970     1000      129      960     1100   
                                          VAR    BASINP    GEOM    SYMINP    ZMAT    AOBASIS   BASIS     P2S    ABASIS      S 
                                         1400     1410     1200     1210     1080     1600     1650     1700   
                                           T        V       H0       H01     AOSYM     SMH    MOLCAS    OPER   

              2       4        6.75       700     1000      520     2100   
                                         GEOM     BASIS   MCVARS     RHF  

 PROGRAMS   *        TOTAL    HF-SCF       INT
 CPU TIMES  *       424.98    225.38    199.36
 REAL TIME  *       487.57 SEC
 DISK USED  *        57.70 MB (local),       71.52 GB (total)
 SF USED    *         0.76 MB
 GA USED    *         0.00 MB       (max)       0.00 MB       (current)
 **********************************************************************************************************************************

 Basis set:  JKFIT                   
 Basis size:  1104
 Attributes:
 Sphericals:   T
 Basis set:  MP2FIT                  
 Basis size:  1246
 Attributes:
 Sphericals:   T
 Basis set:  RI                      
 Basis size:   730
 Attributes:
 Sphericals:   T
 Basis set:  TDDFT                   
 Basis size:  1246
 Attributes:
 Sphericals:   T

 PROGRAM * CCSD (Closed-shell coupled cluster)     Authors: C. Hampel, H.-J. Werner, 1991, M. Deegan, P.J. Knowles, 1992

                                  CCSD-F12 implementation by  H.-J. Werner, 2007

                   Density fitting integral evaluation by F.R. Manby, 2003,2007, G. Knizia, 2010



 Convergence thresholds:  THRVAR = 1.00D-08  THRDEN = 1.00D-10

 CCSD(T)     terms to be evaluated (factor= 1.000)


 Number of core orbitals:           2 (   2 )
 Number of closed-shell orbitals:   8 (   8 )
 Number of external orbitals:     426 ( 426 )

 Molecular orbitals read from record     2100.2  Type=RHF/CANONICAL (state 1.1)

 MP2-F12 correlation treatment (H.-J. Werner, 2006)
 ==================================================

 Using MP2-F12 with ansatz 3C(FIX)

 Using projected zeroth-order Hamiltonian (+Z)

 FOCKRIB=T FOCKRIC=T FOCKRIP=T CABSP=T CABSA=T CABSK=T CABSF=T GBC=F EBC=F DMAT=T NOFIK=T NOPAO=1 SOLVE=-1  USEPAO=0
 EXCH_A= T EXCH_B= F EXCH_C= F EXCH_P= F

 Geminal basis:    OPTFULL  GEM_TYPE=SLATER  BETA=1.0  NGEM=6

 Optimizing Gaussian exponents for each gem_beta

 Geminal optimization for beta= 1.0000
 Weight function:   m=0, omega= 1.4646

 Augmented Hessian optimization of geminal fit. Trust ratio= 0.40000
 Convergence reached after   2 iterations. Final gradient= 7.85D-16, Step= 4.26D-06, Delta= 1.28D-09

 Alpha:                 0.19532     0.81920     2.85917     9.50073    35.69989   197.79328
 Coeff:                 0.27070     0.30552     0.18297     0.10986     0.06810     0.04224


 All pairs explicitly correlated. Number of r12-pairs:           36

 Excluding core orbitals from MO domains

 AO(A)-basis ORBITAL           loaded. Number of functions:     436
 RI(R)-basis RI                loaded. Number of functions:     730
 DF-basis JKFIT                loaded. Number of functions:    1104

 Screening thresholds:   THRAO=  1.00D-10  THRMO=  1.00D-09  THRPROD=  1.00D-09
                         THRSW=  1.00D-05  THROV=  1.00D-12  THRAOF12= 1.00D-10

 CPU time for Fock operators                     11.58 sec

 Construction of ABS:
 Smallest eigenvalue of S          2.26E-04  (threshold= 1.00E-08)
 Ratio eigmin/eigmax               3.93E-05  (threshold= 1.00E-09)
 Smallest eigenvalue of S kept     2.26E-04  (threshold= 2.26E-04, 0 functions deleted, 730 kept)

 Construction of CABS:
 Smallest eigenvalue of S          1.53E-08  (threshold= 1.00E-08)
 Ratio eigmin/eigmax               1.53E-08  (threshold= 1.00E-09)
 Smallest eigenvalue of S kept     1.53E-08  (threshold= 1.53E-08, 0 functions deleted, 730 kept)

 CPU time for CABS singles                        2.14 sec

 CABS-singles contribution of  -0.00053680 patched into reference energy.
 New reference energy        -116.27980658

 AO(A)-basis ORBITAL           loaded. Number of functions:     436
 RI(R)-basis RI                loaded. Number of functions:     730
 DF-basis MP2FIT               loaded. Number of functions:    1246

 Screening thresholds:   THRAO=  1.00D-10  THRMO=  1.00D-09  THRPROD=  1.00D-09
                         THRSW=  1.00D-05  THROV=  1.00D-12  THRAOF12= 1.00D-10

 CPU time for 3-index integral evaluation        18.99 sec
 CPU time for first  half transformation          4.75 sec ( 2744.5 MFLOP/sec)
 CPU time for second half transformation          0.09 sec ( 1696.7 MFLOP/sec)
 CPU time for sorting                             0.18 sec
 CPU time for fitting                             1.74 sec ( 4268.5 MFLOP/sec)
 CPU time for tilde quantities                    2.24 sec ( 4496.8 MFLOP/sec)
 CPU time for assembly                           16.07 sec ( 4413.1 MFLOP/sec)
 CPU time for tranop_f12                         15.70 sec ( 4390.1 MFLOP/sec)
 CPU time for f12 integrals (total)              81.67 sec, Elapsed time:     84.47 sec
 F12-matrices built in  4 passes.
 F12-matrices built in  4 passes.
 F12-matrices built in  4 passes.
 F12-matrices built in  4 passes.
 FC-matrix built in  4 passes.
 CPU time for f12 matrices (total)                5.78 sec, Elapsed time:      5.91 sec

 Diagonal F12 approximation with fixed coefficients:  TSING= 0.500,  TTRIP= 0.250 (scaled by -1/beta)

 DF-MP2-F12 energy corrections:
 ==============================
 Approx.                                    Singlet             Triplet             Total
 DF-MP2-F12/3*C(DX,FIX)                -0.021224031202     -0.002110057660     -0.023334088861
 DF-MP2-F12/3*C(FIX)                   -0.019155720020     -0.001555840779     -0.020711560799
 DF-MP2-F12/3C(FIX)                    -0.019171142046     -0.001607207012     -0.020778349058

 DF-MP2-F12 correlation energies:
 ================================
 Approx.                                    Singlet             Triplet             Ecorr            Total Energy
 DF-MP2                                -0.340783037190     -0.158493942417     -0.499276979607   -116.779083557295
 DF-MP2-F12/3*C(DX,FIX)                -0.362007068392     -0.160604000077     -0.522611068469   -116.802417646156
 DF-MP2-F12/3*C(FIX)                   -0.359938757210     -0.160049783197     -0.519988540406   -116.799795118093
 DF-MP2-F12/3C(FIX)                    -0.359954179236     -0.160101149429     -0.520055328665   -116.799861906352

 SCS-DF-MP2 energies (F_SING= 1.20000  F_TRIP= 0.62222  F_PARALLEL= 0.33333):
 ============================================================================
 SCS-DF-MP2                            -0.507558097688   -116.787364675375
 SCS-DF-MP2-F12/3*C(DX,FIX)            -0.534339859896   -116.814146437583
 SCS-DF-MP2-F12/3*C(FIX)               -0.531513040418   -116.811319618106
 SCS-DF-MP2-F12/3C(FIX)                -0.531563508061   -116.811370085749
 Symmetry transformation completed.

 Number of N-1 electron functions:               8
 Number of N-2 electron functions:              36
 Number of singly external CSFs:              3408
 Number of doubly external CSFs:           5808936
 Total number of CSFs:                     5812345

 Pair and operator lists are different

 Length of J-op  integral file:               0.75 GB
 Length of K-op  integral file:               0.98 GB
 Length of 3-ext integral record:             0.00 MB

 Memory could be reduced to 828.63 Mwords without degradation in triples

 Integral transformation finished. Total CPU: 306.65 sec, npass=  1  Memory used: 389.45 MW

 Reference energy:                   -116.27980658

 Adding F12 terms to K(Cij), methodcc=6,  factor= 1.0

 ITER.      SQ.NORM     CORR.ENERGY   TOTAL ENERGY   ENERGY CHANGE        DEN1      VAR(S)    VAR(P)  DIIS     TIME  TIME/IT
   1      1.13404005    -0.51291677  -116.79272334    -0.01363049    -0.00171163  0.14D-02  0.20D-02  1  1   575.44   161.28
   2      1.14231054    -0.51356550  -116.79337207    -0.00064873    -0.01000168  0.30D-04  0.24D-03  2  2   737.19   162.62
   3      1.14535016    -0.51375699  -116.79356356    -0.00019149    -0.00213746  0.13D-04  0.14D-04  3  3   898.85   162.98
   4      1.14633170    -0.51377596  -116.79358254    -0.00001897    -0.00058425  0.67D-06  0.13D-05  4  4  1059.82   163.01
   5      1.14650151    -0.51377567  -116.79358225     0.00000029    -0.00004044  0.21D-06  0.91D-07  5  5  1220.97   163.09
   6      1.14654554    -0.51377280  -116.79357938     0.00000287    -0.00000630  0.22D-07  0.80D-08  6  6  1381.92   163.11
   7      1.14655736    -0.51377154  -116.79357812     0.00000126    -0.00000357  0.20D-08  0.86D-09  6  1  1543.01   163.16
   8      1.14655903    -0.51377155  -116.79357813    -0.00000001     0.00000031  0.38D-09  0.11D-09  6  3  1703.53   163.09
   9      1.14656024    -0.51377148  -116.79357806     0.00000007    -0.00000034  0.33D-10  0.18D-10  6  2  1864.78   163.11
  10      1.14656043    -0.51377148  -116.79357806     0.00000000     0.00000006  0.31D-11  0.21D-11  6  4  2026.31   163.15
  11      1.14656041    -0.51377149  -116.79357806    -0.00000000     0.00000005  0.58D-12  0.30D-12  6  5  2186.70   163.10
  12      1.14656040    -0.51377149  -116.79357807    -0.00000000     0.00000002  0.10D-12  0.37D-13  6  6  2347.65   163.10
  13      1.14656038    -0.51377149  -116.79357807    -0.00000000     0.00000001  0.18D-13  0.54D-14  6  1  2508.89   163.13
  14      1.14656037    -0.51377149  -116.79357807    -0.00000000     0.00000000  0.28D-14  0.12D-14  6  3  2670.05   163.15
  15      1.14656037    -0.51377149  -116.79357807    -0.00000000     0.00000000  0.28D-15  0.16D-15  6  2  2831.33   163.16
  16      1.14656037    -0.51377149  -116.79357807    -0.00000000    -0.00000000  0.36D-16  0.22D-16  6  4  2992.75   163.18
  17      1.14656037    -0.51377149  -116.79357807     0.00000000    -0.00000000  0.53D-17  0.35D-17  6  5  3154.17   163.20

 Norm of t1 vector:      0.04997735      S-energy:     0.00000000      T1 diagnostic:  0.00883483
                                                                       D1 diagnostic:  0.01934555

 Adding energy correction from Wij-K(Fij), methodcc=6  factor= 1.0

  CCSD correlation energy              -0.513771489329
  MP2-F12 correction (uncoupled)       -0.020212364411
  C*T doubles correction               -0.000547727928
  f12b correction                       0.004654741708

   CPU time for triples:   2088.52 sec for i =  1 -  7 /  8 (~  68.8 % done)
   CPU time for triples:    840.28 sec for i =  8 -  8 /  8 (  100.0 % done)

 Total CPU time for triples:   2934.09 sec

  Ecorr(MP2)                           -0.499286270725
  Ecorr(MP2-F12)                       -0.520064619783
  Scale factor for triples energy       1.041616103378


 RESULTS
 =======

  Reference energy                   -116.279269773692
  F12 singles correction               -0.000536803995

 F12 singles corrections added to reference energy

  New reference energy               -116.279806577687

  F12a singlet correction              -0.019141829890
  F12a triplet correction              -0.001618262449
  F12a total correction                -0.020760092339

 F12a corrections for ansatz F12/3C(FIX) added to CCSD energy

  CCSD-F12a singlet pair energy        -0.387876327760
  CCSD-F12a triplet pair energy        -0.146655253972
  CCSD-F12a correlation energy         -0.534531581669

  Triples (T) contribution (scaled)    -0.017148572546
  Total correlation energy             -0.551680154214

  CCSD-F12a total energy             -116.814338159356
  CCSD[T]-F12a energy                -116.832054199627
  CCSD-T-F12a energy                 -116.831272686920
 !CCSD(T)-F12a total energy          -116.831486731901

 F12b corrections for ansatz F12/3C(FIX) added to CCSD(T)-F12a energy

  CCSD-F12b singlet pair energy        -0.383436857328
  CCSD-F12b triplet pair energy        -0.146439982696
  CCSD-F12b correlation energy         -0.529876839961

  Triples (T) contribution (scaled)    -0.017148572546
  Total correlation energy             -0.547025412506

  CCSD-F12b total energy             -116.809683417648
  CCSD[T]-F12b energy                -116.827399457919
  CCSD-T-F12b energy                 -116.826617945212
 !CCSD(T)-F12b total energy          -116.826831990193

 Timing summary (sec):

 STEP                 CPU(USER)    SYS     CPU(TOT)    WALL
 Transformation        307.80      8.54    316.34    318.96
 CCSD iterations      2738.04     32.58   2770.62   2774.55
 Triples              2934.09      7.73   2941.82   2945.12
 MP2-F12               108.45      3.40    111.85    111.97
 F12b energy           138.00      1.18    139.18    139.34

 Program statistics:

 Available memory in ccsd:              1999999554
 Min. memory needed in ccsd:              16971337
 Max. memory used in ccsd:                21987113
 Max. memory used in cckext:              15122080 (18 integral passes)



 **********************************************************************************************************************************
 DATASETS  * FILE   NREC   LENGTH (MB)   RECORD NAMES
              1      19     2602.04       500      610      700      900      950      970     1000      129      960     1100   
                                          VAR    BASINP    GEOM    SYMINP    ZMAT    AOBASIS   BASIS     P2S    ABASIS      S 
                                         1400     1410     1200     1210     1080     1600     1650     1700     1380   
                                           T        V       H0       H01     AOSYM     SMH    MOLCAS    OPER     JKOP   

              2       6       10.56       700     1000      520     2100     7360     7350   
                                         GEOM     BASIS   MCVARS     RHF    F12ABS    EF12   

 PROGRAMS   *        TOTAL   CCSD(T)    HF-SCF       INT
 CPU TIMES  *      6651.62   6226.62    225.38    199.36
 REAL TIME  *      6778.93 SEC
 DISK USED  *         3.24 GB (local),       82.37 GB (total)
 SF USED    *         5.12 GB
 GA USED    *         4.87 MB       (max)       0.00 MB       (current)
 **********************************************************************************************************************************

 Running procedure: SET_MONOMER1

 Dummy atoms: C1  H41  H42  H43  H44


 Recomputing one-electron integrals since nuclear charges changed


 PROGRAM * SEWARD (Integral evaluation for generally contracted gaussian basis sets)     Author: Roland Lindh, 1990

 Geometry written to block  1 of record 700


 Point group  C1  



 ATOMIC COORDINATES

 NR  ATOM    CHARGE       X              Y              Z

   1  O7      8.00   -4.362810704   -2.860478435    6.396722932
   2  H13     1.00   -5.253627599   -3.421160176    4.877005182
   3  H14     1.00   -5.588487068   -1.881600302    7.381837160
   4  C1      0.00   -6.193010455    2.801518980    2.403542658
   5  H41     0.00   -4.656285171    1.699997622    3.119937832
   6  H42     0.00   -5.973046335    4.726205038    2.982932688
   7  H43     0.00   -7.940251230    2.077186956    3.118237078
   8  H44     0.00   -6.176569838    2.685300823    0.384937212

 Bond lengths in Bohr (Angstrom)

 1-2  1.848637551  1-3  1.852278325  4-5  2.021904040  4-6  2.022002335  4-7  2.021953343
     ( 0.978256863)     ( 0.980183478)     ( 1.069945541)     ( 1.069997556)     ( 1.069971630)

 4-8  2.022015060
     ( 1.070004290)

 Bond angles

  2-1-3  106.17843926   5-4-6  109.53398059   5-4-7  109.65604535   5-4-8  108.43490854

  6-4-7  109.49436728   6-4-8  109.86987750   7-4-8  109.83468330

 NUCLEAR CHARGE:                   10
 NUMBER OF PRIMITIVE AOS:         578
 NUMBER OF SYMMETRY AOS:          474
 NUMBER OF CONTRACTIONS:          436   (  436A   )
 NUMBER OF CORE ORBITALS:           1   (    1A   )
 NUMBER OF VALENCE ORBITALS:        6   (    6A   )

 MOLECULE CHANGED: INITIALIZING OCCUPATION AND DUMP RECORDS


 NUCLEAR REPULSION ENERGY    8.98445179

 Basis set:  JKFIT                   
 Basis size:  1104
 Attributes:
 Sphericals:   T
 Basis set:  MP2FIT                  
 Basis size:  1246
 Attributes:
 Sphericals:   T
 Basis set:  RI                      
 Basis size:   730
 Attributes:
 Sphericals:   T
 Basis set:  TDDFT                   
 Basis size:  1246
 Attributes:
 Sphericals:   T

 Eigenvalues of metric

         1 0.157E-04 0.310E-04 0.321E-04 0.350E-04 0.619E-04 0.857E-04 0.990E-04 0.105E-03


 Contracted 2-electron integrals neglected if value below      1.0D-14

 OPERATOR DM      FOR CENTER  0  COORDINATES:    0.000000    0.000000    0.000000


 **********************************************************************************************************************************
 DATASETS  * FILE   NREC   LENGTH (MB)   RECORD NAMES
              1      18       37.12       500      610      700      900      950      970     1000      129      960     1100   
                                          VAR    BASINP    GEOM    SYMINP    ZMAT    AOBASIS   BASIS     P2S    ABASIS      S 
                                         1400     1410     1200     1210     1080     1600     1650     1700   
                                           T        V       H0       H01     AOSYM     SMH    MOLCAS    OPER   

              2       7       10.59       700     1000      520     2100     7360     7350      200   
                                         GEOM     BASIS   MCVARS     RHF    F12ABS    EF12    OPTIONS    

 PROGRAMS   *        TOTAL       INT   CCSD(T)    HF-SCF       INT
 CPU TIMES  *      6652.02      0.40   6226.62    225.38    199.36
 REAL TIME  *      6780.22 SEC
 DISK USED  *         3.24 GB (local),       82.37 GB (total)
 SF USED    *         5.12 GB
 GA USED    *         4.87 MB       (max)       0.00 MB       (current)
 **********************************************************************************************************************************


 PROGRAM * RHF-SCF (CLOSED SHELL)       Authors: W. Meyer, H.-J. Werner


 NUMBER OF ELECTRONS:       5+    5-    SPACE SYMMETRY=1    SPIN SYMMETRY: Singlet 
 CONVERGENCE THRESHOLDS:    1.00E-08 (Density)    1.00E-11 (Energy)
 MAX. NUMBER OF ITERATIONS:       60
 INTERPOLATION TYPE:            DIIS
 INTERPOLATION STEPS:              2 (START)      1 (STEP)
 LEVEL SHIFTS:                  0.00 (CLOSED)  0.00 (OPEN) 



 Orbital guess generated from atomic densities. Full valence occupancy:    7

 Molecular orbital dump at record        2101.2

 Initial occupancy:   5

 ITERATION    DDIFF          GRAD             ENERGY        2-EL.EN.            DIPOLE MOMENTS         DIIS   ORB.
    1      0.000D+00      0.000D+00       -76.02508883     77.396609   -1.08699    0.21511   -0.27399    0    start
    2      0.000D+00      0.467D-02       -76.05177326     73.739347   -0.63186    0.12477   -0.15981    1    diag
    3      0.221D-02      0.297D-02       -76.06331607     75.361505   -0.74494    0.14715   -0.18828    2    diag
    4      0.840D-03      0.278D-03       -76.06351044     75.270356   -0.74031    0.14617   -0.18722    3    diag
    5      0.105D-03      0.777D-04       -76.06353130     75.284524   -0.73856    0.14580   -0.18682    4    diag
    6      0.320D-04      0.154D-04       -76.06353265     75.283496   -0.73817    0.14572   -0.18673    5    diag
    7      0.799D-05      0.313D-05       -76.06353272     75.283645   -0.73803    0.14569   -0.18670    6    diag
    8      0.221D-05      0.598D-06       -76.06353272     75.283630   -0.73799    0.14568   -0.18669    7    diag
    9      0.413D-06      0.814D-07       -76.06353272     75.283621   -0.73799    0.14568   -0.18669    8    diag
   10      0.541D-07      0.185D-07       -76.06353272     75.283625   -0.73799    0.14568   -0.18669    9    orth
   11      0.144D-07      0.304D-08       -76.06353272     75.283624   -0.73799    0.14568   -0.18669    9    diag
   12      0.254D-08      0.487D-09       -76.06353272     75.283624   -0.73799    0.14568   -0.18669    0    orth

 Final occupancy:   5

 !RHF STATE  1.1 Energy               -76.063532724888
 Nuclear energy                         8.98445179
 One-electron energy                 -122.68979645
 Two-electron energy                   37.64181194
 Virial quotient                       -1.00205904
 !RHF STATE  1.1 Dipole moment         -0.73798752     0.14567766    -0.18669361
 Dipole moment /Debye                  -1.87565431     0.37025141    -0.47449674

 Orbital energies:

         1.1          2.1          3.1          4.1          5.1          6.1          7.1
    -20.567753    -1.340635    -0.708953    -0.577539    -0.508207     0.017210     0.035495


 HOMO      5.1    -0.508207 =     -13.8290eV
 LUMO      6.1     0.017210 =       0.4683eV
 LUMO-HOMO         0.525417 =      14.2973eV


 **********************************************************************************************************************************
 DATASETS  * FILE   NREC   LENGTH (MB)   RECORD NAMES
              1      18       37.12       500      610      700      900      950      970     1000      129      960     1100   
                                          VAR    BASINP    GEOM    SYMINP    ZMAT    AOBASIS   BASIS     P2S    ABASIS      S 
                                         1400     1410     1200     1210     1080     1600     1650     1700   
                                           T        V       H0       H01     AOSYM     SMH    MOLCAS    OPER   

              2       8       17.39       700     1000      520     2100     7360     7350      200     2101   
                                         GEOM     BASIS   MCVARS     RHF    F12ABS    EF12    OPTIONS    RHF  

 PROGRAMS   *        TOTAL    HF-SCF       INT   CCSD(T)    HF-SCF       INT
 CPU TIMES  *      6866.98    214.96      0.40   6226.62    225.38    199.36
 REAL TIME  *      7015.60 SEC
 DISK USED  *         3.24 GB (local),       82.37 GB (total)
 SF USED    *         5.12 GB
 GA USED    *         4.87 MB       (max)       0.00 MB       (current)
 **********************************************************************************************************************************

 Basis set:  JKFIT                   
 Basis size:  1104
 Attributes:
 Sphericals:   T
 Basis set:  MP2FIT                  
 Basis size:  1246
 Attributes:
 Sphericals:   T
 Basis set:  RI                      
 Basis size:   730
 Attributes:
 Sphericals:   T
 Basis set:  TDDFT                   
 Basis size:  1246
 Attributes:
 Sphericals:   T

 PROGRAM * CCSD (Closed-shell coupled cluster)     Authors: C. Hampel, H.-J. Werner, 1991, M. Deegan, P.J. Knowles, 1992

                                  CCSD-F12 implementation by  H.-J. Werner, 2007

                   Density fitting integral evaluation by F.R. Manby, 2003,2007, G. Knizia, 2010



 Convergence thresholds:  THRVAR = 1.00D-08  THRDEN = 1.00D-10

 CCSD(T)     terms to be evaluated (factor= 1.000)


 Number of core orbitals:           1 (   1 )
 Number of closed-shell orbitals:   4 (   4 )
 Number of external orbitals:     431 ( 431 )

 Molecular orbitals read from record     2101.2  Type=RHF/CANONICAL (state 1.1)

 MP2-F12 correlation treatment (H.-J. Werner, 2006)
 ==================================================

 Using MP2-F12 with ansatz 3C(FIX)

 Using projected zeroth-order Hamiltonian (+Z)

 FOCKRIB=T FOCKRIC=T FOCKRIP=T CABSP=T CABSA=T CABSK=T CABSF=T GBC=F EBC=F DMAT=T NOFIK=T NOPAO=1 SOLVE=-1  USEPAO=0
 EXCH_A= T EXCH_B= F EXCH_C= F EXCH_P= F

 Geminal basis:    OPTFULL  GEM_TYPE=SLATER  BETA=1.0  NGEM=6

 Optimizing Gaussian exponents for each gem_beta

 Geminal optimization for beta= 1.0000
 Weight function:   m=0, omega= 1.4646

 Augmented Hessian optimization of geminal fit. Trust ratio= 0.40000
 Convergence reached after   2 iterations. Final gradient= 8.31D-16, Step= 4.24D-06, Delta= 1.28D-09

 Alpha:                 0.19532     0.81920     2.85917     9.50073    35.69989   197.79328
 Coeff:                 0.27070     0.30552     0.18297     0.10986     0.06810     0.04224


 All pairs explicitly correlated. Number of r12-pairs:           10

 Excluding core orbitals from MO domains

 AO(A)-basis ORBITAL           loaded. Number of functions:     436
 RI(R)-basis RI                loaded. Number of functions:     730
 DF-basis JKFIT                loaded. Number of functions:    1104

 Screening thresholds:   THRAO=  1.00D-10  THRMO=  1.00D-09  THRPROD=  1.00D-09
                         THRSW=  1.00D-05  THROV=  1.00D-12  THRAOF12= 1.00D-10

 CPU time for Fock operators                      9.86 sec

 Construction of ABS:
 Smallest eigenvalue of S          2.26E-04  (threshold= 1.00E-08)
 Ratio eigmin/eigmax               3.93E-05  (threshold= 1.00E-09)
 Smallest eigenvalue of S kept     2.26E-04  (threshold= 2.26E-04, 0 functions deleted, 730 kept)

 Construction of CABS:
 Smallest eigenvalue of S          1.53E-08  (threshold= 1.00E-08)
 Ratio eigmin/eigmax               1.53E-08  (threshold= 1.00E-09)
 Smallest eigenvalue of S kept     1.53E-08  (threshold= 1.53E-08, 0 functions deleted, 730 kept)

 CPU time for CABS singles                        2.17 sec

 CABS-singles contribution of  -0.00029111 patched into reference energy.
 New reference energy         -76.06382383

 AO(A)-basis ORBITAL           loaded. Number of functions:     436
 RI(R)-basis RI                loaded. Number of functions:     730
 DF-basis MP2FIT               loaded. Number of functions:    1246

 Screening thresholds:   THRAO=  1.00D-10  THRMO=  1.00D-09  THRPROD=  1.00D-09
                         THRSW=  1.00D-05  THROV=  1.00D-12  THRAOF12= 1.00D-10

 CPU time for 3-index integral evaluation        19.16 sec
 CPU time for first  half transformation          3.57 sec ( 1825.6 MFLOP/sec)
 CPU time for second half transformation          0.04 sec (  943.9 MFLOP/sec)
 CPU time for sorting                             0.08 sec
 CPU time for fitting                             1.41 sec (   55.1 MFLOP/sec)
 CPU time for tilde quantities                    1.42 sec ( 5099.2 MFLOP/sec)
 CPU time for assembly                            4.85 sec ( 3583.4 MFLOP/sec)
 CPU time for tranop_f12                          4.53 sec ( 3781.1 MFLOP/sec)
 CPU time for f12 integrals (total)              42.06 sec, Elapsed time:     43.04 sec
 F12-matrices built in  4 passes.
 F12-matrices built in  4 passes.
 F12-matrices built in  4 passes.
 F12-matrices built in  4 passes.
 FC-matrix built in  4 passes.
 CPU time for f12 matrices (total)                1.73 sec, Elapsed time:      1.76 sec

 Diagonal F12 approximation with fixed coefficients:  TSING= 0.500,  TTRIP= 0.250 (scaled by -1/beta)

 DF-MP2-F12 energy corrections:
 ==============================
 Approx.                                    Singlet             Triplet             Total
 DF-MP2-F12/3*C(DX,FIX)                -0.013713847269     -0.001529944827     -0.015243792096
 DF-MP2-F12/3*C(FIX)                   -0.012092911833     -0.001076057882     -0.013168969715
 DF-MP2-F12/3C(FIX)                    -0.012078996605     -0.001113145643     -0.013192142248

 DF-MP2-F12 correlation energies:
 ================================
 Approx.                                    Singlet             Triplet             Ecorr            Total Energy
 DF-MP2                                -0.186174586856     -0.101364977682     -0.287539564538    -76.351363398638
 DF-MP2-F12/3*C(DX,FIX)                -0.199888434126     -0.102894922508     -0.302783356634    -76.366607190734
 DF-MP2-F12/3*C(FIX)                   -0.198267498689     -0.102441035564     -0.300708534253    -76.364532368353
 DF-MP2-F12/3C(FIX)                    -0.198253583462     -0.102478123324     -0.300731706786    -76.364555540886

 SCS-DF-MP2 energies (F_SING= 1.20000  F_TRIP= 0.62222  F_PARALLEL= 0.33333):
 ============================================================================
 SCS-DF-MP2                            -0.286481045896    -76.350304879996
 SCS-DF-MP2-F12/3*C(DX,FIX)            -0.303889628289    -76.367713462389
 SCS-DF-MP2-F12/3*C(FIX)               -0.301662087223    -76.365485921322
 SCS-DF-MP2-F12/3C(FIX)                -0.301668465778    -76.365492299878
 Symmetry transformation completed.

 Number of N-1 electron functions:               4
 Number of N-2 electron functions:              10
 Number of singly external CSFs:              1724
 Number of doubly external CSFs:           1486950
 Total number of CSFs:                     1488675

 Pair and operator lists are different

 Length of J-op  integral file:             203.65 MB
 Length of K-op  integral file:             338.08 MB
 Length of 3-ext integral record:             0.00 MB

 Memory could be reduced to 526.20 Mwords without degradation in triples

 Integral transformation finished. Total CPU: 165.73 sec, npass=  1  Memory used: 214.75 MW

 Reference energy:                    -76.06382383

 Adding F12 terms to K(Cij), methodcc=6,  factor= 1.0

 ITER.      SQ.NORM     CORR.ENERGY   TOTAL ENERGY   ENERGY CHANGE        DEN1      VAR(S)    VAR(P)  DIIS     TIME  TIME/IT
   1      1.06352510    -0.28697248   -76.35079631     0.00057109     0.00673392  0.79D-03  0.10D-02  1  1   274.09    48.64
   2      1.06705646    -0.28677462   -76.35059845     0.00019786    -0.00487832  0.13D-04  0.11D-03  2  2   321.49    48.91
   3      1.06828293    -0.28687100   -76.35069483    -0.00009638    -0.00081874  0.98D-05  0.75D-05  3  3   369.59    49.21
   4      1.06883509    -0.28688592   -76.35070975    -0.00001492    -0.00033914  0.53D-06  0.73D-06  4  4   417.41    49.22
   5      1.06894042    -0.28688431   -76.35070814     0.00000161    -0.00002970  0.17D-06  0.57D-07  5  5   465.80    49.36
   6      1.06897347    -0.28688218   -76.35070602     0.00000213    -0.00000405  0.20D-07  0.48D-08  6  6   513.60    49.36
   7      1.06898281    -0.28688158   -76.35070542     0.00000060    -0.00000189  0.15D-08  0.75D-09  6  1   561.78    49.43
   8      1.06898421    -0.28688156   -76.35070540     0.00000002     0.00000020  0.32D-09  0.98D-10  6  3   609.43    49.42
   9      1.06898524    -0.28688151   -76.35070534     0.00000005    -0.00000026  0.23D-10  0.11D-10  6  2   657.20    49.43
  10      1.06898544    -0.28688150   -76.35070533     0.00000001     0.00000000  0.23D-11  0.12D-11  6  4   704.01    49.32
  11      1.06898543    -0.28688150   -76.35070533    -0.00000000     0.00000003  0.54D-12  0.18D-12  6  5   750.73    49.22
  12      1.06898543    -0.28688150   -76.35070533    -0.00000000     0.00000001  0.94D-13  0.27D-13  6  6   797.60    49.15
  13      1.06898542    -0.28688150   -76.35070533    -0.00000000     0.00000000  0.16D-13  0.48D-14  6  1   844.32    49.09
  14      1.06898541    -0.28688150   -76.35070533    -0.00000000     0.00000000  0.21D-14  0.87D-15  6  3   891.07    49.04
  15      1.06898541    -0.28688150   -76.35070533    -0.00000000    -0.00000000  0.19D-15  0.12D-15  6  2   938.04    49.00
  16      1.06898541    -0.28688150   -76.35070533     0.00000000    -0.00000000  0.40D-16  0.18D-16  6  4   984.47    48.95

 Norm of t1 vector:      0.03675977      S-energy:    -0.00000000      T1 diagnostic:  0.00918994
                                                                       D1 diagnostic:  0.01864297

 Adding energy correction from Wij-K(Fij), methodcc=6  factor= 1.0

  CCSD correlation energy              -0.286881500463
  MP2-F12 correction (uncoupled)       -0.012752466093
  C*T doubles correction               -0.000419671069
  f12b correction                       0.002712525959


 Total CPU time for triples:    425.49 sec

  Ecorr(MP2)                           -0.287543566618
  Ecorr(MP2-F12)                       -0.300735708866
  Scale factor for triples energy       1.045878759880


 RESULTS
 =======

  Reference energy                    -76.063532724886
  F12 singles correction               -0.000291109213

 F12 singles corrections added to reference energy

  New reference energy                -76.063823834100

  F12a singlet correction              -0.012049783261
  F12a triplet correction              -0.001122353900
  F12a total correction                -0.013172137162

 F12a corrections for ansatz F12/3C(FIX) added to CCSD energy

  CCSD-F12a singlet pair energy        -0.209316784320
  CCSD-F12a triplet pair energy        -0.090736853252
  CCSD-F12a correlation energy         -0.300053637625

  Triples (T) contribution (scaled)    -0.009931004947
  Total correlation energy             -0.309984642572

  CCSD-F12a total energy              -76.363877471724
  CCSD[T]-F12a energy                 -76.374135014780
  CCSD-T-F12a energy                  -76.373666829072
 !CCSD(T)-F12a total energy           -76.373808476672

 F12b corrections for ansatz F12/3C(FIX) added to CCSD(T)-F12a energy

  CCSD-F12b singlet pair energy        -0.206750948462
  CCSD-F12b triplet pair energy        -0.090590163151
  CCSD-F12b correlation energy         -0.297341111666

  Triples (T) contribution (scaled)    -0.009931004947
  Total correlation energy             -0.307272116613

  CCSD-F12b total energy              -76.361164945765
  CCSD[T]-F12b energy                 -76.371422488821
  CCSD-T-F12b energy                  -76.370954303113
 !CCSD(T)-F12b total energy           -76.371095950713

 Timing summary (sec):

 STEP                 CPU(USER)    SYS     CPU(TOT)    WALL
 Transformation        166.07      4.58    170.65    171.01
 CCSD iterations       757.55     24.79    782.34    783.39
 Triples               425.49      1.05    426.54    426.97
 MP2-F12                60.94      1.16     62.10     62.20
 F12b energy            42.96      1.42     44.38     44.43

 Program statistics:

 Available memory in ccsd:              1999999871
 Min. memory needed in ccsd:               6763924
 Max. memory used in ccsd:                 7862874
 Max. memory used in cckext:               5171974 (17 integral passes)



 **********************************************************************************************************************************
 DATASETS  * FILE   NREC   LENGTH (MB)   RECORD NAMES
              1      19     1346.98       500      610      700      900      950      970     1000      129      960     1100   
                                          VAR    BASINP    GEOM    SYMINP    ZMAT    AOBASIS   BASIS     P2S    ABASIS      S 
                                         1400     1410     1200     1210     1080     1600     1650     1700     1380   
                                           T        V       H0       H01     AOSYM     SMH    MOLCAS    OPER     JKOP   

              2       8       17.39       700     1000      520     2100     7360     7350      200     2101   
                                         GEOM     BASIS   MCVARS     RHF    F12ABS    EF12    OPTIONS    RHF  

 PROGRAMS   *        TOTAL   CCSD(T)    HF-SCF       INT   CCSD(T)    HF-SCF       INT
 CPU TIMES  *      8320.22   1453.23    214.96      0.40   6226.62    225.38    199.36
 REAL TIME  *      8504.63 SEC
 DISK USED  *         3.24 GB (local),       82.37 GB (total)
 SF USED    *         5.12 GB
 GA USED    *         4.87 MB       (max)       0.00 MB       (current)
 **********************************************************************************************************************************

 Running procedure: SET_MONOMER2

 Dummy atoms: O7  H13  H14


 Recomputing one-electron integrals since nuclear charges changed


 PROGRAM * SEWARD (Integral evaluation for generally contracted gaussian basis sets)     Author: Roland Lindh, 1990

 Geometry written to block  1 of record 700


 Point group  C1  



 ATOMIC COORDINATES

 NR  ATOM    CHARGE       X              Y              Z

   1  O7      0.00   -4.362810704   -2.860478435    6.396722932
   2  H13     0.00   -5.253627599   -3.421160176    4.877005182
   3  H14     0.00   -5.588487068   -1.881600302    7.381837160
   4  C1      6.00   -6.193010455    2.801518980    2.403542658
   5  H41     1.00   -4.656285171    1.699997622    3.119937832
   6  H42     1.00   -5.973046335    4.726205038    2.982932688
   7  H43     1.00   -7.940251230    2.077186956    3.118237078
   8  H44     1.00   -6.176569838    2.685300823    0.384937212

 Bond lengths in Bohr (Angstrom)

 1-2  1.848637551  1-3  1.852278325  4-5  2.021904040  4-6  2.022002335  4-7  2.021953343
     ( 0.978256863)     ( 0.980183478)     ( 1.069945541)     ( 1.069997556)     ( 1.069971630)

 4-8  2.022015060
     ( 1.070004290)

 Bond angles

  2-1-3  106.17843926   5-4-6  109.53398059   5-4-7  109.65604535   5-4-8  108.43490854

  6-4-7  109.49436728   6-4-8  109.86987750   7-4-8  109.83468330

 NUCLEAR CHARGE:                   10
 NUMBER OF PRIMITIVE AOS:         578
 NUMBER OF SYMMETRY AOS:          474
 NUMBER OF CONTRACTIONS:          436   (  436A   )
 NUMBER OF CORE ORBITALS:           1   (    1A   )
 NUMBER OF VALENCE ORBITALS:        8   (    8A   )

 MOLECULE CHANGED: INITIALIZING OCCUPATION AND DUMP RECORDS


 NUCLEAR REPULSION ENERGY   13.68681606

 Basis set:  JKFIT                   
 Basis size:  1104
 Attributes:
 Sphericals:   T
 Basis set:  MP2FIT                  
 Basis size:  1246
 Attributes:
 Sphericals:   T
 Basis set:  RI                      
 Basis size:   730
 Attributes:
 Sphericals:   T
 Basis set:  TDDFT                   
 Basis size:  1246
 Attributes:
 Sphericals:   T

 Eigenvalues of metric

         1 0.157E-04 0.310E-04 0.321E-04 0.350E-04 0.619E-04 0.857E-04 0.990E-04 0.105E-03


 Contracted 2-electron integrals neglected if value below      1.0D-14

 OPERATOR DM      FOR CENTER  0  COORDINATES:    0.000000    0.000000    0.000000


 **********************************************************************************************************************************
 DATASETS  * FILE   NREC   LENGTH (MB)   RECORD NAMES
              1      18       37.12       500      610      700      900      950      970     1000      129      960     1100   
                                          VAR    BASINP    GEOM    SYMINP    ZMAT    AOBASIS   BASIS     P2S    ABASIS      S 
                                         1400     1410     1200     1210     1080     1600     1650     1700   
                                           T        V       H0       H01     AOSYM     SMH    MOLCAS    OPER   

              2       8       17.39       700     1000      520     2100     7360     7350      200     2101   
                                         GEOM     BASIS   MCVARS     RHF    F12ABS    EF12    OPTIONS    RHF  

 PROGRAMS   *        TOTAL       INT   CCSD(T)    HF-SCF       INT   CCSD(T)    HF-SCF       INT
 CPU TIMES  *      8320.59      0.36   1453.23    214.96      0.40   6226.62    225.38    199.36
 REAL TIME  *      8505.75 SEC
 DISK USED  *         3.24 GB (local),       82.37 GB (total)
 SF USED    *         5.12 GB
 GA USED    *         4.87 MB       (max)       0.00 MB       (current)
 **********************************************************************************************************************************


 PROGRAM * RHF-SCF (CLOSED SHELL)       Authors: W. Meyer, H.-J. Werner


 NUMBER OF ELECTRONS:       5+    5-    SPACE SYMMETRY=1    SPIN SYMMETRY: Singlet 
 CONVERGENCE THRESHOLDS:    1.00E-08 (Density)    1.00E-11 (Energy)
 MAX. NUMBER OF ITERATIONS:       60
 INTERPOLATION TYPE:            DIIS
 INTERPOLATION STEPS:              2 (START)      1 (STEP)
 LEVEL SHIFTS:                  0.00 (CLOSED)  0.00 (OPEN) 



 Orbital guess generated from atomic densities. Full valence occupancy:    9

 Molecular orbital dump at record        2102.2

 Initial occupancy:   5

 ITERATION    DDIFF          GRAD             ENERGY        2-EL.EN.            DIPOLE MOMENTS         DIIS   ORB.
    1      0.000D+00      0.000D+00       -40.19609542     53.506285    0.00410   -0.00275   -0.00132    0    start
    2      0.000D+00      0.257D-02       -40.21334947     52.217619    0.00128   -0.00087   -0.00039    1    diag
    3      0.158D-02      0.998D-03       -40.21562539     52.672078    0.00181   -0.00123   -0.00056    2    diag
    4      0.443D-03      0.249D-03       -40.21594484     52.617266    0.00161   -0.00109   -0.00050    3    diag
    5      0.165D-03      0.322D-04       -40.21595033     52.619413    0.00158   -0.00107   -0.00049    4    diag
    6      0.410D-04      0.264D-05       -40.21595037     52.619550    0.00158   -0.00107   -0.00049    5    diag
    7      0.548D-05      0.212D-06       -40.21595037     52.619511    0.00158   -0.00107   -0.00049    6    diag
    8      0.220D-06      0.170D-07       -40.21595037     52.619512    0.00158   -0.00107   -0.00049    7    diag
    9      0.826D-07      0.217D-08       -40.21595037     52.619512    0.00158   -0.00107   -0.00049    8    diag
   10      0.827D-08      0.595D-09       -40.21595037     52.619512    0.00158   -0.00107   -0.00049    0    orth

 Final occupancy:   5

 !RHF STATE  1.1 Energy               -40.215950374876
 Nuclear energy                        13.68681606
 One-electron energy                  -80.21252229
 Two-electron energy                   26.30975586
 Virial quotient                       -0.99838101
 !RHF STATE  1.1 Dipole moment          0.00157657    -0.00107146    -0.00048530
 Dipole moment /Debye                   0.00400698    -0.00272319    -0.00123343

 Orbital energies:

         1.1          2.1          3.1          4.1          5.1          6.1          7.1
    -11.196224    -0.950661    -0.551889    -0.549955    -0.547776     0.025006     0.038564


 HOMO      5.1    -0.547776 =     -14.9057eV
 LUMO      6.1     0.025006 =       0.6804eV
 LUMO-HOMO         0.572782 =      15.5862eV


 **********************************************************************************************************************************
 DATASETS  * FILE   NREC   LENGTH (MB)   RECORD NAMES
              1      18       37.12       500      610      700      900      950      970     1000      129      960     1100   
                                          VAR    BASINP    GEOM    SYMINP    ZMAT    AOBASIS   BASIS     P2S    ABASIS      S 
                                         1400     1410     1200     1210     1080     1600     1650     1700   
                                           T        V       H0       H01     AOSYM     SMH    MOLCAS    OPER   

              2       9       27.51       700     1000      520     2100     7360     7350      200     2101     2102   
                                         GEOM     BASIS   MCVARS     RHF    F12ABS    EF12    OPTIONS    RHF      RHF  

 PROGRAMS   *        TOTAL    HF-SCF       INT   CCSD(T)    HF-SCF       INT   CCSD(T)    HF-SCF       INT
 CPU TIMES  *      8490.54    169.96      0.36   1453.23    214.96      0.40   6226.62    225.38    199.36
 REAL TIME  *      8691.48 SEC
 DISK USED  *         3.24 GB (local),       82.37 GB (total)
 SF USED    *         5.12 GB
 GA USED    *         4.87 MB       (max)       0.00 MB       (current)
 **********************************************************************************************************************************

 Basis set:  JKFIT                   
 Basis size:  1104
 Attributes:
 Sphericals:   T
 Basis set:  MP2FIT                  
 Basis size:  1246
 Attributes:
 Sphericals:   T
 Basis set:  RI                      
 Basis size:   730
 Attributes:
 Sphericals:   T
 Basis set:  TDDFT                   
 Basis size:  1246
 Attributes:
 Sphericals:   T

 PROGRAM * CCSD (Closed-shell coupled cluster)     Authors: C. Hampel, H.-J. Werner, 1991, M. Deegan, P.J. Knowles, 1992

                                  CCSD-F12 implementation by  H.-J. Werner, 2007

                   Density fitting integral evaluation by F.R. Manby, 2003,2007, G. Knizia, 2010



 Convergence thresholds:  THRVAR = 1.00D-08  THRDEN = 1.00D-10

 CCSD(T)     terms to be evaluated (factor= 1.000)


 Number of core orbitals:           1 (   1 )
 Number of closed-shell orbitals:   4 (   4 )
 Number of external orbitals:     431 ( 431 )

 Molecular orbitals read from record     2102.2  Type=RHF/CANONICAL (state 1.1)

 MP2-F12 correlation treatment (H.-J. Werner, 2006)
 ==================================================

 Using MP2-F12 with ansatz 3C(FIX)

 Using projected zeroth-order Hamiltonian (+Z)

 FOCKRIB=T FOCKRIC=T FOCKRIP=T CABSP=T CABSA=T CABSK=T CABSF=T GBC=F EBC=F DMAT=T NOFIK=T NOPAO=1 SOLVE=-1  USEPAO=0
 EXCH_A= T EXCH_B= F EXCH_C= F EXCH_P= F

 Geminal basis:    OPTFULL  GEM_TYPE=SLATER  BETA=1.0  NGEM=6

 Optimizing Gaussian exponents for each gem_beta

 Geminal optimization for beta= 1.0000
 Weight function:   m=0, omega= 1.4646

 Augmented Hessian optimization of geminal fit. Trust ratio= 0.40000
 Convergence reached after   2 iterations. Final gradient= 7.85D-16, Step= 4.26D-06, Delta= 1.28D-09

 Alpha:                 0.19532     0.81920     2.85917     9.50073    35.69989   197.79328
 Coeff:                 0.27070     0.30552     0.18297     0.10986     0.06810     0.04224


 All pairs explicitly correlated. Number of r12-pairs:           10

 Excluding core orbitals from MO domains

 AO(A)-basis ORBITAL           loaded. Number of functions:     436
 RI(R)-basis RI                loaded. Number of functions:     730
 DF-basis JKFIT                loaded. Number of functions:    1104

 Screening thresholds:   THRAO=  1.00D-10  THRMO=  1.00D-09  THRPROD=  1.00D-09
                         THRSW=  1.00D-05  THROV=  1.00D-12  THRAOF12= 1.00D-10

 CPU time for Fock operators                      9.54 sec

 Construction of ABS:
 Smallest eigenvalue of S          2.26E-04  (threshold= 1.00E-08)
 Ratio eigmin/eigmax               3.93E-05  (threshold= 1.00E-09)
 Smallest eigenvalue of S kept     2.26E-04  (threshold= 2.26E-04, 0 functions deleted, 730 kept)

 Construction of CABS:
 Smallest eigenvalue of S          1.53E-08  (threshold= 1.00E-08)
 Ratio eigmin/eigmax               1.53E-08  (threshold= 1.00E-09)
 Smallest eigenvalue of S kept     1.53E-08  (threshold= 1.53E-08, 0 functions deleted, 730 kept)

 CPU time for CABS singles                        2.15 sec

 CABS-singles contribution of  -0.00024551 patched into reference energy.
 New reference energy         -40.21619588

 AO(A)-basis ORBITAL           loaded. Number of functions:     436
 RI(R)-basis RI                loaded. Number of functions:     730
 DF-basis MP2FIT               loaded. Number of functions:    1246

 Screening thresholds:   THRAO=  1.00D-10  THRMO=  1.00D-09  THRPROD=  1.00D-09
                         THRSW=  1.00D-05  THROV=  1.00D-12  THRAOF12= 1.00D-10

 CPU time for 3-index integral evaluation        18.85 sec
 CPU time for first  half transformation          2.96 sec ( 2193.4 MFLOP/sec)
 CPU time for second half transformation          0.04 sec (  957.9 MFLOP/sec)
 CPU time for sorting                             0.10 sec
 CPU time for fitting                             1.26 sec ( 5771.4 MFLOP/sec)
 CPU time for tilde quantities                    1.44 sec ( 5071.6 MFLOP/sec)
 CPU time for assembly                            4.71 sec ( 3891.2 MFLOP/sec)
 CPU time for tranop_f12                          4.56 sec ( 3761.1 MFLOP/sec)
 CPU time for f12 integrals (total)              40.69 sec, Elapsed time:     41.47 sec
 F12-matrices built in  4 passes.
 F12-matrices built in  4 passes.
 F12-matrices built in  4 passes.
 F12-matrices built in  4 passes.
 FC-matrix built in  4 passes.
 CPU time for f12 matrices (total)                1.71 sec, Elapsed time:      1.72 sec

 Diagonal F12 approximation with fixed coefficients:  TSING= 0.500,  TTRIP= 0.250 (scaled by -1/beta)

 DF-MP2-F12 energy corrections:
 ==============================
 Approx.                                    Singlet             Triplet             Total
 DF-MP2-F12/3*C(DX,FIX)                -0.007491491679     -0.000574504322     -0.008065996001
 DF-MP2-F12/3*C(FIX)                   -0.007044380735     -0.000473118066     -0.007517498800
 DF-MP2-F12/3C(FIX)                    -0.007073233475     -0.000486597176     -0.007559830651

 DF-MP2-F12 correlation energies:
 ================================
 Approx.                                    Singlet             Triplet             Ecorr            Total Energy
 DF-MP2                                -0.154425429077     -0.056464556546     -0.210889985623    -40.427085868487
 DF-MP2-F12/3*C(DX,FIX)                -0.161916920756     -0.057039060867     -0.218955981624    -40.435151864488
 DF-MP2-F12/3*C(FIX)                   -0.161469809812     -0.056937674612     -0.218407484424    -40.434603367287
 DF-MP2-F12/3C(FIX)                    -0.161498662552     -0.056951153722     -0.218449816274    -40.434645699138

 SCS-DF-MP2 energies (F_SING= 1.20000  F_TRIP= 0.62222  F_PARALLEL= 0.33333):
 ============================================================================
 SCS-DF-MP2                            -0.220444016744    -40.436639899607
 SCS-DF-MP2-F12/3*C(DX,FIX)            -0.229791276114    -40.445987158978
 SCS-DF-MP2-F12/3*C(FIX)               -0.229191658199    -40.445387541063
 SCS-DF-MP2-F12/3C(FIX)                -0.229234668489    -40.445430551353
 Symmetry transformation completed.

 Number of N-1 electron functions:               4
 Number of N-2 electron functions:              10
 Number of singly external CSFs:              1724
 Number of doubly external CSFs:           1486950
 Total number of CSFs:                     1488675

 Pair and operator lists are different

 Length of J-op  integral file:             203.65 MB
 Length of K-op  integral file:             338.08 MB
 Length of 3-ext integral record:             0.00 MB

 Memory could be reduced to 526.20 Mwords without degradation in triples

 Integral transformation finished. Total CPU: 157.75 sec, npass=  1  Memory used: 214.75 MW

 Reference energy:                    -40.21619588

 Adding F12 terms to K(Cij), methodcc=6,  factor= 1.0

 ITER.      SQ.NORM     CORR.ENERGY   TOTAL ENERGY   ENERGY CHANGE        DEN1      VAR(S)    VAR(P)  DIIS     TIME  TIME/IT
   1      1.07024112    -0.22512317   -40.44131905    -0.01422783    -0.00847337  0.63D-03  0.94D-03  1  1   263.45    47.31
   2      1.07517173    -0.22597341   -40.44216929    -0.00085024    -0.00530359  0.15D-04  0.10D-03  2  2   309.62    47.59
   3      1.07679474    -0.22606121   -40.44225709    -0.00008780    -0.00117774  0.22D-05  0.59D-05  3  3   356.17    47.73
   4      1.07717775    -0.22606850   -40.44226438    -0.00000729    -0.00020556  0.14D-06  0.33D-06  4  4   402.74    47.81
   5      1.07722982    -0.22607013   -40.44226601    -0.00000163    -0.00000896  0.11D-07  0.21D-07  5  5   449.53    47.89
   6      1.07723842    -0.22606884   -40.44226472     0.00000129    -0.00000326  0.78D-09  0.16D-08  6  6   496.00    47.92
   7      1.07723978    -0.22606851   -40.44226439     0.00000033    -0.00000085  0.51D-10  0.12D-09  6  1   542.39    47.94
   8      1.07723975    -0.22606858   -40.44226446    -0.00000007     0.00000020  0.54D-11  0.73D-11  6  3   588.80    47.95
   9      1.07723989    -0.22606856   -40.44226444     0.00000002    -0.00000009  0.40D-12  0.59D-12  6  2   635.21    47.96
  10      1.07723989    -0.22606856   -40.44226444     0.00000000     0.00000001  0.51D-13  0.59D-13  6  4   681.56    47.98
  11      1.07723989    -0.22606856   -40.44226444     0.00000000     0.00000000  0.47D-14  0.59D-14  6  5   728.10    47.98
  12      1.07723989    -0.22606856   -40.44226444     0.00000000     0.00000000  0.11D-15  0.63D-15  6  6   774.71    47.98
  13      1.07723989    -0.22606856   -40.44226444    -0.00000000     0.00000000  0.75D-17  0.66D-16  6  1   821.09    47.98
  14      1.07723989    -0.22606856   -40.44226444    -0.00000000     0.00000000  0.11D-17  0.83D-17  6  3   867.54    47.97

 Norm of t1 vector:      0.03291661      S-energy:    -0.00000000      T1 diagnostic:  0.00822915
                                                                       D1 diagnostic:  0.01319187

 Adding energy correction from Wij-K(Fij), methodcc=6  factor= 1.0

  CCSD correlation energy              -0.226068555558
  MP2-F12 correction (uncoupled)       -0.007436541358
  C*T doubles correction               -0.000126364849
  f12b correction                       0.001936223671

 Total CPU time for triples:    425.43 sec

  Ecorr(MP2)                           -0.210895342889
  Ecorr(MP2-F12)                       -0.218455173540
  Scale factor for triples energy       1.035846361266


 RESULTS
 =======

  Reference energy                    -40.215950374875
  F12 singles correction               -0.000245507989

 F12 singles corrections added to reference energy

  New reference energy                -40.216195882864

  F12a singlet correction              -0.007073877262
  F12a triplet correction              -0.000489028945
  F12a total correction                -0.007562906207

 F12a corrections for ansatz F12/3C(FIX) added to CCSD energy

  CCSD-F12a singlet pair energy        -0.178450312698
  CCSD-F12a triplet pair energy        -0.055181149064
  CCSD-F12a correlation energy         -0.233631461765

  Triples (T) contribution (scaled)    -0.007053284830
  Total correlation energy             -0.240684746595

  CCSD-F12a total energy              -40.449827344629
  CCSD[T]-F12a energy                 -40.457117152821
  CCSD-T-F12a energy                  -40.456810781378
 !CCSD(T)-F12a total energy           -40.456880629458

 F12b corrections for ansatz F12/3C(FIX) added to CCSD(T)-F12a energy

  CCSD-F12b singlet pair energy        -0.176581623971
  CCSD-F12b triplet pair energy        -0.055113614119
  CCSD-F12b correlation energy         -0.231695238094

  Triples (T) contribution (scaled)    -0.007053284830
  Total correlation energy             -0.238748522923

  CCSD-F12b total energy              -40.447891120957
  CCSD[T]-F12b energy                 -40.455180929149
  CCSD-T-F12b energy                  -40.454874557707
 !CCSD(T)-F12b total energy           -40.454944405787

 Timing summary (sec):

 STEP                 CPU(USER)    SYS     CPU(TOT)    WALL
 Transformation        158.11      3.75    161.86    162.01
 CCSD iterations       650.35     20.79    671.14    671.81
 Triples               425.43      0.90    426.33    426.73
 MP2-F12                59.17      0.98     60.15     60.21
 F12b energy            42.63      1.43     44.06     44.11

 Program statistics:

 Available memory in ccsd:              1999999866
 Min. memory needed in ccsd:               6763924
 Max. memory used in ccsd:                 7862874
 Max. memory used in cckext:               5171974 (15 integral passes)



 **********************************************************************************************************************************
 DATASETS  * FILE   NREC   LENGTH (MB)   RECORD NAMES
              1      19     1346.98       500      610      700      900      950      970     1000      129      960     1100   
                                          VAR    BASINP    GEOM    SYMINP    ZMAT    AOBASIS   BASIS     P2S    ABASIS      S 
                                         1400     1410     1200     1210     1080     1600     1650     1700     1380   
                                           T        V       H0       H01     AOSYM     SMH    MOLCAS    OPER     JKOP   

              2       9       27.51       700     1000      520     2100     7360     7350      200     2101     2102   
                                         GEOM     BASIS   MCVARS     RHF    F12ABS    EF12    OPTIONS    RHF      RHF  

 PROGRAMS   *        TOTAL   CCSD(T)    HF-SCF       INT   CCSD(T)    HF-SCF       INT   CCSD(T)    HF-SCF       INT
 CPU TIMES  *      9826.51   1335.94    169.96      0.36   1453.23    214.96      0.40   6226.62    225.38    199.36
 REAL TIME  *     10057.38 SEC
 DISK USED  *         3.24 GB (local),       82.37 GB (total)
 SF USED    *         5.12 GB
 GA USED    *         4.87 MB       (max)       0.00 MB       (current)
 **********************************************************************************************************************************
 Molecular orbitals read from record     2102.2  Type=RHF/CANONICAL (state 1.1)
 Occupation numbers read from record     2102.2  Type=RHF/RHF (state 1.1)
 Orbital energies read from record       2102.2  Type=RHF/CANONICAL (state 1.1)
 Redundancy group numbers read from rec  2102.2  Type=RHF/RHF (state 1.1)

 CCSD(T)-F12/aug-cc-pVQZ energy=    -40.454944405787

     CCSD(T)-F12          HF-SCF     CCSD(T)-F12          HF-SCF     CCSD(T)-F12          HF-SCF
    -40.45494441    -40.21595037    -76.37109595    -76.06353272   -116.82683199   -116.27926977
 **********************************************************************************************************************************
 Molpro calculation terminated
