
 Primary working directories    : /scratch/klimes/383239/molpro.6DfPLza1W6
 Secondary working directories  : /scratch/klimes/383239/molpro.6DfPLza1W6
 Wavefunction directory         : /scratch/klimes/383239/
 Main file repository           : /scratch/klimes/383239/molpro.6DfPLza1W6/

 id        : karlovklimes

 Nodes                      nprocs
 nc-22.cc.karlov.mff.cuni.cz    4

 Using customized tuning parameters: mindgm=1; mindgv=20; mindgc=4; mindgr=1; noblas=0; minvec=7
 default implementation of scratch files=sf  


 Variables initialized (930), CPU time= 0.01 sec
                                                                                 !gdirect
 memory,2000,m
 gthresh,orbital=1d-10,energy=1d-10,grid=1d-8
 
 symmetry,nosym
 angstrom
 geometry={
 O8        -2.441500000000      2.874300000000     -2.185500000000
 H15        -3.121200000000      3.446800000000     -1.780300000000
 H16        -2.892600000000      2.018700000000     -2.335200000000
 C1        -3.277200000000      1.482500000000      1.271900000000
 H41        -2.464000000000      0.899600000000      1.651000000000
 H42        -3.160800000000      2.501000000000      1.578500000000
 H43        -4.201800000000      1.099200000000      1.650100000000
 H44        -3.268500000000      1.421000000000      0.203700000000
 }
 
 nkerna=1
 nkernb=1
 
 gf=0
 sing=1
 thrdum=1d-4
 gridthr=1d-8
 
 basis={
 set,orbital
 default,avqz
 set,jkfit
 default,av5z/jkfit
 set,mp2fit
 default,av5z/mp2fit
 set,ri
 default,av5z/optri
 set,tddft
 default,av5z/mp2fit
 }
 
 proc set_monomer1
 dummy,4,5,6,7,8
 endproc
 
 proc set_monomer2
 dummy,1,2,3
 endproc
 
                                                                                 !12 energy
 {hf,accu=1.d-16}
 {ccsd(t)-f12,df_basis=mp2fit,df_basis_exch=jkfit,ri_basis=ri,scale_trip=1,THRAOF12=1d-10}
 
 set_monomer1
 {hf,accu=1.d-16}
 {ccsd(t)-f12,df_basis=mp2fit,df_basis_exch=jkfit,ri_basis=ri,scale_trip=1,THRAOF12=1d-10}
 
 set_monomer2
 {hf,accu=1.d-16}
 {ccsd(t)-f12,df_basis=mp2fit,df_basis_exch=jkfit,ri_basis=ri,scale_trip=1,THRAOF12=1d-10}
 
 Commands  initialized (760), CPU time= 0.02 sec, 617 directives.
 Default parameters read. Elapsed time= 0.19 sec

 Checking input...
 Passed
1


                                         ***  PROGRAM SYSTEM MOLPRO  ***
                                       Copyright, TTI GmbH Stuttgart, 2015
                                    Version 2019.1 linked Jan 14 2019 13:09:19


 **********************************************************************************************************************************
 LABEL *                                                                                 
  64 bit mpp version                                                                     DATE: 11-Mar-20          TIME: 16:38:00  
 **********************************************************************************************************************************

 SHA1:             d688ac825633d238f2093ded1675ba87ccd55965
 **********************************************************************************************************************************

 THRESHOLDS:

 ZERO    =  1.00D-12  ONEINT  =  1.00D-12  TWOINT  =  1.00D-11  PREFAC  =  1.00D-14  XXXXXX  =  1.00D-09  EORDER  =  1.00D-04
 ENERGY  =  1.00D-10  ETEST   =  0.00D+00  EDENS   =  0.00D+00  THRDEDEF=  1.00D-06  GRADIENT=  1.00D-02  STEP    =  1.00D-03
 ORBITAL =  1.00D-10  CIVEC   =  1.00D-05  COEFF   =  1.00D-04  PRINTCI =  5.00D-02  PUNCHCI =  9.90D+01  OPTGRAD =  3.00D-04
 OPTENERG=  1.00D-06  OPTSTEP =  3.00D-04  THRGRAD =  1.00D-10  COMPRESS=  1.00D-11  VARMIN  =  1.00D-07  VARMAX  =  1.00D-03
 THRDOUB =  0.00D+00  THRDIV  =  1.00D-05  THRRED  =  1.00D-07  THRPSP  =  1.00D+00  THRDC   =  1.00D-10  THRCS   =  1.00D-10
 THRNRM  =  1.00D-08  THREQ   =  0.00D+00  THRDE   =  1.00D+00  THRREF  =  1.00D-05  SPARFAC =  1.00D+00  THRDLP  =  1.00D-07
 THRDIA  =  1.00D-10  THRDLS  =  1.00D-07  THRGPS  =  0.00D+00  THRKEX  =  0.00D+00  THRDIS  =  2.00D-01  THRVAR  =  1.00D-10
 THRLOC  =  1.00D-06  THRGAP  =  1.00D-06  THRLOCT = -1.00D+00  THRGAPT = -1.00D+00  THRORB  =  1.00D-06  THRMLTP =  0.00D+00
 THRCPQCI=  1.00D-10  KEXTA   =  0.00D+00  THRCOARS=  0.00D+00  SYMTOL  =  1.00D-06  GRADTOL =  1.00D-06  THROVL  =  1.00D-08
 THRORTH =  1.00D-08  GRID    =  1.00D-08  GRIDMAX =  1.00D-03  DTMAX   =  0.00D+00  THROCCDE=  1.00D-01  THROCCDE=  1.00D-01
 THRPRINT=  2.50D-01


 Variable memory set to 2000000000 words,  buffer space 

 ZSYMEL=NOSYM
 ZUNIT=ANG


Geometry recognized as XYZ

 SETTING NKERNA         =         1.00000000                                  
 SETTING NKERNB         =         1.00000000                                  
 SETTING GF             =     0.00000000D+00                                  
 SETTING SING           =         1.00000000                                  
 SETTING THRDUM         =     1.00000000D-04                                  
 SETTING GRIDTHR        =     1.00000000D-08                                  
 SETTING BASIS          =    AVQZ


 Recomputing integrals since basis changed


 Using spherical harmonics

 Library entry O      S aug-cc-pVQZ          selected for orbital group  1
 Library entry O      P aug-cc-pVQZ          selected for orbital group  1
 Library entry O      D aug-cc-pVQZ          selected for orbital group  1
 Library entry O      F aug-cc-pVQZ          selected for orbital group  1
 Library entry O      G aug-cc-pVQZ          selected for orbital group  1
 Library entry H      S aug-cc-pVQZ          selected for orbital group  2
 Library entry H      P aug-cc-pVQZ          selected for orbital group  2
 Library entry H      D aug-cc-pVQZ          selected for orbital group  2
 Library entry H      F aug-cc-pVQZ          selected for orbital group  2
 Library entry C      S aug-cc-pVQZ          selected for orbital group  3
 Library entry C      P aug-cc-pVQZ          selected for orbital group  3
 Library entry C      D aug-cc-pVQZ          selected for orbital group  3
 Library entry C      F aug-cc-pVQZ          selected for orbital group  3
 Library entry C      G aug-cc-pVQZ          selected for orbital group  3


 PROGRAM * SEWARD (Integral evaluation for generally contracted gaussian basis sets)     Author: Roland Lindh, 1990

 Geometry written to block  1 of record 700


 Point group  C1  



 ATOMIC COORDINATES

 NR  ATOM    CHARGE       X              Y              Z

   1  O8      8.00   -4.613766333    5.431639800   -4.129996445
   2  H15     1.00   -5.898213180    6.513508006   -3.364279420
   3  H16     1.00   -5.466221788    3.814790128   -4.412888446
   4  C1      6.00   -6.193010455    2.801518980    2.403542658
   5  H41     1.00   -4.656285171    1.699997622    3.119937832
   6  H42     1.00   -5.973046335    4.726205038    2.982932688
   7  H43     1.00   -7.940251230    2.077186956    3.118237078
   8  H44     1.00   -6.176569838    2.685300823    0.384937212

 Bond lengths in Bohr (Angstrom)

 1-2  1.845688241  1-3  1.849570504  4-5  2.021904040  4-6  2.022002335  4-7  2.021953343
     ( 0.976696155)     ( 0.978750561)     ( 1.069945541)     ( 1.069997556)     ( 1.069971630)

 4-8  2.022015060
     ( 1.070004290)

 Bond angles

  2-1-3  104.78050181   5-4-6  109.53398059   5-4-7  109.65604535   5-4-8  108.43490854

  6-4-7  109.49436728   6-4-8  109.86987750   7-4-8  109.83468330

 NUCLEAR CHARGE:                   20
 NUMBER OF PRIMITIVE AOS:         578
 NUMBER OF SYMMETRY AOS:          474
 NUMBER OF CONTRACTIONS:          436   (  436A   )
 NUMBER OF CORE ORBITALS:           2   (    2A   )
 NUMBER OF VALENCE ORBITALS:       14   (   14A   )


 NUCLEAR REPULSION ENERGY   36.70371194


 Basis set:  JKFIT                   
 Basis size:  1104
 Attributes:
 Sphericals:   T
 Basis set:  MP2FIT                  
 Basis size:  1246
 Attributes:
 Sphericals:   T
 Basis set:  RI                      
 Basis size:   730
 Attributes:
 Sphericals:   T
 Basis set:  TDDFT                   
 Basis size:  1246
 Attributes:
 Sphericals:   T

 **********************************************************************************************************************************


 Eigenvalues of metric

         1 0.140E-04 0.201E-04 0.316E-04 0.360E-04 0.599E-04 0.682E-04 0.946E-04 0.104E-03


 Contracted 2-electron integrals neglected if value below      1.0D-14
 AO integral compression algorithm  1   Integral accuracy      1.0D-14

     23133.422 MB (compressed) written to integral file ( 57.7%)

     Node minimum: 5388.108 MB, node maximum: 6539.182 MB


 NUMBER OF SORTED TWO-ELECTRON INTEGRALS: 1134451344.     BUFFER LENGTH:  32768
 NUMBER OF SEGMENTS:  36  SEGMENT LENGTH:   31999984      RECORD LENGTH: 524288

 Memory used in sort:      32.56 MW

 SORT1 READ  5012305700. AND WROTE   969116070. INTEGRALS IN   2791 RECORDS. CPU TIME:   197.68 SEC, REAL TIME:   220.59 SEC
 SORT2 READ  3876036368. AND WROTE  4537853011. INTEGRALS IN  82216 RECORDS. CPU TIME:    15.29 SEC, REAL TIME:   323.21 SEC

 Node minimum:  1134427528.  Node maximum:  1134498978. integrals

 OPERATOR DM      FOR CENTER  0  COORDINATES:    0.000000    0.000000    0.000000


 **********************************************************************************************************************************
 DATASETS  * FILE   NREC   LENGTH (MB)   RECORD NAMES
              1      18       37.12       500      610      700      900      950      970     1000      129      960     1100   
                                          VAR    BASINP    GEOM    SYMINP    ZMAT    AOBASIS   BASIS     P2S    ABASIS      S 
                                         1400     1410     1200     1210     1080     1600     1650     1700   
                                           T        V       H0       H01     AOSYM     SMH    MOLCAS    OPER   

 PROGRAMS   *        TOTAL       INT
 CPU TIMES  *       274.46    274.24
 REAL TIME  *       621.14 SEC
 DISK USED  *        37.64 MB (local),       69.51 GB (total)
 GA USED    *         0.00 MB       (max)       0.00 MB       (current)
 **********************************************************************************************************************************


 PROGRAM * RHF-SCF (CLOSED SHELL)       Authors: W. Meyer, H.-J. Werner


 NUMBER OF ELECTRONS:      10+   10-    SPACE SYMMETRY=1    SPIN SYMMETRY: Singlet 
 CONVERGENCE THRESHOLDS:    1.00E-08 (Density)    1.00E-11 (Energy)
 MAX. NUMBER OF ITERATIONS:       60
 INTERPOLATION TYPE:            DIIS
 INTERPOLATION STEPS:              2 (START)      1 (STEP)
 LEVEL SHIFTS:                  0.00 (CLOSED)  0.00 (OPEN) 



 Orbital guess generated from atomic densities. Full valence occupancy:   16

 Molecular orbital dump at record        2100.2

 Initial occupancy:  10

 ITERATION    DDIFF          GRAD             ENERGY        2-EL.EN.            DIPOLE MOMENTS         DIIS   ORB.
    1      0.000D+00      0.000D+00      -116.22050064    158.800995   -1.08713   -0.27430    0.24259    0    start
    2      0.000D+00      0.379D-02      -116.26474418    153.988584   -0.59418   -0.15415    0.16350    1    diag
    3      0.273D-02      0.222D-02      -116.27824041    156.007814   -0.72151   -0.18505    0.18208    2    diag
    4      0.948D-03      0.332D-03      -116.27890179    155.894864   -0.71198   -0.18268    0.17858    3    diag
    5      0.204D-03      0.972D-04      -116.27897143    155.890000   -0.71167   -0.18285    0.17889    4    diag
    6      0.826D-04      0.237D-04      -116.27897536    155.895667   -0.71095   -0.18283    0.17885    5    diag
    7      0.228D-04      0.481D-05      -116.27897560    155.893986   -0.71100   -0.18288    0.17890    6    diag
    8      0.676D-05      0.122D-05      -116.27897562    155.894162   -0.71093   -0.18288    0.17892    7    diag
    9      0.155D-05      0.282D-06      -116.27897562    155.894133   -0.71091   -0.18288    0.17892    8    diag
   10      0.455D-06      0.344D-07      -116.27897562    155.894135   -0.71091   -0.18288    0.17892    9    orth
   11      0.471D-07      0.890D-08      -116.27897562    155.894136   -0.71091   -0.18288    0.17892    9    diag
   12      0.106D-07      0.259D-08      -116.27897562    155.894135   -0.71091   -0.18288    0.17892    9    diag
   13      0.321D-08      0.705D-09      -116.27897562    155.894136   -0.71091   -0.18288    0.17892    0    orth

 Final occupancy:  10

 !RHF STATE  1.1 Energy              -116.278975622792
 Nuclear energy                        36.70371194
 One-electron energy                 -230.92975536
 Two-electron energy                   77.94706779
 Virial quotient                       -1.00066526
 !RHF STATE  1.1 Dipole moment         -0.71091029    -0.18287934     0.17892209
 Dipole moment /Debye                  -1.80683536    -0.46480247     0.45474480

 Orbital energies:

         1.1          2.1          3.1          4.1          5.1          6.1          7.1          8.1          9.1         10.1
    -20.567909   -11.198866    -1.342487    -0.953448    -0.707296    -0.581408    -0.555045    -0.552719    -0.551117    -0.507514

        11.1         12.1
      0.023555     0.039404


 HOMO     10.1    -0.507514 =     -13.8102eV
 LUMO     11.1     0.023555 =       0.6410eV
 LUMO-HOMO         0.531069 =      14.4511eV


 **********************************************************************************************************************************
 DATASETS  * FILE   NREC   LENGTH (MB)   RECORD NAMES
              1      18       37.12       500      610      700      900      950      970     1000      129      960     1100   
                                          VAR    BASINP    GEOM    SYMINP    ZMAT    AOBASIS   BASIS     P2S    ABASIS      S 
                                         1400     1410     1200     1210     1080     1600     1650     1700   
                                           T        V       H0       H01     AOSYM     SMH    MOLCAS    OPER   

              2       4        6.75       700     1000      520     2100   
                                         GEOM     BASIS   MCVARS     RHF  

 PROGRAMS   *        TOTAL    HF-SCF       INT
 CPU TIMES  *       475.93    201.47    274.24
 REAL TIME  *      1047.77 SEC
 DISK USED  *        57.70 MB (local),       69.59 GB (total)
 SF USED    *         0.76 MB
 GA USED    *         0.00 MB       (max)       0.00 MB       (current)
 **********************************************************************************************************************************

 Basis set:  JKFIT                   
 Basis size:  1104
 Attributes:
 Sphericals:   T
 Basis set:  MP2FIT                  
 Basis size:  1246
 Attributes:
 Sphericals:   T
 Basis set:  RI                      
 Basis size:   730
 Attributes:
 Sphericals:   T
 Basis set:  TDDFT                   
 Basis size:  1246
 Attributes:
 Sphericals:   T

 PROGRAM * CCSD (Closed-shell coupled cluster)     Authors: C. Hampel, H.-J. Werner, 1991, M. Deegan, P.J. Knowles, 1992

                                  CCSD-F12 implementation by  H.-J. Werner, 2007

                   Density fitting integral evaluation by F.R. Manby, 2003,2007, G. Knizia, 2010



 Convergence thresholds:  THRVAR = 1.00D-08  THRDEN = 1.00D-10

 CCSD(T)     terms to be evaluated (factor= 1.000)


 Number of core orbitals:           2 (   2 )
 Number of closed-shell orbitals:   8 (   8 )
 Number of external orbitals:     426 ( 426 )

 Molecular orbitals read from record     2100.2  Type=RHF/CANONICAL (state 1.1)

 MP2-F12 correlation treatment (H.-J. Werner, 2006)
 ==================================================

 Using MP2-F12 with ansatz 3C(FIX)

 Using projected zeroth-order Hamiltonian (+Z)

 FOCKRIB=T FOCKRIC=T FOCKRIP=T CABSP=T CABSA=T CABSK=T CABSF=T GBC=F EBC=F DMAT=T NOFIK=T NOPAO=1 SOLVE=-1  USEPAO=0
 EXCH_A= T EXCH_B= F EXCH_C= F EXCH_P= F

 Geminal basis:    OPTFULL  GEM_TYPE=SLATER  BETA=1.0  NGEM=6

 Optimizing Gaussian exponents for each gem_beta

 Geminal optimization for beta= 1.0000
 Weight function:   m=0, omega= 1.4646

 Augmented Hessian optimization of geminal fit. Trust ratio= 0.40000
 Convergence reached after   2 iterations. Final gradient= 7.85D-16, Step= 4.26D-06, Delta= 1.28D-09

 Alpha:                 0.19532     0.81920     2.85917     9.50073    35.69989   197.79328
 Coeff:                 0.27070     0.30552     0.18297     0.10986     0.06810     0.04224


 All pairs explicitly correlated. Number of r12-pairs:           36

 Excluding core orbitals from MO domains

 AO(A)-basis ORBITAL           loaded. Number of functions:     436
 RI(R)-basis RI                loaded. Number of functions:     730
 DF-basis JKFIT                loaded. Number of functions:    1104

 Screening thresholds:   THRAO=  1.00D-10  THRMO=  1.00D-09  THRPROD=  1.00D-09
                         THRSW=  1.00D-05  THROV=  1.00D-12  THRAOF12= 1.00D-10

 CPU time for Fock operators                     11.48 sec

 Construction of ABS:
 Smallest eigenvalue of S          2.25E-04  (threshold= 1.00E-08)
 Ratio eigmin/eigmax               3.91E-05  (threshold= 1.00E-09)
 Smallest eigenvalue of S kept     2.25E-04  (threshold= 2.25E-04, 0 functions deleted, 730 kept)

 Construction of CABS:
 Smallest eigenvalue of S          1.44E-08  (threshold= 1.00E-08)
 Ratio eigmin/eigmax               1.44E-08  (threshold= 1.00E-09)
 Smallest eigenvalue of S kept     1.44E-08  (threshold= 1.44E-08, 0 functions deleted, 730 kept)

 CPU time for CABS singles                        2.12 sec

 CABS-singles contribution of  -0.00053786 patched into reference energy.
 New reference energy        -116.27951348

 AO(A)-basis ORBITAL           loaded. Number of functions:     436
 RI(R)-basis RI                loaded. Number of functions:     730
 DF-basis MP2FIT               loaded. Number of functions:    1246

 Screening thresholds:   THRAO=  1.00D-10  THRMO=  1.00D-09  THRPROD=  1.00D-09
                         THRSW=  1.00D-05  THROV=  1.00D-12  THRAOF12= 1.00D-10

 CPU time for 3-index integral evaluation        18.90 sec
 CPU time for first  half transformation          4.34 sec ( 2977.8 MFLOP/sec)
 CPU time for second half transformation          0.09 sec ( 1690.5 MFLOP/sec)
 CPU time for sorting                             0.16 sec
 CPU time for fitting                             1.72 sec ( 4318.2 MFLOP/sec)
 CPU time for tilde quantities                    2.24 sec ( 4496.8 MFLOP/sec)
 CPU time for assembly                           15.85 sec ( 4474.3 MFLOP/sec)
 CPU time for tranop_f12                         15.55 sec ( 4432.4 MFLOP/sec)
 CPU time for f12 integrals (total)              80.63 sec, Elapsed time:     83.50 sec
 F12-matrices built in  4 passes.
 F12-matrices built in  4 passes.
 F12-matrices built in  4 passes.
 F12-matrices built in  4 passes.
 FC-matrix built in  4 passes.
 CPU time for f12 matrices (total)                5.66 sec, Elapsed time:      5.81 sec

 Diagonal F12 approximation with fixed coefficients:  TSING= 0.500,  TTRIP= 0.250 (scaled by -1/beta)

 DF-MP2-F12 energy corrections:
 ==============================
 Approx.                                    Singlet             Triplet             Total
 DF-MP2-F12/3*C(DX,FIX)                -0.021209808566     -0.002108341282     -0.023318149848
 DF-MP2-F12/3*C(FIX)                   -0.019139009811     -0.001553510753     -0.020692520564
 DF-MP2-F12/3C(FIX)                    -0.019154305081     -0.001604904655     -0.020759209735

 DF-MP2-F12 correlation energies:
 ================================
 Approx.                                    Singlet             Triplet             Ecorr            Total Energy
 DF-MP2                                -0.340818349087     -0.158472202794     -0.499290551881   -116.778804033310
 DF-MP2-F12/3*C(DX,FIX)                -0.362028157653     -0.160580544076     -0.522608701728   -116.802122183158
 DF-MP2-F12/3*C(FIX)                   -0.359957358897     -0.160025713547     -0.519983072445   -116.799496553874
 DF-MP2-F12/3C(FIX)                    -0.359972654167     -0.160077107449     -0.520049761616   -116.799563243045

 SCS-DF-MP2 energies (F_SING= 1.20000  F_TRIP= 0.62222  F_PARALLEL= 0.33333):
 ============================================================================
 SCS-DF-MP2                            -0.507586945087   -116.787100426516
 SCS-DF-MP2-F12/3*C(DX,FIX)            -0.534350572164   -116.813864053593
 SCS-DF-MP2-F12/3*C(FIX)               -0.531520385773   -116.811033867202
 SCS-DF-MP2-F12/3C(FIX)                -0.531570718525   -116.811084199954
 Symmetry transformation completed.

 Number of N-1 electron functions:               8
 Number of N-2 electron functions:              36
 Number of singly external CSFs:              3408
 Number of doubly external CSFs:           5808936
 Total number of CSFs:                     5812345

 Pair and operator lists are different

 Length of J-op  integral file:               0.75 GB
 Length of K-op  integral file:               0.98 GB
 Length of 3-ext integral record:             0.00 MB

 Memory could be reduced to 828.63 Mwords without degradation in triples

 Integral transformation finished. Total CPU: 298.40 sec, npass=  1  Memory used: 389.45 MW

 Reference energy:                   -116.27951348

 Adding F12 terms to K(Cij), methodcc=6,  factor= 1.0

 ITER.      SQ.NORM     CORR.ENERGY   TOTAL ENERGY   ENERGY CHANGE        DEN1      VAR(S)    VAR(P)  DIIS     TIME  TIME/IT
   1      1.13403001    -0.51294229  -116.79245577    -0.01364248    -0.00171754  0.14D-02  0.20D-02  1  1   565.39   162.85
   2      1.14230557    -0.51359224  -116.79310572    -0.00064995    -0.01000916  0.29D-04  0.24D-03  2  2   724.98   164.15
   3      1.14534570    -0.51378348  -116.79329696    -0.00019124    -0.00213629  0.13D-04  0.14D-04  3  3   884.79   164.76
   4      1.14632763    -0.51380228  -116.79331576    -0.00001880    -0.00058440  0.67D-06  0.13D-05  4  4  1044.72   164.91
   5      1.14649793    -0.51380198  -116.79331546     0.00000029    -0.00004076  0.22D-06  0.92D-07  5  5  1205.01   165.10
   6      1.14654232    -0.51379910  -116.79331259     0.00000288    -0.00000630  0.23D-07  0.82D-08  6  6  1365.31   165.32
   7      1.14655429    -0.51379783  -116.79331131     0.00000128    -0.00000359  0.20D-08  0.89D-09  6  1  1524.97   165.43
   8      1.14655598    -0.51379783  -116.79331131     0.00000000     0.00000029  0.40D-09  0.11D-09  6  3  1684.57   165.53
   9      1.14655722    -0.51379776  -116.79331124     0.00000007    -0.00000035  0.33D-10  0.18D-10  6  2  1844.26   165.59
  10      1.14655726    -0.51379777  -116.79331125    -0.00000000     0.00000011  0.88D-11  0.41D-11  6  3  2004.72   165.68
  11      1.14655734    -0.51379777  -116.79331125     0.00000000     0.00000003  0.65D-12  0.33D-12  6  5  2165.17   165.71
  12      1.14655736    -0.51379777  -116.79331125     0.00000000     0.00000000  0.12D-12  0.50D-13  6  4  2324.78   165.69
  13      1.14655735    -0.51379777  -116.79331125    -0.00000000     0.00000000  0.22D-13  0.61D-14  6  6  2484.43   165.68
  14      1.14655736    -0.51379777  -116.79331125    -0.00000000    -0.00000000  0.47D-14  0.14D-14  6  1  2644.37   165.66
  15      1.14655736    -0.51379777  -116.79331125    -0.00000000    -0.00000000  0.71D-15  0.24D-15  6  2  2804.50   165.63

 Norm of t1 vector:      0.05003374      S-energy:     0.00000000      T1 diagnostic:  0.00884480
                                                                       D1 diagnostic:  0.01945315

 Adding energy correction from Wij-K(Fij), methodcc=6  factor= 1.0

  CCSD correlation energy              -0.513797765922
  MP2-F12 correction (uncoupled)       -0.020198647304
  C*T doubles correction               -0.000544089674
  f12b correction                       0.004650981194

   CPU time for triples:   1828.16 sec for i =  1 -  7 /  8 (~  68.8 % done)
   CPU time for triples:   1017.51 sec for i =  8 -  8 /  8 (  100.0 % done)

 Total CPU time for triples:   2845.79 sec

  Ecorr(MP2)                           -0.499299811800
  Ecorr(MP2-F12)                       -0.520059021536
  Scale factor for triples energy       1.041576642419


 RESULTS
 =======

  Reference energy                   -116.278975622793
  F12 singles correction               -0.000537858636

 F12 singles corrections added to reference energy

  New reference energy               -116.279513481429

  F12a singlet correction              -0.019126671774
  F12a triplet correction              -0.001616065204
  F12a total correction                -0.020742736978

 F12a corrections for ansatz F12/3C(FIX) added to CCSD energy

  CCSD-F12a singlet pair energy        -0.387900771988
  CCSD-F12a triplet pair energy        -0.146639731377
  CCSD-F12a correlation energy         -0.534540502900

  Triples (T) contribution (scaled)    -0.017151443180
  Total correlation energy             -0.551691946080

  CCSD-F12a total energy             -116.814053984329
  CCSD[T]-F12a energy                -116.831773670525
  CCSD-T-F12a energy                 -116.830990723876
 !CCSD(T)-F12a total energy          -116.831205427509

 F12b corrections for ansatz F12/3C(FIX) added to CCSD(T)-F12a energy

  CCSD-F12b singlet pair energy        -0.383464784615
  CCSD-F12b triplet pair energy        -0.146424737556
  CCSD-F12b correlation energy         -0.529889521707

  Triples (T) contribution (scaled)    -0.017151443180
  Total correlation energy             -0.547040964887

  CCSD-F12b total energy             -116.809403003136
  CCSD[T]-F12b energy                -116.827122689331
  CCSD-T-F12b energy                 -116.826339742683
 !CCSD(T)-F12b total energy          -116.826554446316

 Timing summary (sec):

 STEP                 CPU(USER)    SYS     CPU(TOT)    WALL
 Transformation        299.54      8.46    308.00    316.22
 CCSD iterations      2398.05     35.82   2433.87   2484.60
 Triples              2845.79      8.47   2854.26   2863.59
 MP2-F12               107.01      2.78    109.79    110.76
 F12b energy           137.33      1.63    138.96    140.40

 Program statistics:

 Available memory in ccsd:              1999999554
 Min. memory needed in ccsd:              16971337
 Max. memory used in ccsd:                21987113
 Max. memory used in cckext:              15122080 (16 integral passes)



 **********************************************************************************************************************************
 DATASETS  * FILE   NREC   LENGTH (MB)   RECORD NAMES
              1      19     2602.04       500      610      700      900      950      970     1000      129      960     1100   
                                          VAR    BASINP    GEOM    SYMINP    ZMAT    AOBASIS   BASIS     P2S    ABASIS      S 
                                         1400     1410     1200     1210     1080     1600     1650     1700     1380   
                                           T        V       H0       H01     AOSYM     SMH    MOLCAS    OPER     JKOP   

              2       6       10.56       700     1000      520     2100     7360     7350   
                                         GEOM     BASIS   MCVARS     RHF    F12ABS    EF12   

 PROGRAMS   *        TOTAL   CCSD(T)    HF-SCF       INT
 CPU TIMES  *      6263.91   5787.97    201.47    274.24
 REAL TIME  *      6964.33 SEC
 DISK USED  *         3.24 GB (local),       80.44 GB (total)
 SF USED    *         5.12 GB
 GA USED    *         4.87 MB       (max)       0.00 MB       (current)
 **********************************************************************************************************************************

 Running procedure: SET_MONOMER1

 Dummy atoms: C1  H41  H42  H43  H44


 Recomputing one-electron integrals since nuclear charges changed


 PROGRAM * SEWARD (Integral evaluation for generally contracted gaussian basis sets)     Author: Roland Lindh, 1990

 Geometry written to block  1 of record 700


 Point group  C1  



 ATOMIC COORDINATES

 NR  ATOM    CHARGE       X              Y              Z

   1  O8      8.00   -4.613766333    5.431639800   -4.129996445
   2  H15     1.00   -5.898213180    6.513508006   -3.364279420
   3  H16     1.00   -5.466221788    3.814790128   -4.412888446
   4  C1      0.00   -6.193010455    2.801518980    2.403542658
   5  H41     0.00   -4.656285171    1.699997622    3.119937832
   6  H42     0.00   -5.973046335    4.726205038    2.982932688
   7  H43     0.00   -7.940251230    2.077186956    3.118237078
   8  H44     0.00   -6.176569838    2.685300823    0.384937212

 Bond lengths in Bohr (Angstrom)

 1-2  1.845688241  1-3  1.849570504  4-5  2.021904040  4-6  2.022002335  4-7  2.021953343
     ( 0.976696155)     ( 0.978750561)     ( 1.069945541)     ( 1.069997556)     ( 1.069971630)

 4-8  2.022015060
     ( 1.070004290)

 Bond angles

  2-1-3  104.78050181   5-4-6  109.53398059   5-4-7  109.65604535   5-4-8  108.43490854

  6-4-7  109.49436728   6-4-8  109.86987750   7-4-8  109.83468330

 NUCLEAR CHARGE:                   10
 NUMBER OF PRIMITIVE AOS:         578
 NUMBER OF SYMMETRY AOS:          474
 NUMBER OF CONTRACTIONS:          436   (  436A   )
 NUMBER OF CORE ORBITALS:           1   (    1A   )
 NUMBER OF VALENCE ORBITALS:        6   (    6A   )

 MOLECULE CHANGED: INITIALIZING OCCUPATION AND DUMP RECORDS


 NUCLEAR REPULSION ENERGY    9.00136291

 Basis set:  JKFIT                   
 Basis size:  1104
 Attributes:
 Sphericals:   T
 Basis set:  MP2FIT                  
 Basis size:  1246
 Attributes:
 Sphericals:   T
 Basis set:  RI                      
 Basis size:   730
 Attributes:
 Sphericals:   T
 Basis set:  TDDFT                   
 Basis size:  1246
 Attributes:
 Sphericals:   T

 Eigenvalues of metric

         1 0.140E-04 0.201E-04 0.316E-04 0.360E-04 0.599E-04 0.682E-04 0.946E-04 0.104E-03


 Contracted 2-electron integrals neglected if value below      1.0D-14

 OPERATOR DM      FOR CENTER  0  COORDINATES:    0.000000    0.000000    0.000000


 **********************************************************************************************************************************
 DATASETS  * FILE   NREC   LENGTH (MB)   RECORD NAMES
              1      18       37.12       500      610      700      900      950      970     1000      129      960     1100   
                                          VAR    BASINP    GEOM    SYMINP    ZMAT    AOBASIS   BASIS     P2S    ABASIS      S 
                                         1400     1410     1200     1210     1080     1600     1650     1700   
                                           T        V       H0       H01     AOSYM     SMH    MOLCAS    OPER   

              2       7       10.59       700     1000      520     2100     7360     7350      200   
                                         GEOM     BASIS   MCVARS     RHF    F12ABS    EF12    OPTIONS    

 PROGRAMS   *        TOTAL       INT   CCSD(T)    HF-SCF       INT
 CPU TIMES  *      6264.35      0.43   5787.97    201.47    274.24
 REAL TIME  *      6965.58 SEC
 DISK USED  *         3.24 GB (local),       80.44 GB (total)
 SF USED    *         5.12 GB
 GA USED    *         4.87 MB       (max)       0.00 MB       (current)
 **********************************************************************************************************************************


 PROGRAM * RHF-SCF (CLOSED SHELL)       Authors: W. Meyer, H.-J. Werner


 NUMBER OF ELECTRONS:       5+    5-    SPACE SYMMETRY=1    SPIN SYMMETRY: Singlet 
 CONVERGENCE THRESHOLDS:    1.00E-08 (Density)    1.00E-11 (Energy)
 MAX. NUMBER OF ITERATIONS:       60
 INTERPOLATION TYPE:            DIIS
 INTERPOLATION STEPS:              2 (START)      1 (STEP)
 LEVEL SHIFTS:                  0.00 (CLOSED)  0.00 (OPEN) 



 Orbital guess generated from atomic densities. Full valence occupancy:    7

 Molecular orbital dump at record        2101.2

 Initial occupancy:   5

 ITERATION    DDIFF          GRAD             ENERGY        2-EL.EN.            DIPOLE MOMENTS         DIIS   ORB.
    1      0.000D+00      0.000D+00       -76.02519188     77.409926   -1.09427   -0.27461    0.24702    0    start
    2      0.000D+00      0.467D-02       -76.05201635     73.759410   -0.63494   -0.15874    0.14353    1    diag
    3      0.223D-02      0.297D-02       -76.06357771     75.380415   -0.74960   -0.18754    0.16940    2    diag
    4      0.845D-03      0.279D-03       -76.06377147     75.289050   -0.74504   -0.18627    0.16841    3    diag
    5      0.105D-03      0.778D-04       -76.06379242     75.303460   -0.74337   -0.18580    0.16805    4    diag
    6      0.331D-04      0.155D-04       -76.06379376     75.302437   -0.74301   -0.18570    0.16798    5    diag
    7      0.864D-05      0.313D-05       -76.06379383     75.302583   -0.74289   -0.18566    0.16795    6    diag
    8      0.264D-05      0.586D-06       -76.06379383     75.302569   -0.74285   -0.18565    0.16794    7    diag
    9      0.504D-06      0.775D-07       -76.06379383     75.302560   -0.74285   -0.18565    0.16794    8    diag
   10      0.537D-07      0.172D-07       -76.06379383     75.302563   -0.74285   -0.18565    0.16794    9    orth
   11      0.139D-07      0.298D-08       -76.06379383     75.302562   -0.74285   -0.18565    0.16794    9    diag
   12      0.252D-08      0.479D-09       -76.06379383     75.302562   -0.74285   -0.18565    0.16794    0    orth

 Final occupancy:   5

 !RHF STATE  1.1 Energy               -76.063793832677
 Nuclear energy                         9.00136291
 One-electron energy                 -122.71643799
 Two-electron energy                   37.65128124
 Virial quotient                       -1.00195851
 !RHF STATE  1.1 Dipole moment         -0.74284771    -0.18565186     0.16794230
 Dipole moment /Debye                  -1.88800689    -0.47184906     0.42683879

 Orbital energies:

         1.1          2.1          3.1          4.1          5.1          6.1          7.1
    -20.568147    -1.342323    -0.707190    -0.580522    -0.508756     0.017818     0.037378


 HOMO      5.1    -0.508756 =     -13.8440eV
 LUMO      6.1     0.017818 =       0.4848eV
 LUMO-HOMO         0.526574 =      14.3288eV


 **********************************************************************************************************************************
 DATASETS  * FILE   NREC   LENGTH (MB)   RECORD NAMES
              1      18       37.12       500      610      700      900      950      970     1000      129      960     1100   
                                          VAR    BASINP    GEOM    SYMINP    ZMAT    AOBASIS   BASIS     P2S    ABASIS      S 
                                         1400     1410     1200     1210     1080     1600     1650     1700   
                                           T        V       H0       H01     AOSYM     SMH    MOLCAS    OPER   

              2       8       17.39       700     1000      520     2100     7360     7350      200     2101   
                                         GEOM     BASIS   MCVARS     RHF    F12ABS    EF12    OPTIONS    RHF  

 PROGRAMS   *        TOTAL    HF-SCF       INT   CCSD(T)    HF-SCF       INT
 CPU TIMES  *      6483.87    219.51      0.43   5787.97    201.47    274.24
 REAL TIME  *      7210.49 SEC
 DISK USED  *         3.24 GB (local),       80.44 GB (total)
 SF USED    *         5.12 GB
 GA USED    *         4.87 MB       (max)       0.00 MB       (current)
 **********************************************************************************************************************************

 Basis set:  JKFIT                   
 Basis size:  1104
 Attributes:
 Sphericals:   T
 Basis set:  MP2FIT                  
 Basis size:  1246
 Attributes:
 Sphericals:   T
 Basis set:  RI                      
 Basis size:   730
 Attributes:
 Sphericals:   T
 Basis set:  TDDFT                   
 Basis size:  1246
 Attributes:
 Sphericals:   T

 PROGRAM * CCSD (Closed-shell coupled cluster)     Authors: C. Hampel, H.-J. Werner, 1991, M. Deegan, P.J. Knowles, 1992

                                  CCSD-F12 implementation by  H.-J. Werner, 2007

                   Density fitting integral evaluation by F.R. Manby, 2003,2007, G. Knizia, 2010



 Convergence thresholds:  THRVAR = 1.00D-08  THRDEN = 1.00D-10

 CCSD(T)     terms to be evaluated (factor= 1.000)


 Number of core orbitals:           1 (   1 )
 Number of closed-shell orbitals:   4 (   4 )
 Number of external orbitals:     431 ( 431 )

 Molecular orbitals read from record     2101.2  Type=RHF/CANONICAL (state 1.1)

 MP2-F12 correlation treatment (H.-J. Werner, 2006)
 ==================================================

 Using MP2-F12 with ansatz 3C(FIX)

 Using projected zeroth-order Hamiltonian (+Z)

 FOCKRIB=T FOCKRIC=T FOCKRIP=T CABSP=T CABSA=T CABSK=T CABSF=T GBC=F EBC=F DMAT=T NOFIK=T NOPAO=1 SOLVE=-1  USEPAO=0
 EXCH_A= T EXCH_B= F EXCH_C= F EXCH_P= F

 Geminal basis:    OPTFULL  GEM_TYPE=SLATER  BETA=1.0  NGEM=6

 Optimizing Gaussian exponents for each gem_beta

 Geminal optimization for beta= 1.0000
 Weight function:   m=0, omega= 1.4646

 Augmented Hessian optimization of geminal fit. Trust ratio= 0.40000
 Convergence reached after   2 iterations. Final gradient= 8.31D-16, Step= 4.24D-06, Delta= 1.28D-09

 Alpha:                 0.19532     0.81920     2.85917     9.50073    35.69989   197.79328
 Coeff:                 0.27070     0.30552     0.18297     0.10986     0.06810     0.04224


 All pairs explicitly correlated. Number of r12-pairs:           10

 Excluding core orbitals from MO domains

 AO(A)-basis ORBITAL           loaded. Number of functions:     436
 RI(R)-basis RI                loaded. Number of functions:     730
 DF-basis JKFIT                loaded. Number of functions:    1104

 Screening thresholds:   THRAO=  1.00D-10  THRMO=  1.00D-09  THRPROD=  1.00D-09
                         THRSW=  1.00D-05  THROV=  1.00D-12  THRAOF12= 1.00D-10

 CPU time for Fock operators                      9.48 sec

 Construction of ABS:
 Smallest eigenvalue of S          2.25E-04  (threshold= 1.00E-08)
 Ratio eigmin/eigmax               3.91E-05  (threshold= 1.00E-09)
 Smallest eigenvalue of S kept     2.25E-04  (threshold= 2.25E-04, 0 functions deleted, 730 kept)

 Construction of CABS:
 Smallest eigenvalue of S          1.44E-08  (threshold= 1.00E-08)
 Ratio eigmin/eigmax               1.44E-08  (threshold= 1.00E-09)
 Smallest eigenvalue of S kept     1.44E-08  (threshold= 1.44E-08, 0 functions deleted, 730 kept)

 CPU time for CABS singles                        2.16 sec

 CABS-singles contribution of  -0.00029145 patched into reference energy.
 New reference energy         -76.06408528

 AO(A)-basis ORBITAL           loaded. Number of functions:     436
 RI(R)-basis RI                loaded. Number of functions:     730
 DF-basis MP2FIT               loaded. Number of functions:    1246

 Screening thresholds:   THRAO=  1.00D-10  THRMO=  1.00D-09  THRPROD=  1.00D-09
                         THRSW=  1.00D-05  THROV=  1.00D-12  THRAOF12= 1.00D-10

 CPU time for 3-index integral evaluation        19.57 sec
 CPU time for first  half transformation          3.70 sec ( 1769.2 MFLOP/sec)
 CPU time for second half transformation          0.03 sec ( 1274.9 MFLOP/sec)
 CPU time for sorting                             0.08 sec
 CPU time for fitting                             1.06 sec ( 1321.1 MFLOP/sec)
 CPU time for tilde quantities                    1.51 sec ( 5702.2 MFLOP/sec)
 CPU time for assembly                            4.82 sec ( 4156.8 MFLOP/sec)
 CPU time for tranop_f12                          4.49 sec ( 3457.7 MFLOP/sec)
 CPU time for f12 integrals (total)              42.89 sec, Elapsed time:     43.96 sec
 F12-matrices built in  4 passes.
 F12-matrices built in  4 passes.
 F12-matrices built in  4 passes.
 F12-matrices built in  4 passes.
 FC-matrix built in  4 passes.
 CPU time for f12 matrices (total)                1.59 sec, Elapsed time:      1.65 sec

 Diagonal F12 approximation with fixed coefficients:  TSING= 0.500,  TTRIP= 0.250 (scaled by -1/beta)

 DF-MP2-F12 energy corrections:
 ==============================
 Approx.                                    Singlet             Triplet             Total
 DF-MP2-F12/3*C(DX,FIX)                -0.013706684847     -0.001529420539     -0.015236105385
 DF-MP2-F12/3*C(FIX)                   -0.012083751265     -0.001075122889     -0.013158874154
 DF-MP2-F12/3C(FIX)                    -0.012069700117     -0.001112361053     -0.013182061170

 DF-MP2-F12 correlation energies:
 ================================
 Approx.                                    Singlet             Triplet             Ecorr            Total Energy
 DF-MP2                                -0.186162160561     -0.101364868266     -0.287527028827    -76.351612308956
 DF-MP2-F12/3*C(DX,FIX)                -0.199868845408     -0.102894288805     -0.302763134213    -76.366848414342
 DF-MP2-F12/3*C(FIX)                   -0.198245911826     -0.102439991156     -0.300685902982    -76.364771183110
 DF-MP2-F12/3C(FIX)                    -0.198231860678     -0.102477229319     -0.300709089997    -76.364794370126

 SCS-DF-MP2 energies (F_SING= 1.20000  F_TRIP= 0.62222  F_PARALLEL= 0.33333):
 ============================================================================
 SCS-DF-MP2                            -0.286466066261    -76.350551346390
 SCS-DF-MP2-F12/3*C(DX,FIX)            -0.303865727524    -76.367951007652
 SCS-DF-MP2-F12/3*C(FIX)               -0.301635533133    -76.365720813261
 SCS-DF-MP2-F12/3C(FIX)                -0.301641842167    -76.365727122296
 Symmetry transformation completed.

 Number of N-1 electron functions:               4
 Number of N-2 electron functions:              10
 Number of singly external CSFs:              1724
 Number of doubly external CSFs:           1486950
 Total number of CSFs:                     1488675

 Pair and operator lists are different

 Length of J-op  integral file:             203.65 MB
 Length of K-op  integral file:             338.08 MB
 Length of 3-ext integral record:             0.00 MB

 Memory could be reduced to 526.20 Mwords without degradation in triples

 Integral transformation finished. Total CPU: 160.36 sec, npass=  1  Memory used: 214.75 MW

 Reference energy:                    -76.06408528

 Adding F12 terms to K(Cij), methodcc=6,  factor= 1.0

 ITER.      SQ.NORM     CORR.ENERGY   TOTAL ENERGY   ENERGY CHANGE        DEN1      VAR(S)    VAR(P)  DIIS     TIME  TIME/IT
   1      1.06347289    -0.28696039   -76.35104567     0.00057062     0.00672616  0.79D-03  0.10D-02  1  1   269.00    50.24
   2      1.06699598    -0.28676274   -76.35084802     0.00019766    -0.00487361  0.13D-04  0.11D-03  2  2   316.41    51.68
   3      1.06821841    -0.28685867   -76.35094395    -0.00009593    -0.00081692  0.97D-05  0.75D-05  3  3   363.93    52.06
   4      1.06876845    -0.28687352   -76.35095880    -0.00001485    -0.00033801  0.53D-06  0.73D-06  4  4   411.13    52.77
   5      1.06887350    -0.28687189   -76.35095717     0.00000162    -0.00002980  0.17D-06  0.57D-07  5  5   458.34    53.38
   6      1.06890640    -0.28686977   -76.35095505     0.00000213    -0.00000399  0.20D-07  0.48D-08  6  6   505.51    53.51
   7      1.06891573    -0.28686916   -76.35095444     0.00000060    -0.00000188  0.15D-08  0.75D-09  6  1   552.79    54.37
   8      1.06891714    -0.28686914   -76.35095442     0.00000002     0.00000019  0.31D-09  0.96D-10  6  3   600.42    54.85
   9      1.06891816    -0.28686909   -76.35095437     0.00000005    -0.00000026  0.22D-10  0.10D-10  6  2   647.80    55.00
  10      1.06891834    -0.28686907   -76.35095436     0.00000001     0.00000001  0.20D-11  0.12D-11  6  4   695.27    55.03
  11      1.06891834    -0.28686908   -76.35095436    -0.00000000     0.00000003  0.46D-12  0.17D-12  6  5   742.46    55.17
  12      1.06891834    -0.28686908   -76.35095436    -0.00000000     0.00000001  0.79D-13  0.24D-13  6  6   789.22    55.29
  13      1.06891833    -0.28686908   -76.35095436    -0.00000000     0.00000000  0.14D-13  0.42D-14  6  1   835.80    55.32
  14      1.06891833    -0.28686908   -76.35095436    -0.00000000     0.00000000  0.20D-14  0.75D-15  6  3   882.78    55.28
  15      1.06891832    -0.28686908   -76.35095436    -0.00000000    -0.00000000  0.18D-15  0.11D-15  6  2   929.87    55.24
  16      1.06891832    -0.28686908   -76.35095436     0.00000000    -0.00000000  0.37D-16  0.17D-16  6  4   976.08    55.38

 Norm of t1 vector:      0.03674631      S-energy:    -0.00000000      T1 diagnostic:  0.00918658
                                                                       D1 diagnostic:  0.01865802

 Adding energy correction from Wij-K(Fij), methodcc=6  factor= 1.0

  CCSD correlation energy              -0.286869077146
  MP2-F12 correction (uncoupled)       -0.012746790829
  C*T doubles correction               -0.000416636354
  f12b correction                       0.002709934620


 Total CPU time for triples:    424.22 sec

  Ecorr(MP2)                           -0.287531010225
  Ecorr(MP2-F12)                       -0.300713071395
  Scale factor for triples energy       1.045845702553


 RESULTS
 =======

  Reference energy                    -76.063793832680
  F12 singles correction               -0.000291447449

 F12 singles corrections added to reference energy

  New reference energy                -76.064085280129

  F12a singlet correction              -0.012041859922
  F12a triplet correction              -0.001121567261
  F12a total correction                -0.013163427183

 F12a corrections for ansatz F12/3C(FIX) added to CCSD energy

  CCSD-F12a singlet pair energy        -0.209284415168
  CCSD-F12a triplet pair energy        -0.090748089118
  CCSD-F12a correlation energy         -0.300032504329

  Triples (T) contribution (scaled)    -0.009924087990
  Total correlation energy             -0.309956592319

  CCSD-F12a total energy              -76.364117784458
  CCSD[T]-F12a energy                 -76.374368085667
  CCSD-T-F12a energy                  -76.373900281754
 !CCSD(T)-F12a total energy           -76.374041872447

 F12b corrections for ansatz F12/3C(FIX) added to CCSD(T)-F12a energy

  CCSD-F12b singlet pair energy        -0.206721048416
  CCSD-F12b triplet pair energy        -0.090601521250
  CCSD-F12b correlation energy         -0.297322569709

  Triples (T) contribution (scaled)    -0.009924087990
  Total correlation energy             -0.307246657699

  CCSD-F12b total energy              -76.361407849838
  CCSD[T]-F12b energy                 -76.371658151047
  CCSD-T-F12b energy                  -76.371190347134
 !CCSD(T)-F12b total energy           -76.371331937827

 Timing summary (sec):

 STEP                 CPU(USER)    SYS     CPU(TOT)    WALL
 Transformation        160.71      4.64    165.35    166.29
 CCSD iterations       754.27     30.09    784.36    886.23
 Triples               424.22      1.38    425.60    437.47
 MP2-F12                61.20      1.33     62.53     62.61
 F12b energy            42.25      1.47     43.72     47.47

 Program statistics:

 Available memory in ccsd:              1999999871
 Min. memory needed in ccsd:               6763924
 Max. memory used in ccsd:                 7862874
 Max. memory used in cckext:               5171974 (17 integral passes)



 **********************************************************************************************************************************
 DATASETS  * FILE   NREC   LENGTH (MB)   RECORD NAMES
              1      19     1346.98       500      610      700      900      950      970     1000      129      960     1100   
                                          VAR    BASINP    GEOM    SYMINP    ZMAT    AOBASIS   BASIS     P2S    ABASIS      S 
                                         1400     1410     1200     1210     1080     1600     1650     1700     1380   
                                           T        V       H0       H01     AOSYM     SMH    MOLCAS    OPER     JKOP   

              2       8       17.39       700     1000      520     2100     7360     7350      200     2101   
                                         GEOM     BASIS   MCVARS     RHF    F12ABS    EF12    OPTIONS    RHF  

 PROGRAMS   *        TOTAL   CCSD(T)    HF-SCF       INT   CCSD(T)    HF-SCF       INT
 CPU TIMES  *      7926.77   1442.90    219.51      0.43   5787.97    201.47    274.24
 REAL TIME  *      8811.36 SEC
 DISK USED  *         3.24 GB (local),       80.44 GB (total)
 SF USED    *         5.12 GB
 GA USED    *         4.87 MB       (max)       0.00 MB       (current)
 **********************************************************************************************************************************

 Running procedure: SET_MONOMER2

 Dummy atoms: O8  H15  H16


 Recomputing one-electron integrals since nuclear charges changed


 PROGRAM * SEWARD (Integral evaluation for generally contracted gaussian basis sets)     Author: Roland Lindh, 1990

 Geometry written to block  1 of record 700


 Point group  C1  



 ATOMIC COORDINATES

 NR  ATOM    CHARGE       X              Y              Z

   1  O8      0.00   -4.613766333    5.431639800   -4.129996445
   2  H15     0.00   -5.898213180    6.513508006   -3.364279420
   3  H16     0.00   -5.466221788    3.814790128   -4.412888446
   4  C1      6.00   -6.193010455    2.801518980    2.403542658
   5  H41     1.00   -4.656285171    1.699997622    3.119937832
   6  H42     1.00   -5.973046335    4.726205038    2.982932688
   7  H43     1.00   -7.940251230    2.077186956    3.118237078
   8  H44     1.00   -6.176569838    2.685300823    0.384937212

 Bond lengths in Bohr (Angstrom)

 1-2  1.845688241  1-3  1.849570504  4-5  2.021904040  4-6  2.022002335  4-7  2.021953343
     ( 0.976696155)     ( 0.978750561)     ( 1.069945541)     ( 1.069997556)     ( 1.069971630)

 4-8  2.022015060
     ( 1.070004290)

 Bond angles

  2-1-3  104.78050181   5-4-6  109.53398059   5-4-7  109.65604535   5-4-8  108.43490854

  6-4-7  109.49436728   6-4-8  109.86987750   7-4-8  109.83468330

 NUCLEAR CHARGE:                   10
 NUMBER OF PRIMITIVE AOS:         578
 NUMBER OF SYMMETRY AOS:          474
 NUMBER OF CONTRACTIONS:          436   (  436A   )
 NUMBER OF CORE ORBITALS:           1   (    1A   )
 NUMBER OF VALENCE ORBITALS:        8   (    8A   )

 MOLECULE CHANGED: INITIALIZING OCCUPATION AND DUMP RECORDS


 NUCLEAR REPULSION ENERGY   13.68681606

 Basis set:  JKFIT                   
 Basis size:  1104
 Attributes:
 Sphericals:   T
 Basis set:  MP2FIT                  
 Basis size:  1246
 Attributes:
 Sphericals:   T
 Basis set:  RI                      
 Basis size:   730
 Attributes:
 Sphericals:   T
 Basis set:  TDDFT                   
 Basis size:  1246
 Attributes:
 Sphericals:   T

 Eigenvalues of metric

         1 0.140E-04 0.201E-04 0.316E-04 0.360E-04 0.599E-04 0.682E-04 0.946E-04 0.104E-03


 Contracted 2-electron integrals neglected if value below      1.0D-14

 OPERATOR DM      FOR CENTER  0  COORDINATES:    0.000000    0.000000    0.000000


 **********************************************************************************************************************************
 DATASETS  * FILE   NREC   LENGTH (MB)   RECORD NAMES
              1      18       37.12       500      610      700      900      950      970     1000      129      960     1100   
                                          VAR    BASINP    GEOM    SYMINP    ZMAT    AOBASIS   BASIS     P2S    ABASIS      S 
                                         1400     1410     1200     1210     1080     1600     1650     1700   
                                           T        V       H0       H01     AOSYM     SMH    MOLCAS    OPER   

              2       8       17.39       700     1000      520     2100     7360     7350      200     2101   
                                         GEOM     BASIS   MCVARS     RHF    F12ABS    EF12    OPTIONS    RHF  

 PROGRAMS   *        TOTAL       INT   CCSD(T)    HF-SCF       INT   CCSD(T)    HF-SCF       INT
 CPU TIMES  *      7927.17      0.39   1442.90    219.51      0.43   5787.97    201.47    274.24
 REAL TIME  *      8812.34 SEC
 DISK USED  *         3.24 GB (local),       80.44 GB (total)
 SF USED    *         5.12 GB
 GA USED    *         4.87 MB       (max)       0.00 MB       (current)
 **********************************************************************************************************************************


 PROGRAM * RHF-SCF (CLOSED SHELL)       Authors: W. Meyer, H.-J. Werner


 NUMBER OF ELECTRONS:       5+    5-    SPACE SYMMETRY=1    SPIN SYMMETRY: Singlet 
 CONVERGENCE THRESHOLDS:    1.00E-08 (Density)    1.00E-11 (Energy)
 MAX. NUMBER OF ITERATIONS:       60
 INTERPOLATION TYPE:            DIIS
 INTERPOLATION STEPS:              2 (START)      1 (STEP)
 LEVEL SHIFTS:                  0.00 (CLOSED)  0.00 (OPEN) 



 Orbital guess generated from atomic densities. Full valence occupancy:    9

 Molecular orbital dump at record        2102.2

 Initial occupancy:   5

 ITERATION    DDIFF          GRAD             ENERGY        2-EL.EN.            DIPOLE MOMENTS         DIIS   ORB.
    1      0.000D+00      0.000D+00       -40.19609528     53.506289    0.00411   -0.00276   -0.00130    0    start
    2      0.000D+00      0.257D-02       -40.21334935     52.217623    0.00129   -0.00087   -0.00038    1    diag
    3      0.158D-02      0.998D-03       -40.21562527     52.672083    0.00182   -0.00123   -0.00055    2    diag
    4      0.442D-03      0.249D-03       -40.21594472     52.617270    0.00162   -0.00110   -0.00048    3    diag
    5      0.168D-03      0.322D-04       -40.21595021     52.619418    0.00159   -0.00108   -0.00047    4    diag
    6      0.423D-04      0.264D-05       -40.21595025     52.619554    0.00159   -0.00108   -0.00047    5    diag
    7      0.562D-05      0.212D-06       -40.21595025     52.619515    0.00159   -0.00108   -0.00047    6    diag
    8      0.229D-06      0.170D-07       -40.21595025     52.619516    0.00159   -0.00108   -0.00047    7    diag
    9      0.829D-07      0.218D-08       -40.21595025     52.619516    0.00159   -0.00108   -0.00047    8    diag
   10      0.818D-08      0.595D-09       -40.21595025     52.619516    0.00159   -0.00108   -0.00047    0    orth

 Final occupancy:   5

 !RHF STATE  1.1 Energy               -40.215950252662
 Nuclear energy                        13.68681606
 One-electron energy                  -80.21252439
 Two-electron energy                   26.30975808
 Virial quotient                       -0.99838103
 !RHF STATE  1.1 Dipole moment          0.00159175    -0.00107554    -0.00046749
 Dipole moment /Debye                   0.00404557    -0.00273356    -0.00118816

 Orbital energies:

         1.1          2.1          3.1          4.1          5.1          6.1          7.1
    -11.196223    -0.950661    -0.551889    -0.549955    -0.547776     0.024486     0.038824


 HOMO      5.1    -0.547776 =     -14.9057eV
 LUMO      6.1     0.024486 =       0.6663eV
 LUMO-HOMO         0.572262 =      15.5721eV


 **********************************************************************************************************************************
 DATASETS  * FILE   NREC   LENGTH (MB)   RECORD NAMES
              1      18       37.12       500      610      700      900      950      970     1000      129      960     1100   
                                          VAR    BASINP    GEOM    SYMINP    ZMAT    AOBASIS   BASIS     P2S    ABASIS      S 
                                         1400     1410     1200     1210     1080     1600     1650     1700   
                                           T        V       H0       H01     AOSYM     SMH    MOLCAS    OPER   

              2       9       27.51       700     1000      520     2100     7360     7350      200     2101     2102   
                                         GEOM     BASIS   MCVARS     RHF    F12ABS    EF12    OPTIONS    RHF      RHF  

 PROGRAMS   *        TOTAL    HF-SCF       INT   CCSD(T)    HF-SCF       INT   CCSD(T)    HF-SCF       INT
 CPU TIMES  *      8112.19    185.02      0.39   1442.90    219.51      0.43   5787.97    201.47    274.24
 REAL TIME  *      9019.54 SEC
 DISK USED  *         3.24 GB (local),       80.44 GB (total)
 SF USED    *         5.12 GB
 GA USED    *         4.87 MB       (max)       0.00 MB       (current)
 **********************************************************************************************************************************

 Basis set:  JKFIT                   
 Basis size:  1104
 Attributes:
 Sphericals:   T
 Basis set:  MP2FIT                  
 Basis size:  1246
 Attributes:
 Sphericals:   T
 Basis set:  RI                      
 Basis size:   730
 Attributes:
 Sphericals:   T
 Basis set:  TDDFT                   
 Basis size:  1246
 Attributes:
 Sphericals:   T

 PROGRAM * CCSD (Closed-shell coupled cluster)     Authors: C. Hampel, H.-J. Werner, 1991, M. Deegan, P.J. Knowles, 1992

                                  CCSD-F12 implementation by  H.-J. Werner, 2007

                   Density fitting integral evaluation by F.R. Manby, 2003,2007, G. Knizia, 2010



 Convergence thresholds:  THRVAR = 1.00D-08  THRDEN = 1.00D-10

 CCSD(T)     terms to be evaluated (factor= 1.000)


 Number of core orbitals:           1 (   1 )
 Number of closed-shell orbitals:   4 (   4 )
 Number of external orbitals:     431 ( 431 )

 Molecular orbitals read from record     2102.2  Type=RHF/CANONICAL (state 1.1)

 MP2-F12 correlation treatment (H.-J. Werner, 2006)
 ==================================================

 Using MP2-F12 with ansatz 3C(FIX)

 Using projected zeroth-order Hamiltonian (+Z)

 FOCKRIB=T FOCKRIC=T FOCKRIP=T CABSP=T CABSA=T CABSK=T CABSF=T GBC=F EBC=F DMAT=T NOFIK=T NOPAO=1 SOLVE=-1  USEPAO=0
 EXCH_A= T EXCH_B= F EXCH_C= F EXCH_P= F

 Geminal basis:    OPTFULL  GEM_TYPE=SLATER  BETA=1.0  NGEM=6

 Optimizing Gaussian exponents for each gem_beta

 Geminal optimization for beta= 1.0000
 Weight function:   m=0, omega= 1.4646

 Augmented Hessian optimization of geminal fit. Trust ratio= 0.40000
 Convergence reached after   2 iterations. Final gradient= 7.85D-16, Step= 4.26D-06, Delta= 1.28D-09

 Alpha:                 0.19532     0.81920     2.85917     9.50073    35.69989   197.79328
 Coeff:                 0.27070     0.30552     0.18297     0.10986     0.06810     0.04224


 All pairs explicitly correlated. Number of r12-pairs:           10

 Excluding core orbitals from MO domains

 AO(A)-basis ORBITAL           loaded. Number of functions:     436
 RI(R)-basis RI                loaded. Number of functions:     730
 DF-basis JKFIT                loaded. Number of functions:    1104

 Screening thresholds:   THRAO=  1.00D-10  THRMO=  1.00D-09  THRPROD=  1.00D-09
                         THRSW=  1.00D-05  THROV=  1.00D-12  THRAOF12= 1.00D-10

 CPU time for Fock operators                      9.55 sec

 Construction of ABS:
 Smallest eigenvalue of S          2.25E-04  (threshold= 1.00E-08)
 Ratio eigmin/eigmax               3.91E-05  (threshold= 1.00E-09)
 Smallest eigenvalue of S kept     2.25E-04  (threshold= 2.25E-04, 0 functions deleted, 730 kept)

 Construction of CABS:
 Smallest eigenvalue of S          1.44E-08  (threshold= 1.00E-08)
 Ratio eigmin/eigmax               1.44E-08  (threshold= 1.00E-09)
 Smallest eigenvalue of S kept     1.44E-08  (threshold= 1.44E-08, 0 functions deleted, 730 kept)

 CPU time for CABS singles                        2.15 sec

 CABS-singles contribution of  -0.00024582 patched into reference energy.
 New reference energy         -40.21619607

 AO(A)-basis ORBITAL           loaded. Number of functions:     436
 RI(R)-basis RI                loaded. Number of functions:     730
 DF-basis MP2FIT               loaded. Number of functions:    1246

 Screening thresholds:   THRAO=  1.00D-10  THRMO=  1.00D-09  THRPROD=  1.00D-09
                         THRSW=  1.00D-05  THROV=  1.00D-12  THRAOF12= 1.00D-10

 CPU time for 3-index integral evaluation        18.74 sec
 CPU time for first  half transformation          2.74 sec ( 2363.0 MFLOP/sec)
 CPU time for second half transformation          0.04 sec (  959.6 MFLOP/sec)
 CPU time for sorting                             0.06 sec
 CPU time for fitting                             1.47 sec ( 1905.3 MFLOP/sec)
 CPU time for tilde quantities                    1.46 sec ( 4053.6 MFLOP/sec)
 CPU time for assembly                            4.83 sec ( 4442.4 MFLOP/sec)
 CPU time for tranop_f12                          4.63 sec ( 4199.6 MFLOP/sec)
 CPU time for f12 integrals (total)              41.16 sec, Elapsed time:     42.18 sec
 F12-matrices built in  4 passes.
 F12-matrices built in  4 passes.
 F12-matrices built in  4 passes.
 F12-matrices built in  4 passes.
 FC-matrix built in  4 passes.
 CPU time for f12 matrices (total)                1.71 sec, Elapsed time:      1.73 sec

 Diagonal F12 approximation with fixed coefficients:  TSING= 0.500,  TTRIP= 0.250 (scaled by -1/beta)

 DF-MP2-F12 energy corrections:
 ==============================
 Approx.                                    Singlet             Triplet             Total
 DF-MP2-F12/3*C(DX,FIX)                -0.007489604709     -0.000574348688     -0.008063953396
 DF-MP2-F12/3*C(FIX)                   -0.007042293083     -0.000472895192     -0.007515188274
 DF-MP2-F12/3C(FIX)                    -0.007071296012     -0.000486387164     -0.007557683176

 DF-MP2-F12 correlation energies:
 ================================
 Approx.                                    Singlet             Triplet             Ecorr            Total Energy
 DF-MP2                                -0.154427577535     -0.056464838228     -0.210892415763    -40.427088487300
 DF-MP2-F12/3*C(DX,FIX)                -0.161917182244     -0.057039186916     -0.218956369160    -40.435152440697
 DF-MP2-F12/3*C(FIX)                   -0.161469870618     -0.056937733419     -0.218407604038    -40.434603675575
 DF-MP2-F12/3C(FIX)                    -0.161498873547     -0.056951225392     -0.218450098940    -40.434646170477

 SCS-DF-MP2 energies (F_SING= 1.20000  F_TRIP= 0.62222  F_PARALLEL= 0.33333):
 ============================================================================
 SCS-DF-MP2                            -0.220446770162    -40.436642841699
 SCS-DF-MP2-F12/3*C(DX,FIX)            -0.229791668329    -40.445987739867
 SCS-DF-MP2-F12/3*C(FIX)               -0.229191767758    -40.445387839296
 SCS-DF-MP2-F12/3C(FIX)                -0.229234966279    -40.445431037816
 Symmetry transformation completed.

 Number of N-1 electron functions:               4
 Number of N-2 electron functions:              10
 Number of singly external CSFs:              1724
 Number of doubly external CSFs:           1486950
 Total number of CSFs:                     1488675

 Pair and operator lists are different

 Length of J-op  integral file:             203.65 MB
 Length of K-op  integral file:             338.08 MB
 Length of 3-ext integral record:             0.00 MB

 Memory could be reduced to 526.20 Mwords without degradation in triples

 Integral transformation finished. Total CPU: 158.61 sec, npass=  1  Memory used: 214.75 MW

 Reference energy:                    -40.21619607

 Adding F12 terms to K(Cij), methodcc=6,  factor= 1.0

 ITER.      SQ.NORM     CORR.ENERGY   TOTAL ENERGY   ENERGY CHANGE        DEN1      VAR(S)    VAR(P)  DIIS     TIME  TIME/IT
   1      1.07024138    -0.22512502   -40.44132109    -0.01422727    -0.00847285  0.63D-03  0.94D-03  1  1   264.45    52.16
   2      1.07517197    -0.22597547   -40.44217155    -0.00085046    -0.00530366  0.15D-04  0.10D-03  2  2   311.69    53.05
   3      1.07679507    -0.22606326   -40.44225933    -0.00008779    -0.00117784  0.22D-05  0.59D-05  3  3   359.11    52.99
   4      1.07717809    -0.22607054   -40.44226661    -0.00000728    -0.00020556  0.14D-06  0.33D-06  4  4   406.25    53.00
   5      1.07723016    -0.22607217   -40.44226824    -0.00000163    -0.00000896  0.11D-07  0.21D-07  5  5   454.70    52.77
   6      1.07723876    -0.22607089   -40.44226696     0.00000129    -0.00000326  0.78D-09  0.16D-08  6  6   502.90    52.54
   7      1.07724012    -0.22607056   -40.44226663     0.00000033    -0.00000085  0.51D-10  0.12D-09  6  1   551.29    52.27
   8      1.07724010    -0.22607062   -40.44226669    -0.00000007     0.00000020  0.54D-11  0.74D-11  6  3   600.41    52.24
   9      1.07724023    -0.22607061   -40.44226668     0.00000002    -0.00000009  0.41D-12  0.60D-12  6  2   648.89    52.09
  10      1.07724024    -0.22607060   -40.44226668     0.00000000     0.00000001  0.52D-13  0.59D-13  6  4   697.51    51.99
  11      1.07724024    -0.22607060   -40.44226667     0.00000000     0.00000000  0.47D-14  0.59D-14  6  5   746.49    51.89
  12      1.07724024    -0.22607060   -40.44226667     0.00000000     0.00000000  0.11D-15  0.64D-15  6  6   795.33    51.82
  13      1.07724024    -0.22607060   -40.44226667    -0.00000000     0.00000000  0.78D-17  0.68D-16  6  1   843.00    51.64
  14      1.07724024    -0.22607060   -40.44226667    -0.00000000     0.00000000  0.11D-17  0.84D-17  6  3   890.86    51.48

 Norm of t1 vector:      0.03291667      S-energy:    -0.00000000      T1 diagnostic:  0.00822917
                                                                       D1 diagnostic:  0.01319201

 Adding energy correction from Wij-K(Fij), methodcc=6  factor= 1.0

  CCSD correlation energy              -0.226070602755
  MP2-F12 correction (uncoupled)       -0.007434798428
  C*T doubles correction               -0.000126043907
  f12b correction                       0.001935676435

 Total CPU time for triples:    423.51 sec

  Ecorr(MP2)                           -0.210897746451
  Ecorr(MP2-F12)                       -0.218455429628
  Scale factor for triples energy       1.035835770195


 RESULTS
 =======

  Reference energy                    -40.215950252662
  F12 singles correction               -0.000245818875

 F12 singles corrections added to reference energy

  New reference energy                -40.216196071537

  F12a singlet correction              -0.007071997844
  F12a triplet correction              -0.000488844491
  F12a total correction                -0.007560842335

 F12a corrections for ansatz F12/3C(FIX) added to CCSD energy

  CCSD-F12a singlet pair energy        -0.178450251916
  CCSD-F12a triplet pair energy        -0.055181193170
  CCSD-F12a correlation energy         -0.233631445090

  Triples (T) contribution (scaled)    -0.007053388192
  Total correlation energy             -0.240684833282

  CCSD-F12a total energy              -40.449827516627
  CCSD[T]-F12a energy                 -40.457117423946
  CCSD-T-F12a energy                  -40.456811059986
 !CCSD(T)-F12a total energy           -40.456880904819

 F12b corrections for ansatz F12/3C(FIX) added to CCSD(T)-F12a energy

  CCSD-F12b singlet pair energy        -0.176582079107
  CCSD-F12b triplet pair energy        -0.055113689544
  CCSD-F12b correlation energy         -0.231695768655

  Triples (T) contribution (scaled)    -0.007053388192
  Total correlation energy             -0.238749156847

  CCSD-F12b total energy              -40.447891840192
  CCSD[T]-F12b energy                 -40.455181747511
  CCSD-T-F12b energy                  -40.454875383550
 !CCSD(T)-F12b total energy           -40.454945228384

 Timing summary (sec):

 STEP                 CPU(USER)    SYS     CPU(TOT)    WALL
 Transformation        158.99      4.46    163.45    163.68
 CCSD iterations       672.38     23.22    695.60    720.94
 Triples               423.51      1.29    424.80    426.29
 MP2-F12                59.58      1.35     60.93     61.01
 F12b energy            44.20      1.43     45.63     45.69

 Program statistics:

 Available memory in ccsd:              1999999866
 Min. memory needed in ccsd:               6763924
 Max. memory used in ccsd:                 7862874
 Max. memory used in cckext:               5171974 (15 integral passes)



 **********************************************************************************************************************************
 DATASETS  * FILE   NREC   LENGTH (MB)   RECORD NAMES
              1      19     1346.98       500      610      700      900      950      970     1000      129      960     1100   
                                          VAR    BASINP    GEOM    SYMINP    ZMAT    AOBASIS   BASIS     P2S    ABASIS      S 
                                         1400     1410     1200     1210     1080     1600     1650     1700     1380   
                                           T        V       H0       H01     AOSYM     SMH    MOLCAS    OPER     JKOP   

              2       9       27.51       700     1000      520     2100     7360     7350      200     2101     2102   
                                         GEOM     BASIS   MCVARS     RHF    F12ABS    EF12    OPTIONS    RHF      RHF  

 PROGRAMS   *        TOTAL   CCSD(T)    HF-SCF       INT   CCSD(T)    HF-SCF       INT   CCSD(T)    HF-SCF       INT
 CPU TIMES  *      9471.11   1358.91    185.02      0.39   1442.90    219.51      0.43   5787.97    201.47    274.24
 REAL TIME  *     10438.08 SEC
 DISK USED  *         3.24 GB (local),       80.44 GB (total)
 SF USED    *         5.12 GB
 GA USED    *         4.87 MB       (max)       0.00 MB       (current)
 **********************************************************************************************************************************
 Molecular orbitals read from record     2102.2  Type=RHF/CANONICAL (state 1.1)
 Occupation numbers read from record     2102.2  Type=RHF/RHF (state 1.1)
 Orbital energies read from record       2102.2  Type=RHF/CANONICAL (state 1.1)
 Redundancy group numbers read from rec  2102.2  Type=RHF/RHF (state 1.1)

 CCSD(T)-F12/aug-cc-pVQZ energy=    -40.454945228384

     CCSD(T)-F12          HF-SCF     CCSD(T)-F12          HF-SCF     CCSD(T)-F12          HF-SCF
    -40.45494523    -40.21595025    -76.37133194    -76.06379383   -116.82655445   -116.27897562
 **********************************************************************************************************************************
 Molpro calculation terminated
