
 Primary working directories    : /scratch/klimes/383241/molpro.eMSGJf665g
 Secondary working directories  : /scratch/klimes/383241/molpro.eMSGJf665g
 Wavefunction directory         : /scratch/klimes/383241/
 Main file repository           : /scratch/klimes/383241/molpro.eMSGJf665g/

 id        : karlovklimes

 Nodes                      nprocs
 nc-04.cc.karlov.mff.cuni.cz    4

 Using customized tuning parameters: mindgm=1; mindgv=20; mindgc=4; mindgr=1; noblas=0; minvec=7
 default implementation of scratch files=sf  


 Variables initialized (930), CPU time= 0.02 sec
                                                                                 !gdirect
 memory,2000,m
 gthresh,orbital=1d-10,energy=1d-10,grid=1d-8
 
 symmetry,nosym
 angstrom
 geometry={
 O9        -3.518900000000     -2.419500000000      0.991300000000
 H17        -3.388900000000     -3.371800000000      0.893300000000
 H18        -2.990700000000     -2.010200000000      0.231000000000
 C1        -3.277200000000      1.482500000000      1.271900000000
 H41        -2.464000000000      0.899600000000      1.651000000000
 H42        -3.160800000000      2.501000000000      1.578500000000
 H43        -4.201800000000      1.099200000000      1.650100000000
 H44        -3.268500000000      1.421000000000      0.203700000000
 }
 
 nkerna=1
 nkernb=1
 
 gf=0
 sing=1
 thrdum=1d-4
 gridthr=1d-8
 
 basis={
 set,orbital
 default,avqz
 set,jkfit
 default,av5z/jkfit
 set,mp2fit
 default,av5z/mp2fit
 set,ri
 default,av5z/optri
 set,tddft
 default,av5z/mp2fit
 }
 
 proc set_monomer1
 dummy,4,5,6,7,8
 endproc
 
 proc set_monomer2
 dummy,1,2,3
 endproc
 
                                                                                 !12 energy
 {hf,accu=1.d-16}
 {ccsd(t)-f12,df_basis=mp2fit,df_basis_exch=jkfit,ri_basis=ri,scale_trip=1,THRAOF12=1d-10}
 
 set_monomer1
 {hf,accu=1.d-16}
 {ccsd(t)-f12,df_basis=mp2fit,df_basis_exch=jkfit,ri_basis=ri,scale_trip=1,THRAOF12=1d-10}
 
 set_monomer2
 {hf,accu=1.d-16}
 {ccsd(t)-f12,df_basis=mp2fit,df_basis_exch=jkfit,ri_basis=ri,scale_trip=1,THRAOF12=1d-10}
 
 Commands  initialized (760), CPU time= 0.01 sec, 617 directives.
 Default parameters read. Elapsed time= 0.20 sec

 Checking input...
 Passed
1


                                         ***  PROGRAM SYSTEM MOLPRO  ***
                                       Copyright, TTI GmbH Stuttgart, 2015
                                    Version 2019.1 linked Jan 14 2019 13:09:19


 **********************************************************************************************************************************
 LABEL *                                                                                 
  64 bit mpp version                                                                     DATE: 11-Mar-20          TIME: 16:38:24  
 **********************************************************************************************************************************

 SHA1:             d688ac825633d238f2093ded1675ba87ccd55965
 **********************************************************************************************************************************

 THRESHOLDS:

 ZERO    =  1.00D-12  ONEINT  =  1.00D-12  TWOINT  =  1.00D-11  PREFAC  =  1.00D-14  XXXXXX  =  1.00D-09  EORDER  =  1.00D-04
 ENERGY  =  1.00D-10  ETEST   =  0.00D+00  EDENS   =  0.00D+00  THRDEDEF=  1.00D-06  GRADIENT=  1.00D-02  STEP    =  1.00D-03
 ORBITAL =  1.00D-10  CIVEC   =  1.00D-05  COEFF   =  1.00D-04  PRINTCI =  5.00D-02  PUNCHCI =  9.90D+01  OPTGRAD =  3.00D-04
 OPTENERG=  1.00D-06  OPTSTEP =  3.00D-04  THRGRAD =  1.00D-10  COMPRESS=  1.00D-11  VARMIN  =  1.00D-07  VARMAX  =  1.00D-03
 THRDOUB =  0.00D+00  THRDIV  =  1.00D-05  THRRED  =  1.00D-07  THRPSP  =  1.00D+00  THRDC   =  1.00D-10  THRCS   =  1.00D-10
 THRNRM  =  1.00D-08  THREQ   =  0.00D+00  THRDE   =  1.00D+00  THRREF  =  1.00D-05  SPARFAC =  1.00D+00  THRDLP  =  1.00D-07
 THRDIA  =  1.00D-10  THRDLS  =  1.00D-07  THRGPS  =  0.00D+00  THRKEX  =  0.00D+00  THRDIS  =  2.00D-01  THRVAR  =  1.00D-10
 THRLOC  =  1.00D-06  THRGAP  =  1.00D-06  THRLOCT = -1.00D+00  THRGAPT = -1.00D+00  THRORB  =  1.00D-06  THRMLTP =  0.00D+00
 THRCPQCI=  1.00D-10  KEXTA   =  0.00D+00  THRCOARS=  0.00D+00  SYMTOL  =  1.00D-06  GRADTOL =  1.00D-06  THROVL  =  1.00D-08
 THRORTH =  1.00D-08  GRID    =  1.00D-08  GRIDMAX =  1.00D-03  DTMAX   =  0.00D+00  THROCCDE=  1.00D-01  THROCCDE=  1.00D-01
 THRPRINT=  2.50D-01


 Variable memory set to 2000000000 words,  buffer space 

 ZSYMEL=NOSYM
 ZUNIT=ANG


Geometry recognized as XYZ

 SETTING NKERNA         =         1.00000000                                  
 SETTING NKERNB         =         1.00000000                                  
 SETTING GF             =     0.00000000D+00                                  
 SETTING SING           =         1.00000000                                  
 SETTING THRDUM         =     1.00000000D-04                                  
 SETTING GRIDTHR        =     1.00000000D-08                                  
 SETTING BASIS          =    AVQZ


 Recomputing integrals since basis changed


 Using spherical harmonics

 Library entry O      S aug-cc-pVQZ          selected for orbital group  1
 Library entry O      P aug-cc-pVQZ          selected for orbital group  1
 Library entry O      D aug-cc-pVQZ          selected for orbital group  1
 Library entry O      F aug-cc-pVQZ          selected for orbital group  1
 Library entry O      G aug-cc-pVQZ          selected for orbital group  1
 Library entry H      S aug-cc-pVQZ          selected for orbital group  2
 Library entry H      P aug-cc-pVQZ          selected for orbital group  2
 Library entry H      D aug-cc-pVQZ          selected for orbital group  2
 Library entry H      F aug-cc-pVQZ          selected for orbital group  2
 Library entry C      S aug-cc-pVQZ          selected for orbital group  3
 Library entry C      P aug-cc-pVQZ          selected for orbital group  3
 Library entry C      D aug-cc-pVQZ          selected for orbital group  3
 Library entry C      F aug-cc-pVQZ          selected for orbital group  3
 Library entry C      G aug-cc-pVQZ          selected for orbital group  3


 PROGRAM * SEWARD (Integral evaluation for generally contracted gaussian basis sets)     Author: Roland Lindh, 1990

 Geometry written to block  1 of record 700


 Point group  C1  



 ATOMIC COORDINATES

 NR  ATOM    CHARGE       X              Y              Z

   1  O9      8.00   -6.649757260   -4.572192358    1.873285507
   2  H17     1.00   -6.404092864   -6.371778547    1.688092347
   3  H18     1.00   -5.651603921   -3.798727456    0.436526735
   4  C1      6.00   -6.193010455    2.801518980    2.403542658
   5  H41     1.00   -4.656285171    1.699997622    3.119937832
   6  H42     1.00   -5.973046335    4.726205038    2.982932688
   7  H43     1.00   -7.940251230    2.077186956    3.118237078
   8  H44     1.00   -6.176569838    2.685300823    0.384937212

 Bond lengths in Bohr (Angstrom)

 1-2  1.825693827  1-3  1.912807835  4-5  2.021904040  4-6  2.022002335  4-7  2.021953343
     ( 0.966115568)     ( 1.012214315)     ( 1.069945541)     ( 1.069997556)     ( 1.069971630)

 4-8  2.022015060
     ( 1.070004290)

 Bond angles

  2-1-3  104.60595341   5-4-6  109.53398059   5-4-7  109.65604535   5-4-8  108.43490854

  6-4-7  109.49436728   6-4-8  109.86987750   7-4-8  109.83468330

 NUCLEAR CHARGE:                   20
 NUMBER OF PRIMITIVE AOS:         578
 NUMBER OF SYMMETRY AOS:          474
 NUMBER OF CONTRACTIONS:          436   (  436A   )
 NUMBER OF CORE ORBITALS:           2   (    2A   )
 NUMBER OF VALENCE ORBITALS:       14   (   14A   )


 NUCLEAR REPULSION ENERGY   35.88176990


 Basis set:  JKFIT                   
 Basis size:  1104
 Attributes:
 Sphericals:   T
 Basis set:  MP2FIT                  
 Basis size:  1246
 Attributes:
 Sphericals:   T
 Basis set:  RI                      
 Basis size:   730
 Attributes:
 Sphericals:   T
 Basis set:  TDDFT                   
 Basis size:  1246
 Attributes:
 Sphericals:   T

 **********************************************************************************************************************************


 Eigenvalues of metric

         1 0.148E-04 0.188E-04 0.367E-04 0.375E-04 0.626E-04 0.906E-04 0.930E-04 0.949E-04


 Contracted 2-electron integrals neglected if value below      1.0D-14
 AO integral compression algorithm  1   Integral accuracy      1.0D-14

     21484.536 MB (compressed) written to integral file ( 53.6%)

     Node minimum: 5018.223 MB, node maximum: 5757.469 MB


 NUMBER OF SORTED TWO-ELECTRON INTEGRALS: 1134451344.     BUFFER LENGTH:  32768
 NUMBER OF SEGMENTS:  36  SEGMENT LENGTH:   31999984      RECORD LENGTH: 524288

 Memory used in sort:      32.56 MW

 SORT1 READ  5012305700. AND WROTE   922322009. INTEGRALS IN   2655 RECORDS. CPU TIME:   111.48 SEC, REAL TIME:   128.59 SEC
 SORT2 READ  3686537952. AND WROTE  4537853011. INTEGRALS IN  87852 RECORDS. CPU TIME:    18.65 SEC, REAL TIME:    51.71 SEC

 Node minimum:  1134427528.  Node maximum:  1134498978. integrals

 OPERATOR DM      FOR CENTER  0  COORDINATES:    0.000000    0.000000    0.000000


 **********************************************************************************************************************************
 DATASETS  * FILE   NREC   LENGTH (MB)   RECORD NAMES
              1      18       37.12       500      610      700      900      950      970     1000      129      960     1100   
                                          VAR    BASINP    GEOM    SYMINP    ZMAT    AOBASIS   BASIS     P2S    ABASIS      S 
                                         1400     1410     1200     1210     1080     1600     1650     1700   
                                           T        V       H0       H01     AOSYM     SMH    MOLCAS    OPER   

 PROGRAMS   *        TOTAL       INT
 CPU TIMES  *       195.02    194.79
 REAL TIME  *       256.16 SEC
 DISK USED  *        37.64 MB (local),       65.57 GB (total)
 GA USED    *         0.00 MB       (max)       0.00 MB       (current)
 **********************************************************************************************************************************


 PROGRAM * RHF-SCF (CLOSED SHELL)       Authors: W. Meyer, H.-J. Werner


 NUMBER OF ELECTRONS:      10+   10-    SPACE SYMMETRY=1    SPIN SYMMETRY: Singlet 
 CONVERGENCE THRESHOLDS:    1.00E-08 (Density)    1.00E-11 (Energy)
 MAX. NUMBER OF ITERATIONS:       60
 INTERPOLATION TYPE:            DIIS
 INTERPOLATION STEPS:              2 (START)      1 (STEP)
 LEVEL SHIFTS:                  0.00 (CLOSED)  0.00 (OPEN) 



 Orbital guess generated from atomic densities. Full valence occupancy:   16

 Molecular orbital dump at record        2100.2

 Initial occupancy:  10

 ITERATION    DDIFF          GRAD             ENERGY        2-EL.EN.            DIPOLE MOMENTS         DIIS   ORB.
    1      0.000D+00      0.000D+00      -116.21780680    157.536602    0.64546   -0.51561   -0.83905    0    start
    2      0.000D+00      0.380D-02      -116.26207460    152.448863    0.34016   -0.32997   -0.44354    1    diag
    3      0.274D-02      0.226D-02      -116.27619805    154.565433    0.41828   -0.38030   -0.54290    2    diag
    4      0.961D-03      0.333D-03      -116.27686785    154.451793    0.41149   -0.37740   -0.53312    3    diag
    5      0.203D-03      0.988D-04      -116.27693992    154.446552    0.41076   -0.37829   -0.53200    4    diag
    6      0.829D-04      0.241D-04      -116.27694402    154.452228    0.41019   -0.37830   -0.53117    5    diag
    7      0.223D-04      0.501D-05      -116.27694429    154.450542    0.41016   -0.37841   -0.53112    6    diag
    8      0.668D-05      0.133D-05      -116.27694431    154.450727    0.41011   -0.37843   -0.53104    7    diag
    9      0.148D-05      0.297D-06      -116.27694431    154.450699    0.41009   -0.37842   -0.53102    8    diag
   10      0.432D-06      0.341D-07      -116.27694431    154.450700    0.41009   -0.37842   -0.53102    9    orth
   11      0.436D-07      0.823D-08      -116.27694431    154.450701    0.41009   -0.37842   -0.53102    9    diag
   12      0.966D-08      0.212D-08      -116.27694431    154.450701    0.41009   -0.37842   -0.53102    0    orth

 Final occupancy:  10

 !RHF STATE  1.1 Energy              -116.276944311784
 Nuclear energy                        35.88176990
 One-electron energy                 -229.38406474
 Two-electron energy                   77.22535053
 Virial quotient                       -1.00100761
 !RHF STATE  1.1 Dipole moment          0.41008971    -0.37842313    -0.53102276
 Dipole moment /Debye                   1.04227581    -0.96179266    -1.34963682

 Orbital energies:

         1.1          2.1          3.1          4.1          5.1          6.1          7.1          8.1          9.1         10.1
    -20.569781   -11.191483    -1.337158    -0.945968    -0.700812    -0.578373    -0.547740    -0.544434    -0.543223    -0.507710

        11.1         12.1
      0.024018     0.035263


 HOMO     10.1    -0.507710 =     -13.8155eV
 LUMO     11.1     0.024018 =       0.6536eV
 LUMO-HOMO         0.531728 =      14.4691eV


 **********************************************************************************************************************************
 DATASETS  * FILE   NREC   LENGTH (MB)   RECORD NAMES
              1      18       37.12       500      610      700      900      950      970     1000      129      960     1100   
                                          VAR    BASINP    GEOM    SYMINP    ZMAT    AOBASIS   BASIS     P2S    ABASIS      S 
                                         1400     1410     1200     1210     1080     1600     1650     1700   
                                           T        V       H0       H01     AOSYM     SMH    MOLCAS    OPER   

              2       4        6.75       700     1000      520     2100   
                                         GEOM     BASIS   MCVARS     RHF  

 PROGRAMS   *        TOTAL    HF-SCF       INT
 CPU TIMES  *       430.42    235.39    194.79
 REAL TIME  *       513.37 SEC
 DISK USED  *        57.70 MB (local),       65.65 GB (total)
 SF USED    *         0.76 MB
 GA USED    *         0.00 MB       (max)       0.00 MB       (current)
 **********************************************************************************************************************************

 Basis set:  JKFIT                   
 Basis size:  1104
 Attributes:
 Sphericals:   T
 Basis set:  MP2FIT                  
 Basis size:  1246
 Attributes:
 Sphericals:   T
 Basis set:  RI                      
 Basis size:   730
 Attributes:
 Sphericals:   T
 Basis set:  TDDFT                   
 Basis size:  1246
 Attributes:
 Sphericals:   T

 PROGRAM * CCSD (Closed-shell coupled cluster)     Authors: C. Hampel, H.-J. Werner, 1991, M. Deegan, P.J. Knowles, 1992

                                  CCSD-F12 implementation by  H.-J. Werner, 2007

                   Density fitting integral evaluation by F.R. Manby, 2003,2007, G. Knizia, 2010



 Convergence thresholds:  THRVAR = 1.00D-08  THRDEN = 1.00D-10

 CCSD(T)     terms to be evaluated (factor= 1.000)


 Number of core orbitals:           2 (   2 )
 Number of closed-shell orbitals:   8 (   8 )
 Number of external orbitals:     426 ( 426 )

 Molecular orbitals read from record     2100.2  Type=RHF/CANONICAL (state 1.1)

 MP2-F12 correlation treatment (H.-J. Werner, 2006)
 ==================================================

 Using MP2-F12 with ansatz 3C(FIX)

 Using projected zeroth-order Hamiltonian (+Z)

 FOCKRIB=T FOCKRIC=T FOCKRIP=T CABSP=T CABSA=T CABSK=T CABSF=T GBC=F EBC=F DMAT=T NOFIK=T NOPAO=1 SOLVE=-1  USEPAO=0
 EXCH_A= T EXCH_B= F EXCH_C= F EXCH_P= F

 Geminal basis:    OPTFULL  GEM_TYPE=SLATER  BETA=1.0  NGEM=6

 Optimizing Gaussian exponents for each gem_beta

 Geminal optimization for beta= 1.0000
 Weight function:   m=0, omega= 1.4646

 Augmented Hessian optimization of geminal fit. Trust ratio= 0.40000
 Convergence reached after   2 iterations. Final gradient= 7.85D-16, Step= 4.26D-06, Delta= 1.28D-09

 Alpha:                 0.19532     0.81920     2.85917     9.50073    35.69989   197.79328
 Coeff:                 0.27070     0.30552     0.18297     0.10986     0.06810     0.04224


 All pairs explicitly correlated. Number of r12-pairs:           36

 Excluding core orbitals from MO domains

 AO(A)-basis ORBITAL           loaded. Number of functions:     436
 RI(R)-basis RI                loaded. Number of functions:     730
 DF-basis JKFIT                loaded. Number of functions:    1104

 Screening thresholds:   THRAO=  1.00D-10  THRMO=  1.00D-09  THRPROD=  1.00D-09
                         THRSW=  1.00D-05  THROV=  1.00D-12  THRAOF12= 1.00D-10

 CPU time for Fock operators                     11.59 sec

 Construction of ABS:
 Smallest eigenvalue of S          2.27E-04  (threshold= 1.00E-08)
 Ratio eigmin/eigmax               3.94E-05  (threshold= 1.00E-09)
 Smallest eigenvalue of S kept     2.27E-04  (threshold= 2.27E-04, 0 functions deleted, 730 kept)

 Construction of CABS:
 Smallest eigenvalue of S          1.53E-08  (threshold= 1.00E-08)
 Ratio eigmin/eigmax               1.53E-08  (threshold= 1.00E-09)
 Smallest eigenvalue of S kept     1.53E-08  (threshold= 1.53E-08, 0 functions deleted, 730 kept)

 CPU time for CABS singles                        2.18 sec

 CABS-singles contribution of  -0.00052085 patched into reference energy.
 New reference energy        -116.27746517

 AO(A)-basis ORBITAL           loaded. Number of functions:     436
 RI(R)-basis RI                loaded. Number of functions:     730
 DF-basis MP2FIT               loaded. Number of functions:    1246

 Screening thresholds:   THRAO=  1.00D-10  THRMO=  1.00D-09  THRPROD=  1.00D-09
                         THRSW=  1.00D-05  THROV=  1.00D-12  THRAOF12= 1.00D-10

 CPU time for 3-index integral evaluation        18.85 sec
 CPU time for first  half transformation          5.46 sec ( 2379.5 MFLOP/sec)
 CPU time for second half transformation          0.15 sec (  983.1 MFLOP/sec)
 CPU time for sorting                             0.17 sec
 CPU time for fitting                             1.80 sec ( 4126.2 MFLOP/sec)
 CPU time for tilde quantities                    2.28 sec ( 4417.9 MFLOP/sec)
 CPU time for assembly                           16.12 sec ( 4399.4 MFLOP/sec)
 CPU time for tranop_f12                         15.97 sec ( 4315.8 MFLOP/sec)
 CPU time for f12 integrals (total)              82.87 sec, Elapsed time:     86.00 sec
 F12-matrices built in  4 passes.
 F12-matrices built in  4 passes.
 F12-matrices built in  4 passes.
 F12-matrices built in  4 passes.
 FC-matrix built in  4 passes.
 CPU time for f12 matrices (total)                6.31 sec, Elapsed time:      6.47 sec

 Diagonal F12 approximation with fixed coefficients:  TSING= 0.500,  TTRIP= 0.250 (scaled by -1/beta)

 DF-MP2-F12 energy corrections:
 ==============================
 Approx.                                    Singlet             Triplet             Total
 DF-MP2-F12/3*C(DX,FIX)                -0.021222653806     -0.002107989803     -0.023330643609
 DF-MP2-F12/3*C(FIX)                   -0.019159121585     -0.001554854291     -0.020713975876
 DF-MP2-F12/3C(FIX)                    -0.019178244939     -0.001605698630     -0.020783943569

 DF-MP2-F12 correlation energies:
 ================================
 Approx.                                    Singlet             Triplet             Ecorr            Total Energy
 DF-MP2                                -0.341280740145     -0.158520963423     -0.499801703569   -116.777266868575
 DF-MP2-F12/3*C(DX,FIX)                -0.362503393951     -0.160628953226     -0.523132347177   -116.800597512184
 DF-MP2-F12/3*C(FIX)                   -0.360439861730     -0.160075817715     -0.520515679445   -116.797980844452
 DF-MP2-F12/3C(FIX)                    -0.360458985084     -0.160126662054     -0.520585647137   -116.798050812144

 SCS-DF-MP2 energies (F_SING= 1.20000  F_TRIP= 0.62222  F_PARALLEL= 0.33333):
 ============================================================================
 SCS-DF-MP2                            -0.508172154304   -116.785637319311
 SCS-DF-MP2-F12/3*C(DX,FIX)            -0.534950976971   -116.812416141977
 SCS-DF-MP2-F12/3*C(FIX)               -0.532130565099   -116.809595730105
 SCS-DF-MP2-F12/3C(FIX)                -0.532185149601   -116.809650314607
 Symmetry transformation completed.

 Number of N-1 electron functions:               8
 Number of N-2 electron functions:              36
 Number of singly external CSFs:              3408
 Number of doubly external CSFs:           5808936
 Total number of CSFs:                     5812345

 Pair and operator lists are different

 Length of J-op  integral file:               0.75 GB
 Length of K-op  integral file:               0.98 GB
 Length of 3-ext integral record:             0.00 MB

 Memory could be reduced to 828.63 Mwords without degradation in triples

 Integral transformation finished. Total CPU: 309.85 sec, npass=  1  Memory used: 389.45 MW

 Reference energy:                   -116.27746517

 Adding F12 terms to K(Cij), methodcc=6,  factor= 1.0

 ITER.      SQ.NORM     CORR.ENERGY   TOTAL ENERGY   ENERGY CHANGE        DEN1      VAR(S)    VAR(P)  DIIS     TIME  TIME/IT
   1      1.13466694    -0.51331672  -116.79078189    -0.01350553    -0.00143620  0.15D-02  0.20D-02  1  1   585.58   166.13
   2      1.14304397    -0.51395985  -116.79142501    -0.00064313    -0.01009777  0.30D-04  0.25D-03  2  2   751.50   167.21
   3      1.14615225    -0.51415871  -116.79162388    -0.00019887    -0.00217750  0.13D-04  0.15D-04  3  3   916.86   167.44
   4      1.14716775    -0.51417951  -116.79164467    -0.00002079    -0.00060134  0.71D-06  0.13D-05  4  4  1082.24   167.54
   5      1.14734327    -0.51417923  -116.79164440     0.00000028    -0.00004128  0.21D-06  0.93D-07  5  5  1247.47   167.66
   6      1.14738833    -0.51417635  -116.79164152     0.00000288    -0.00000641  0.23D-07  0.80D-08  6  6  1412.79   167.70
   7      1.14740040    -0.51417506  -116.79164022     0.00000130    -0.00000360  0.20D-08  0.78D-09  6  1  1578.88   167.83
   8      1.14740221    -0.51417512  -116.79164029    -0.00000007     0.00000044  0.28D-09  0.89D-10  6  3  1744.58   167.87
   9      1.14740329    -0.51417504  -116.79164021     0.00000008    -0.00000031  0.19D-10  0.15D-10  6  2  1909.86   167.87
  10      1.14740340    -0.51417504  -116.79164021     0.00000000     0.00000006  0.25D-11  0.16D-11  6  4  2075.79   167.92
  11      1.14740341    -0.51417504  -116.79164021     0.00000000     0.00000003  0.43D-12  0.23D-12  6  5  2241.36   167.94
  12      1.14740339    -0.51417504  -116.79164021    -0.00000000     0.00000001  0.94D-13  0.31D-13  6  6  2406.84   167.96
  13      1.14740337    -0.51417504  -116.79164021    -0.00000000     0.00000001  0.17D-13  0.45D-14  6  1  2572.63   167.99
  14      1.14740336    -0.51417504  -116.79164021    -0.00000000     0.00000000  0.24D-14  0.11D-14  6  3  2738.76   168.03
  15      1.14740336    -0.51417504  -116.79164021    -0.00000000     0.00000000  0.28D-15  0.16D-15  6  2  2904.40   168.05
  16      1.14740336    -0.51417504  -116.79164021    -0.00000000    -0.00000000  0.31D-16  0.19D-16  6  4  3069.84   168.03
  17      1.14740336    -0.51417504  -116.79164021     0.00000000    -0.00000000  0.67D-17  0.31D-17  6  5  3235.29   168.02

 Norm of t1 vector:      0.05031662      S-energy:    -0.00000000      T1 diagnostic:  0.00889481
                                                                       D1 diagnostic:  0.01936551

 Adding energy correction from Wij-K(Fij), methodcc=6  factor= 1.0

  CCSD correlation energy              -0.514175044775
  MP2-F12 correction (uncoupled)       -0.020192712672
  C*T doubles correction               -0.000563106933
  f12b correction                       0.004660637016

   CPU time for triples:   1895.11 sec for i =  1 -  7 /  8 (~  68.8 % done)
   CPU time for triples:   1050.46 sec for i =  8 -  8 /  8 (  100.0 % done)

 Total CPU time for triples:   2945.61 sec

  Ecorr(MP2)                           -0.499811189059
  Ecorr(MP2-F12)                       -0.520595132628
  Scale factor for triples energy       1.041583590011


 RESULTS
 =======

  Reference energy                   -116.276944311781
  F12 singles correction               -0.000520853225

 F12 singles corrections added to reference energy

  New reference energy               -116.277465165007

  F12a singlet correction              -0.019139323676
  F12a triplet correction              -0.001616495930
  F12a total correction                -0.020755819606

 F12a corrections for ansatz F12/3C(FIX) added to CCSD energy

  CCSD-F12a singlet pair energy        -0.388543638844
  CCSD-F12a triplet pair energy        -0.146387225296
  CCSD-F12a correlation energy         -0.534930864381

  Triples (T) contribution (scaled)    -0.017192382081
  Total correlation energy             -0.552123246462

  CCSD-F12a total energy             -116.812396029388
  CCSD[T]-F12a energy                -116.830164969846
  CCSD-T-F12a energy                 -116.829370213882
 !CCSD(T)-F12a total energy          -116.829588411469

 F12b corrections for ansatz F12/3C(FIX) added to CCSD(T)-F12a energy

  CCSD-F12b singlet pair energy        -0.384097936077
  CCSD-F12b triplet pair energy        -0.146172291047
  CCSD-F12b correlation energy         -0.530270227365

  Triples (T) contribution (scaled)    -0.017192382081
  Total correlation energy             -0.547462609446

  CCSD-F12b total energy             -116.807735392371
  CCSD[T]-F12b energy                -116.825504332829
  CCSD-T-F12b energy                 -116.824709576866
 !CCSD(T)-F12b total energy          -116.824927774453

 Timing summary (sec):

 STEP                 CPU(USER)    SYS     CPU(TOT)    WALL
 Transformation        311.03     11.54    322.57    324.73
 CCSD iterations      2814.00     37.68   2851.68   2856.54
 Triples              2945.61     31.28   2976.89   2981.94
 MP2-F12               110.37      3.40    113.77    114.43
 F12b energy           141.47      1.60    143.07    143.31

 Program statistics:

 Available memory in ccsd:              1999999554
 Min. memory needed in ccsd:              16971337
 Max. memory used in ccsd:                21987113
 Max. memory used in cckext:              15122080 (18 integral passes)



 **********************************************************************************************************************************
 DATASETS  * FILE   NREC   LENGTH (MB)   RECORD NAMES
              1      19     2602.04       500      610      700      900      950      970     1000      129      960     1100   
                                          VAR    BASINP    GEOM    SYMINP    ZMAT    AOBASIS   BASIS     P2S    ABASIS      S 
                                         1400     1410     1200     1210     1080     1600     1650     1700     1380   
                                           T        V       H0       H01     AOSYM     SMH    MOLCAS    OPER     JKOP   

              2       6       10.56       700     1000      520     2100     7360     7350   
                                         GEOM     BASIS   MCVARS     RHF    F12ABS    EF12   

 PROGRAMS   *        TOTAL   CCSD(T)    HF-SCF       INT
 CPU TIMES  *      6753.13   6322.71    235.39    194.79
 REAL TIME  *      6935.55 SEC
 DISK USED  *         3.24 GB (local),       76.50 GB (total)
 SF USED    *         5.12 GB
 GA USED    *         4.87 MB       (max)       0.00 MB       (current)
 **********************************************************************************************************************************

 Running procedure: SET_MONOMER1

 Dummy atoms: C1  H41  H42  H43  H44


 Recomputing one-electron integrals since nuclear charges changed


 PROGRAM * SEWARD (Integral evaluation for generally contracted gaussian basis sets)     Author: Roland Lindh, 1990

 Geometry written to block  1 of record 700


 Point group  C1  



 ATOMIC COORDINATES

 NR  ATOM    CHARGE       X              Y              Z

   1  O9      8.00   -6.649757260   -4.572192358    1.873285507
   2  H17     1.00   -6.404092864   -6.371778547    1.688092347
   3  H18     1.00   -5.651603921   -3.798727456    0.436526735
   4  C1      0.00   -6.193010455    2.801518980    2.403542658
   5  H41     0.00   -4.656285171    1.699997622    3.119937832
   6  H42     0.00   -5.973046335    4.726205038    2.982932688
   7  H43     0.00   -7.940251230    2.077186956    3.118237078
   8  H44     0.00   -6.176569838    2.685300823    0.384937212

 Bond lengths in Bohr (Angstrom)

 1-2  1.825693827  1-3  1.912807835  4-5  2.021904040  4-6  2.022002335  4-7  2.021953343
     ( 0.966115568)     ( 1.012214315)     ( 1.069945541)     ( 1.069997556)     ( 1.069971630)

 4-8  2.022015060
     ( 1.070004290)

 Bond angles

  2-1-3  104.60595341   5-4-6  109.53398059   5-4-7  109.65604535   5-4-8  108.43490854

  6-4-7  109.49436728   6-4-8  109.86987750   7-4-8  109.83468330

 NUCLEAR CHARGE:                   10
 NUMBER OF PRIMITIVE AOS:         578
 NUMBER OF SYMMETRY AOS:          474
 NUMBER OF CONTRACTIONS:          436   (  436A   )
 NUMBER OF CORE ORBITALS:           1   (    1A   )
 NUMBER OF VALENCE ORBITALS:        6   (    6A   )

 MOLECULE CHANGED: INITIALIZING OCCUPATION AND DUMP RECORDS


 NUCLEAR REPULSION ENERGY    8.90222806

 Basis set:  JKFIT                   
 Basis size:  1104
 Attributes:
 Sphericals:   T
 Basis set:  MP2FIT                  
 Basis size:  1246
 Attributes:
 Sphericals:   T
 Basis set:  RI                      
 Basis size:   730
 Attributes:
 Sphericals:   T
 Basis set:  TDDFT                   
 Basis size:  1246
 Attributes:
 Sphericals:   T

 Eigenvalues of metric

         1 0.148E-04 0.188E-04 0.367E-04 0.375E-04 0.626E-04 0.906E-04 0.930E-04 0.949E-04


 Contracted 2-electron integrals neglected if value below      1.0D-14

 OPERATOR DM      FOR CENTER  0  COORDINATES:    0.000000    0.000000    0.000000


 **********************************************************************************************************************************
 DATASETS  * FILE   NREC   LENGTH (MB)   RECORD NAMES
              1      18       37.12       500      610      700      900      950      970     1000      129      960     1100   
                                          VAR    BASINP    GEOM    SYMINP    ZMAT    AOBASIS   BASIS     P2S    ABASIS      S 
                                         1400     1410     1200     1210     1080     1600     1650     1700   
                                           T        V       H0       H01     AOSYM     SMH    MOLCAS    OPER   

              2       7       10.59       700     1000      520     2100     7360     7350      200   
                                         GEOM     BASIS   MCVARS     RHF    F12ABS    EF12    OPTIONS    

 PROGRAMS   *        TOTAL       INT   CCSD(T)    HF-SCF       INT
 CPU TIMES  *      6753.53      0.40   6322.71    235.39    194.79
 REAL TIME  *      6936.89 SEC
 DISK USED  *         3.24 GB (local),       76.50 GB (total)
 SF USED    *         5.12 GB
 GA USED    *         4.87 MB       (max)       0.00 MB       (current)
 **********************************************************************************************************************************


 PROGRAM * RHF-SCF (CLOSED SHELL)       Authors: W. Meyer, H.-J. Werner


 NUMBER OF ELECTRONS:       5+    5-    SPACE SYMMETRY=1    SPIN SYMMETRY: Singlet 
 CONVERGENCE THRESHOLDS:    1.00E-08 (Density)    1.00E-11 (Energy)
 MAX. NUMBER OF ITERATIONS:       60
 INTERPOLATION TYPE:            DIIS
 INTERPOLATION STEPS:              2 (START)      1 (STEP)
 LEVEL SHIFTS:                  0.00 (CLOSED)  0.00 (OPEN) 



 Orbital guess generated from atomic densities. Full valence occupancy:    7

 Molecular orbital dump at record        2101.2

 Initial occupancy:   5

 ITERATION    DDIFF          GRAD             ENERGY        2-EL.EN.            DIPOLE MOMENTS         DIIS   ORB.
    1      0.000D+00      0.000D+00       -76.02190362     77.275403    0.64181   -0.51263   -0.83837    0    start
    2      0.000D+00      0.468D-02       -76.04881289     73.572640    0.36411   -0.30622   -0.47429    1    diag
    3      0.222D-02      0.302D-02       -76.06081457     75.224824    0.43301   -0.36065   -0.56436    2    diag
    4      0.853D-03      0.282D-03       -76.06101835     75.132900    0.42921   -0.36069   -0.55914    3    diag
    5      0.106D-03      0.811D-04       -76.06104185     75.147799    0.42775   -0.36084   -0.55711    4    diag
    6      0.351D-04      0.166D-04       -76.06104347     75.146638    0.42736   -0.36098   -0.55658    5    diag
    7      0.922D-05      0.344D-05       -76.06104356     75.146785    0.42725   -0.36101   -0.55642    6    diag
    8      0.249D-05      0.621D-06       -76.06104356     75.146767    0.42722   -0.36100   -0.55638    7    diag
    9      0.430D-06      0.864D-07       -76.06104356     75.146758    0.42722   -0.36100   -0.55638    8    diag
   10      0.500D-07      0.214D-07       -76.06104356     75.146761    0.42722   -0.36100   -0.55638    9    orth
   11      0.128D-07      0.543D-08       -76.06104356     75.146761    0.42722   -0.36100   -0.55638    9    diag
   12      0.382D-08      0.103D-08       -76.06104356     75.146761    0.42722   -0.36100   -0.55638    0    orth

 Final occupancy:   5

 !RHF STATE  1.1 Energy               -76.061043557573
 Nuclear energy                         8.90222806
 One-electron energy                 -122.53665191
 Two-electron energy                   37.57338029
 Virial quotient                       -1.00241469
 !RHF STATE  1.1 Dipole moment          0.42722079    -0.36099612    -0.55637904
 Dipole moment /Debye                   1.08581582    -0.91750053    -1.41408184

 Orbital energies:

         1.1          2.1          3.1          4.1          5.1          6.1          7.1
    -20.570058    -1.337393    -0.701034    -0.578477    -0.507983     0.020681     0.032143


 HOMO      5.1    -0.507983 =     -13.8229eV
 LUMO      6.1     0.020681 =       0.5628eV
 LUMO-HOMO         0.528664 =      14.3857eV


 **********************************************************************************************************************************
 DATASETS  * FILE   NREC   LENGTH (MB)   RECORD NAMES
              1      18       37.12       500      610      700      900      950      970     1000      129      960     1100   
                                          VAR    BASINP    GEOM    SYMINP    ZMAT    AOBASIS   BASIS     P2S    ABASIS      S 
                                         1400     1410     1200     1210     1080     1600     1650     1700   
                                           T        V       H0       H01     AOSYM     SMH    MOLCAS    OPER   

              2       8       17.39       700     1000      520     2100     7360     7350      200     2101   
                                         GEOM     BASIS   MCVARS     RHF    F12ABS    EF12    OPTIONS    RHF  

 PROGRAMS   *        TOTAL    HF-SCF       INT   CCSD(T)    HF-SCF       INT
 CPU TIMES  *      6992.57    239.04      0.40   6322.71    235.39    194.79
 REAL TIME  *      7197.31 SEC
 DISK USED  *         3.24 GB (local),       76.50 GB (total)
 SF USED    *         5.12 GB
 GA USED    *         4.87 MB       (max)       0.00 MB       (current)
 **********************************************************************************************************************************

 Basis set:  JKFIT                   
 Basis size:  1104
 Attributes:
 Sphericals:   T
 Basis set:  MP2FIT                  
 Basis size:  1246
 Attributes:
 Sphericals:   T
 Basis set:  RI                      
 Basis size:   730
 Attributes:
 Sphericals:   T
 Basis set:  TDDFT                   
 Basis size:  1246
 Attributes:
 Sphericals:   T

 PROGRAM * CCSD (Closed-shell coupled cluster)     Authors: C. Hampel, H.-J. Werner, 1991, M. Deegan, P.J. Knowles, 1992

                                  CCSD-F12 implementation by  H.-J. Werner, 2007

                   Density fitting integral evaluation by F.R. Manby, 2003,2007, G. Knizia, 2010



 Convergence thresholds:  THRVAR = 1.00D-08  THRDEN = 1.00D-10

 CCSD(T)     terms to be evaluated (factor= 1.000)


 Number of core orbitals:           1 (   1 )
 Number of closed-shell orbitals:   4 (   4 )
 Number of external orbitals:     431 ( 431 )

 Molecular orbitals read from record     2101.2  Type=RHF/CANONICAL (state 1.1)

 MP2-F12 correlation treatment (H.-J. Werner, 2006)
 ==================================================

 Using MP2-F12 with ansatz 3C(FIX)

 Using projected zeroth-order Hamiltonian (+Z)

 FOCKRIB=T FOCKRIC=T FOCKRIP=T CABSP=T CABSA=T CABSK=T CABSF=T GBC=F EBC=F DMAT=T NOFIK=T NOPAO=1 SOLVE=-1  USEPAO=0
 EXCH_A= T EXCH_B= F EXCH_C= F EXCH_P= F

 Geminal basis:    OPTFULL  GEM_TYPE=SLATER  BETA=1.0  NGEM=6

 Optimizing Gaussian exponents for each gem_beta

 Geminal optimization for beta= 1.0000
 Weight function:   m=0, omega= 1.4646

 Augmented Hessian optimization of geminal fit. Trust ratio= 0.40000
 Convergence reached after   2 iterations. Final gradient= 8.31D-16, Step= 4.24D-06, Delta= 1.28D-09

 Alpha:                 0.19532     0.81920     2.85917     9.50073    35.69989   197.79328
 Coeff:                 0.27070     0.30552     0.18297     0.10986     0.06810     0.04224


 All pairs explicitly correlated. Number of r12-pairs:           10

 Excluding core orbitals from MO domains

 AO(A)-basis ORBITAL           loaded. Number of functions:     436
 RI(R)-basis RI                loaded. Number of functions:     730
 DF-basis JKFIT                loaded. Number of functions:    1104

 Screening thresholds:   THRAO=  1.00D-10  THRMO=  1.00D-09  THRPROD=  1.00D-09
                         THRSW=  1.00D-05  THROV=  1.00D-12  THRAOF12= 1.00D-10

 CPU time for Fock operators                      9.76 sec

 Construction of ABS:
 Smallest eigenvalue of S          2.27E-04  (threshold= 1.00E-08)
 Ratio eigmin/eigmax               3.94E-05  (threshold= 1.00E-09)
 Smallest eigenvalue of S kept     2.27E-04  (threshold= 2.27E-04, 0 functions deleted, 730 kept)

 Construction of CABS:
 Smallest eigenvalue of S          1.53E-08  (threshold= 1.00E-08)
 Ratio eigmin/eigmax               1.53E-08  (threshold= 1.00E-09)
 Smallest eigenvalue of S kept     1.53E-08  (threshold= 1.53E-08, 0 functions deleted, 730 kept)

 CPU time for CABS singles                        2.24 sec

 CABS-singles contribution of  -0.00027688 patched into reference energy.
 New reference energy         -76.06132044

 AO(A)-basis ORBITAL           loaded. Number of functions:     436
 RI(R)-basis RI                loaded. Number of functions:     730
 DF-basis MP2FIT               loaded. Number of functions:    1246

 Screening thresholds:   THRAO=  1.00D-10  THRMO=  1.00D-09  THRPROD=  1.00D-09
                         THRSW=  1.00D-05  THROV=  1.00D-12  THRAOF12= 1.00D-10

 CPU time for 3-index integral evaluation        19.02 sec
 CPU time for first  half transformation          4.07 sec ( 1590.3 MFLOP/sec)
 CPU time for second half transformation          0.02 sec ( 1915.0 MFLOP/sec)
 CPU time for sorting                             0.11 sec
 CPU time for fitting                             1.24 sec ( 2221.1 MFLOP/sec)
 CPU time for tilde quantities                    1.41 sec ( 4532.0 MFLOP/sec)
 CPU time for assembly                            5.00 sec ( 3286.5 MFLOP/sec)
 CPU time for tranop_f12                          4.52 sec ( 3858.0 MFLOP/sec)
 CPU time for f12 integrals (total)              42.79 sec, Elapsed time:     43.91 sec
 F12-matrices built in  4 passes.
 F12-matrices built in  4 passes.
 F12-matrices built in  4 passes.
 F12-matrices built in  4 passes.
 FC-matrix built in  4 passes.
 CPU time for f12 matrices (total)                1.83 sec, Elapsed time:      1.87 sec

 Diagonal F12 approximation with fixed coefficients:  TSING= 0.500,  TTRIP= 0.250 (scaled by -1/beta)

 DF-MP2-F12 energy corrections:
 ==============================
 Approx.                                    Singlet             Triplet             Total
 DF-MP2-F12/3*C(DX,FIX)                -0.013720729581     -0.001530361065     -0.015251090646
 DF-MP2-F12/3*C(FIX)                   -0.012104417590     -0.001077822357     -0.013182239946
 DF-MP2-F12/3C(FIX)                    -0.012094640751     -0.001114736984     -0.013209377735

 DF-MP2-F12 correlation energies:
 ================================
 Approx.                                    Singlet             Triplet             Ecorr            Total Energy
 DF-MP2                                -0.186722312827     -0.101662464378     -0.288384777206    -76.349705218712
 DF-MP2-F12/3*C(DX,FIX)                -0.200443042409     -0.103192825443     -0.303635867852    -76.364956309358
 DF-MP2-F12/3*C(FIX)                   -0.198826730417     -0.102740286735     -0.301567017152    -76.362887458658
 DF-MP2-F12/3C(FIX)                    -0.198816953578     -0.102777201363     -0.301594154940    -76.362914596446

 SCS-DF-MP2 energies (F_SING= 1.20000  F_TRIP= 0.62222  F_PARALLEL= 0.33333):
 ============================================================================
 SCS-DF-MP2                            -0.287323419895    -76.348643861401
 SCS-DF-MP2-F12/3*C(DX,FIX)            -0.304740520055    -76.366060961561
 SCS-DF-MP2-F12/3*C(FIX)               -0.302519366024    -76.363839807530
 SCS-DF-MP2-F12/3C(FIX)                -0.302530602919    -76.363851044425
 Symmetry transformation completed.

 Number of N-1 electron functions:               4
 Number of N-2 electron functions:              10
 Number of singly external CSFs:              1724
 Number of doubly external CSFs:           1486950
 Total number of CSFs:                     1488675

 Pair and operator lists are different

 Length of J-op  integral file:             203.65 MB
 Length of K-op  integral file:             338.08 MB
 Length of 3-ext integral record:             0.00 MB

 Memory could be reduced to 526.20 Mwords without degradation in triples

 Integral transformation finished. Total CPU: 165.53 sec, npass=  1  Memory used: 214.75 MW

 Reference energy:                    -76.06132044

 Adding F12 terms to K(Cij), methodcc=6,  factor= 1.0

 ITER.      SQ.NORM     CORR.ENERGY   TOTAL ENERGY   ENERGY CHANGE        DEN1      VAR(S)    VAR(P)  DIIS     TIME  TIME/IT
   1      1.06422999    -0.28771696   -76.34903741     0.00067195     0.00698279  0.82D-03  0.11D-02  1  1   275.92    49.68
   2      1.06788290    -0.28751677   -76.34883721     0.00020020    -0.00498371  0.14D-04  0.12D-03  2  2   324.62    50.01
   3      1.06917651    -0.28761966   -76.34894010    -0.00010290    -0.00084716  0.10D-04  0.80D-05  3  3   373.38    50.19
   4      1.06976674    -0.28763541   -76.34895585    -0.00001575    -0.00035725  0.55D-06  0.76D-06  4  4   422.33    50.27
   5      1.06987830    -0.28763374   -76.34895418     0.00000167    -0.00003027  0.18D-06  0.57D-07  5  5   470.88    50.31
   6      1.06991298    -0.28763152   -76.34895196     0.00000223    -0.00000448  0.19D-07  0.46D-08  6  6   519.52    50.34
   7      1.06992248    -0.28763088   -76.34895132     0.00000064    -0.00000201  0.12D-08  0.56D-09  6  1   568.31    50.37
   8      1.06992406    -0.28763087   -76.34895131     0.00000001     0.00000006  0.16D-09  0.64D-10  6  2   616.65    50.34
   9      1.06992461    -0.28763085   -76.34895129     0.00000002     0.00000002  0.14D-10  0.98D-11  6  3   665.30    50.31
  10      1.06992473    -0.28763084   -76.34895129     0.00000000     0.00000002  0.21D-11  0.91D-12  6  4   713.38    50.26
  11      1.06992472    -0.28763085   -76.34895129    -0.00000000     0.00000003  0.44D-12  0.15D-12  6  5   761.70    50.25
  12      1.06992471    -0.28763085   -76.34895129    -0.00000000     0.00000000  0.87D-13  0.23D-13  6  6   809.84    50.21
  13      1.06992470    -0.28763085   -76.34895129    -0.00000000     0.00000000  0.13D-13  0.37D-14  6  1   858.12    50.19
  14      1.06992470    -0.28763085   -76.34895129    -0.00000000     0.00000000  0.15D-14  0.84D-15  6  2   906.01    50.15
  15      1.06992470    -0.28763085   -76.34895129    -0.00000000     0.00000000  0.16D-15  0.11D-15  6  3   956.13    50.25
  16      1.06992469    -0.28763085   -76.34895129    -0.00000000     0.00000000  0.19D-16  0.14D-16  6  4  1006.25    50.37

 Norm of t1 vector:      0.03761401      S-energy:    -0.00000000      T1 diagnostic:  0.00940350
                                                                       D1 diagnostic:  0.01913051

 Adding energy correction from Wij-K(Fij), methodcc=6  factor= 1.0

  CCSD correlation energy              -0.287630847379
  MP2-F12 correction (uncoupled)       -0.012743332958
  C*T doubles correction               -0.000435468324
  f12b correction                       0.002720175573


 Total CPU time for triples:    440.25 sec

  Ecorr(MP2)                           -0.288388913832
  Ecorr(MP2-F12)                       -0.301598291566
  Scale factor for triples energy       1.045804041353


 RESULTS
 =======

  Reference energy                    -76.061043557572
  F12 singles correction               -0.000276883935

 F12 singles corrections added to reference energy

  New reference energy                -76.061320441506

  F12a singlet correction              -0.012055407702
  F12a triplet correction              -0.001123393580
  F12a total correction                -0.013178801282

 F12a corrections for ansatz F12/3C(FIX) added to CCSD energy

  CCSD-F12a singlet pair energy        -0.210002852376
  CCSD-F12a triplet pair energy        -0.090806796226
  CCSD-F12a correlation energy         -0.300809648661

  Triples (T) contribution (scaled)    -0.010049225920
  Total correlation energy             -0.310858874581

  CCSD-F12a total energy              -76.362130090167
  CCSD[T]-F12a energy                 -76.372516766764
  CCSD-T-F12a energy                  -76.372032172729
 !CCSD(T)-F12a total energy           -76.372179316087

 F12b corrections for ansatz F12/3C(FIX) added to CCSD(T)-F12a energy

  CCSD-F12b singlet pair energy        -0.207429506794
  CCSD-F12b triplet pair energy        -0.090659966235
  CCSD-F12b correlation energy         -0.298089473088

  Triples (T) contribution (scaled)    -0.010049225920
  Total correlation energy             -0.308138699008

  CCSD-F12b total energy              -76.359409914594
  CCSD[T]-F12b energy                 -76.369796591191
  CCSD-T-F12b energy                  -76.369311997156
 !CCSD(T)-F12b total energy           -76.369459140514

 Timing summary (sec):

 STEP                 CPU(USER)    SYS     CPU(TOT)    WALL
 Transformation        165.93      5.93    171.86    172.33
 CCSD iterations       778.59     26.54    805.13    806.12
 Triples               440.25      5.15    445.40    445.92
 MP2-F12                61.83      1.44     63.27     63.33
 F12b energy            46.26      1.43     47.69     47.76

 Program statistics:

 Available memory in ccsd:              1999999871
 Min. memory needed in ccsd:               6763924
 Max. memory used in ccsd:                 7862874
 Max. memory used in cckext:               5171974 (17 integral passes)



 **********************************************************************************************************************************
 DATASETS  * FILE   NREC   LENGTH (MB)   RECORD NAMES
              1      19     1346.98       500      610      700      900      950      970     1000      129      960     1100   
                                          VAR    BASINP    GEOM    SYMINP    ZMAT    AOBASIS   BASIS     P2S    ABASIS      S 
                                         1400     1410     1200     1210     1080     1600     1650     1700     1380   
                                           T        V       H0       H01     AOSYM     SMH    MOLCAS    OPER     JKOP   

              2       8       17.39       700     1000      520     2100     7360     7350      200     2101   
                                         GEOM     BASIS   MCVARS     RHF    F12ABS    EF12    OPTIONS    RHF  

 PROGRAMS   *        TOTAL   CCSD(T)    HF-SCF       INT   CCSD(T)    HF-SCF       INT
 CPU TIMES  *      8485.68   1493.10    239.04      0.40   6322.71    235.39    194.79
 REAL TIME  *      8733.81 SEC
 DISK USED  *         3.24 GB (local),       76.50 GB (total)
 SF USED    *         5.12 GB
 GA USED    *         4.87 MB       (max)       0.00 MB       (current)
 **********************************************************************************************************************************

 Running procedure: SET_MONOMER2

 Dummy atoms: O9  H17  H18


 Recomputing one-electron integrals since nuclear charges changed


 PROGRAM * SEWARD (Integral evaluation for generally contracted gaussian basis sets)     Author: Roland Lindh, 1990

 Geometry written to block  1 of record 700


 Point group  C1  



 ATOMIC COORDINATES

 NR  ATOM    CHARGE       X              Y              Z

   1  O9      0.00   -6.649757260   -4.572192358    1.873285507
   2  H17     0.00   -6.404092864   -6.371778547    1.688092347
   3  H18     0.00   -5.651603921   -3.798727456    0.436526735
   4  C1      6.00   -6.193010455    2.801518980    2.403542658
   5  H41     1.00   -4.656285171    1.699997622    3.119937832
   6  H42     1.00   -5.973046335    4.726205038    2.982932688
   7  H43     1.00   -7.940251230    2.077186956    3.118237078
   8  H44     1.00   -6.176569838    2.685300823    0.384937212

 Bond lengths in Bohr (Angstrom)

 1-2  1.825693827  1-3  1.912807835  4-5  2.021904040  4-6  2.022002335  4-7  2.021953343
     ( 0.966115568)     ( 1.012214315)     ( 1.069945541)     ( 1.069997556)     ( 1.069971630)

 4-8  2.022015060
     ( 1.070004290)

 Bond angles

  2-1-3  104.60595341   5-4-6  109.53398059   5-4-7  109.65604535   5-4-8  108.43490854

  6-4-7  109.49436728   6-4-8  109.86987750   7-4-8  109.83468330

 NUCLEAR CHARGE:                   10
 NUMBER OF PRIMITIVE AOS:         578
 NUMBER OF SYMMETRY AOS:          474
 NUMBER OF CONTRACTIONS:          436   (  436A   )
 NUMBER OF CORE ORBITALS:           1   (    1A   )
 NUMBER OF VALENCE ORBITALS:        8   (    8A   )

 MOLECULE CHANGED: INITIALIZING OCCUPATION AND DUMP RECORDS


 NUCLEAR REPULSION ENERGY   13.68681606

 Basis set:  JKFIT                   
 Basis size:  1104
 Attributes:
 Sphericals:   T
 Basis set:  MP2FIT                  
 Basis size:  1246
 Attributes:
 Sphericals:   T
 Basis set:  RI                      
 Basis size:   730
 Attributes:
 Sphericals:   T
 Basis set:  TDDFT                   
 Basis size:  1246
 Attributes:
 Sphericals:   T

 Eigenvalues of metric

         1 0.148E-04 0.188E-04 0.367E-04 0.375E-04 0.626E-04 0.906E-04 0.930E-04 0.949E-04


 Contracted 2-electron integrals neglected if value below      1.0D-14

 OPERATOR DM      FOR CENTER  0  COORDINATES:    0.000000    0.000000    0.000000


 **********************************************************************************************************************************
 DATASETS  * FILE   NREC   LENGTH (MB)   RECORD NAMES
              1      18       37.12       500      610      700      900      950      970     1000      129      960     1100   
                                          VAR    BASINP    GEOM    SYMINP    ZMAT    AOBASIS   BASIS     P2S    ABASIS      S 
                                         1400     1410     1200     1210     1080     1600     1650     1700   
                                           T        V       H0       H01     AOSYM     SMH    MOLCAS    OPER   

              2       8       17.39       700     1000      520     2100     7360     7350      200     2101   
                                         GEOM     BASIS   MCVARS     RHF    F12ABS    EF12    OPTIONS    RHF  

 PROGRAMS   *        TOTAL       INT   CCSD(T)    HF-SCF       INT   CCSD(T)    HF-SCF       INT
 CPU TIMES  *      8486.06      0.36   1493.10    239.04      0.40   6322.71    235.39    194.79
 REAL TIME  *      8734.96 SEC
 DISK USED  *         3.24 GB (local),       76.50 GB (total)
 SF USED    *         5.12 GB
 GA USED    *         4.87 MB       (max)       0.00 MB       (current)
 **********************************************************************************************************************************


 PROGRAM * RHF-SCF (CLOSED SHELL)       Authors: W. Meyer, H.-J. Werner


 NUMBER OF ELECTRONS:       5+    5-    SPACE SYMMETRY=1    SPIN SYMMETRY: Singlet 
 CONVERGENCE THRESHOLDS:    1.00E-08 (Density)    1.00E-11 (Energy)
 MAX. NUMBER OF ITERATIONS:       60
 INTERPOLATION TYPE:            DIIS
 INTERPOLATION STEPS:              2 (START)      1 (STEP)
 LEVEL SHIFTS:                  0.00 (CLOSED)  0.00 (OPEN) 



 Orbital guess generated from atomic densities. Full valence occupancy:    9

 Molecular orbital dump at record        2102.2

 Initial occupancy:   5

 ITERATION    DDIFF          GRAD             ENERGY        2-EL.EN.            DIPOLE MOMENTS         DIIS   ORB.
    1      0.000D+00      0.000D+00       -40.19609636     53.506293    0.00411   -0.00276   -0.00130    0    start
    2      0.000D+00      0.257D-02       -40.21335056     52.217620    0.00129   -0.00088   -0.00039    1    diag
    3      0.159D-02      0.998D-03       -40.21562651     52.672081    0.00182   -0.00124   -0.00055    2    diag
    4      0.446D-03      0.249D-03       -40.21594597     52.617268    0.00162   -0.00110   -0.00049    3    diag
    5      0.164D-03      0.322D-04       -40.21595146     52.619416    0.00159   -0.00109   -0.00048    4    diag
    6      0.412D-04      0.264D-05       -40.21595150     52.619552    0.00159   -0.00108   -0.00048    5    diag
    7      0.568D-05      0.212D-06       -40.21595150     52.619513    0.00159   -0.00108   -0.00048    6    diag
    8      0.208D-06      0.170D-07       -40.21595150     52.619514    0.00159   -0.00108   -0.00048    7    diag
    9      0.838D-07      0.218D-08       -40.21595150     52.619514    0.00159   -0.00108   -0.00048    8    diag
   10      0.869D-08      0.595D-09       -40.21595150     52.619514    0.00159   -0.00108   -0.00048    0    orth

 Final occupancy:   5

 !RHF STATE  1.1 Energy               -40.215951500980
 Nuclear energy                        13.68681606
 One-electron energy                  -80.21252459
 Two-electron energy                   26.30975703
 Virial quotient                       -0.99838112
 !RHF STATE  1.1 Dipole moment          0.00158930    -0.00108396    -0.00047751
 Dipole moment /Debye                   0.00403933    -0.00275496    -0.00121362

 Orbital energies:

         1.1          2.1          3.1          4.1          5.1          6.1          7.1
    -11.196224    -0.950661    -0.551889    -0.549955    -0.547776     0.023715     0.035169


 HOMO      5.1    -0.547776 =     -14.9057eV
 LUMO      6.1     0.023715 =       0.6453eV
 LUMO-HOMO         0.571490 =      15.5510eV


 **********************************************************************************************************************************
 DATASETS  * FILE   NREC   LENGTH (MB)   RECORD NAMES
              1      18       37.12       500      610      700      900      950      970     1000      129      960     1100   
                                          VAR    BASINP    GEOM    SYMINP    ZMAT    AOBASIS   BASIS     P2S    ABASIS      S 
                                         1400     1410     1200     1210     1080     1600     1650     1700   
                                           T        V       H0       H01     AOSYM     SMH    MOLCAS    OPER   

              2       9       27.51       700     1000      520     2100     7360     7350      200     2101     2102   
                                         GEOM     BASIS   MCVARS     RHF    F12ABS    EF12    OPTIONS    RHF      RHF  

 PROGRAMS   *        TOTAL    HF-SCF       INT   CCSD(T)    HF-SCF       INT   CCSD(T)    HF-SCF       INT
 CPU TIMES  *      8679.96    193.91      0.36   1493.10    239.04      0.40   6322.71    235.39    194.79
 REAL TIME  *      8946.42 SEC
 DISK USED  *         3.24 GB (local),       76.50 GB (total)
 SF USED    *         5.12 GB
 GA USED    *         4.87 MB       (max)       0.00 MB       (current)
 **********************************************************************************************************************************

 Basis set:  JKFIT                   
 Basis size:  1104
 Attributes:
 Sphericals:   T
 Basis set:  MP2FIT                  
 Basis size:  1246
 Attributes:
 Sphericals:   T
 Basis set:  RI                      
 Basis size:   730
 Attributes:
 Sphericals:   T
 Basis set:  TDDFT                   
 Basis size:  1246
 Attributes:
 Sphericals:   T

 PROGRAM * CCSD (Closed-shell coupled cluster)     Authors: C. Hampel, H.-J. Werner, 1991, M. Deegan, P.J. Knowles, 1992

                                  CCSD-F12 implementation by  H.-J. Werner, 2007

                   Density fitting integral evaluation by F.R. Manby, 2003,2007, G. Knizia, 2010



 Convergence thresholds:  THRVAR = 1.00D-08  THRDEN = 1.00D-10

 CCSD(T)     terms to be evaluated (factor= 1.000)


 Number of core orbitals:           1 (   1 )
 Number of closed-shell orbitals:   4 (   4 )
 Number of external orbitals:     431 ( 431 )

 Molecular orbitals read from record     2102.2  Type=RHF/CANONICAL (state 1.1)

 MP2-F12 correlation treatment (H.-J. Werner, 2006)
 ==================================================

 Using MP2-F12 with ansatz 3C(FIX)

 Using projected zeroth-order Hamiltonian (+Z)

 FOCKRIB=T FOCKRIC=T FOCKRIP=T CABSP=T CABSA=T CABSK=T CABSF=T GBC=F EBC=F DMAT=T NOFIK=T NOPAO=1 SOLVE=-1  USEPAO=0
 EXCH_A= T EXCH_B= F EXCH_C= F EXCH_P= F

 Geminal basis:    OPTFULL  GEM_TYPE=SLATER  BETA=1.0  NGEM=6

 Optimizing Gaussian exponents for each gem_beta

 Geminal optimization for beta= 1.0000
 Weight function:   m=0, omega= 1.4646

 Augmented Hessian optimization of geminal fit. Trust ratio= 0.40000
 Convergence reached after   2 iterations. Final gradient= 7.85D-16, Step= 4.26D-06, Delta= 1.28D-09

 Alpha:                 0.19532     0.81920     2.85917     9.50073    35.69989   197.79328
 Coeff:                 0.27070     0.30552     0.18297     0.10986     0.06810     0.04224


 All pairs explicitly correlated. Number of r12-pairs:           10

 Excluding core orbitals from MO domains

 AO(A)-basis ORBITAL           loaded. Number of functions:     436
 RI(R)-basis RI                loaded. Number of functions:     730
 DF-basis JKFIT                loaded. Number of functions:    1104

 Screening thresholds:   THRAO=  1.00D-10  THRMO=  1.00D-09  THRPROD=  1.00D-09
                         THRSW=  1.00D-05  THROV=  1.00D-12  THRAOF12= 1.00D-10

 CPU time for Fock operators                      9.81 sec

 Construction of ABS:
 Smallest eigenvalue of S          2.27E-04  (threshold= 1.00E-08)
 Ratio eigmin/eigmax               3.94E-05  (threshold= 1.00E-09)
 Smallest eigenvalue of S kept     2.27E-04  (threshold= 2.27E-04, 0 functions deleted, 730 kept)

 Construction of CABS:
 Smallest eigenvalue of S          1.53E-08  (threshold= 1.00E-08)
 Ratio eigmin/eigmax               1.53E-08  (threshold= 1.00E-09)
 Smallest eigenvalue of S kept     1.53E-08  (threshold= 1.53E-08, 0 functions deleted, 730 kept)

 CPU time for CABS singles                        2.20 sec

 CABS-singles contribution of  -0.00024415 patched into reference energy.
 New reference energy         -40.21619565

 AO(A)-basis ORBITAL           loaded. Number of functions:     436
 RI(R)-basis RI                loaded. Number of functions:     730
 DF-basis MP2FIT               loaded. Number of functions:    1246

 Screening thresholds:   THRAO=  1.00D-10  THRMO=  1.00D-09  THRPROD=  1.00D-09
                         THRSW=  1.00D-05  THROV=  1.00D-12  THRAOF12= 1.00D-10

 CPU time for 3-index integral evaluation        18.89 sec
 CPU time for first  half transformation          3.85 sec ( 1685.6 MFLOP/sec)
 CPU time for second half transformation          0.04 sec (  953.1 MFLOP/sec)
 CPU time for sorting                             0.06 sec
 CPU time for fitting                             1.41 sec (  982.2 MFLOP/sec)
 CPU time for tilde quantities                    1.50 sec ( 5760.9 MFLOP/sec)
 CPU time for assembly                            4.65 sec ( 3533.8 MFLOP/sec)
 CPU time for tranop_f12                          4.70 sec ( 3712.9 MFLOP/sec)
 CPU time for f12 integrals (total)              41.98 sec, Elapsed time:     43.03 sec
 F12-matrices built in  4 passes.
 F12-matrices built in  4 passes.
 F12-matrices built in  4 passes.
 F12-matrices built in  4 passes.
 FC-matrix built in  4 passes.
 CPU time for f12 matrices (total)                1.73 sec, Elapsed time:      1.77 sec

 Diagonal F12 approximation with fixed coefficients:  TSING= 0.500,  TTRIP= 0.250 (scaled by -1/beta)

 DF-MP2-F12 energy corrections:
 ==============================
 Approx.                                    Singlet             Triplet             Total
 DF-MP2-F12/3*C(DX,FIX)                -0.007498306317     -0.000575290439     -0.008073596756
 DF-MP2-F12/3*C(FIX)                   -0.007051225576     -0.000473925383     -0.007525150959
 DF-MP2-F12/3C(FIX)                    -0.007079919638     -0.000487441161     -0.007567360799

 DF-MP2-F12 correlation energies:
 ================================
 Approx.                                    Singlet             Triplet             Ecorr            Total Energy
 DF-MP2                                -0.154417632225     -0.056463207298     -0.210880839523    -40.427076493202
 DF-MP2-F12/3*C(DX,FIX)                -0.161915938543     -0.057038497737     -0.218954436279    -40.435150089958
 DF-MP2-F12/3*C(FIX)                   -0.161468857801     -0.056937132681     -0.218405990483    -40.434601644161
 DF-MP2-F12/3C(FIX)                    -0.161497551863     -0.056950648459     -0.218448200322    -40.434643854000

 SCS-DF-MP2 energies (F_SING= 1.20000  F_TRIP= 0.62222  F_PARALLEL= 0.33333):
 ============================================================================
 SCS-DF-MP2                            -0.220433820989    -40.436629474667
 SCS-DF-MP2-F12/3*C(DX,FIX)            -0.229789747065    -40.445985400743
 SCS-DF-MP2-F12/3*C(FIX)               -0.229190178585    -40.445385832264
 SCS-DF-MP2-F12/3C(FIX)                -0.229233021277    -40.445428674955
 Symmetry transformation completed.

 Number of N-1 electron functions:               4
 Number of N-2 electron functions:              10
 Number of singly external CSFs:              1724
 Number of doubly external CSFs:           1486950
 Total number of CSFs:                     1488675

 Pair and operator lists are different

 Length of J-op  integral file:             203.65 MB
 Length of K-op  integral file:             338.08 MB
 Length of 3-ext integral record:             0.00 MB

 Memory could be reduced to 526.20 Mwords without degradation in triples

 Integral transformation finished. Total CPU: 163.10 sec, npass=  1  Memory used: 214.75 MW

 Reference energy:                    -40.21619565

 Adding F12 terms to K(Cij), methodcc=6,  factor= 1.0

 ITER.      SQ.NORM     CORR.ENERGY   TOTAL ENERGY   ENERGY CHANGE        DEN1      VAR(S)    VAR(P)  DIIS     TIME  TIME/IT
   1      1.07023965    -0.22511558   -40.44131124    -0.01422937    -0.00847515  0.63D-03  0.94D-03  1  1   272.73    49.76
   2      1.07517036    -0.22596545   -40.44216110    -0.00084986    -0.00530351  0.15D-04  0.10D-03  2  2   321.40    50.09
   3      1.07679297    -0.22605325   -40.44224891    -0.00008781    -0.00117731  0.22D-05  0.59D-05  3  3   369.19    49.86
   4      1.07717594    -0.22606057   -40.44225622    -0.00000731    -0.00020552  0.14D-06  0.33D-06  4  4   417.37    49.92
   5      1.07722797    -0.22606220   -40.44225785    -0.00000163    -0.00000892  0.11D-07  0.20D-07  5  5   465.17    49.84
   6      1.07723656    -0.22606089   -40.44225655     0.00000130    -0.00000328  0.75D-09  0.16D-08  6  6   513.47    49.86
   7      1.07723789    -0.22606057   -40.44225623     0.00000032    -0.00000083  0.50D-10  0.11D-09  6  1   561.47    49.84
   8      1.07723786    -0.22606064   -40.44225630    -0.00000007     0.00000020  0.51D-11  0.67D-11  6  3   609.63    49.82
   9      1.07723800    -0.22606062   -40.44225628     0.00000002    -0.00000009  0.36D-12  0.53D-12  6  2   657.86    49.85
  10      1.07723800    -0.22606062   -40.44225628     0.00000000     0.00000001  0.49D-13  0.56D-13  6  4   708.05    50.06
  11      1.07723800    -0.22606062   -40.44225628     0.00000000     0.00000000  0.46D-14  0.57D-14  6  5   758.25    50.24
  12      1.07723800    -0.22606062   -40.44225628     0.00000000     0.00000000  0.10D-15  0.61D-15  6  6   807.64    50.33
  13      1.07723800    -0.22606062   -40.44225628    -0.00000000     0.00000000  0.72D-17  0.66D-16  6  1   855.20    50.26
  14      1.07723800    -0.22606062   -40.44225628    -0.00000000     0.00000000  0.12D-17  0.86D-17  6  3   905.96    50.44

 Norm of t1 vector:      0.03291675      S-energy:    -0.00000000      T1 diagnostic:  0.00822919
                                                                       D1 diagnostic:  0.01319225

 Adding energy correction from Wij-K(Fij), methodcc=6  factor= 1.0

  CCSD correlation energy              -0.226060621396
  MP2-F12 correction (uncoupled)       -0.007443435758
  C*T doubles correction               -0.000126911683
  f12b correction                       0.001938020130

 Total CPU time for triples:    439.79 sec

  Ecorr(MP2)                           -0.210886209945
  Ecorr(MP2-F12)                       -0.218453570744
  Scale factor for triples energy       1.035883620844


 RESULTS
 =======

  Reference energy                    -40.215951500981
  F12 singles correction               -0.000244152697

 F12 singles corrections added to reference energy

  New reference energy                -40.216195653678

  F12a singlet correction              -0.007080473658
  F12a triplet correction              -0.000489873783
  F12a total correction                -0.007570347441

 F12a corrections for ansatz F12/3C(FIX) added to CCSD energy

  CCSD-F12a singlet pair energy        -0.178450206276
  CCSD-F12a triplet pair energy        -0.055180762556
  CCSD-F12a correlation energy         -0.233630968837

  Triples (T) contribution (scaled)    -0.007052753257
  Total correlation energy             -0.240683722094

  CCSD-F12a total energy              -40.449826622515
  CCSD[T]-F12a energy                 -40.457115916778
  CCSD-T-F12a energy                  -40.456809515712
 !CCSD(T)-F12a total energy           -40.456879375772

 F12b corrections for ansatz F12/3C(FIX) added to CCSD(T)-F12a energy

  CCSD-F12b singlet pair energy        -0.176579835750
  CCSD-F12b triplet pair energy        -0.055113112953
  CCSD-F12b correlation energy         -0.231692948706

  Triples (T) contribution (scaled)    -0.007052753257
  Total correlation energy             -0.238745701964

  CCSD-F12b total energy              -40.447888602385
  CCSD[T]-F12b energy                 -40.455177896647
  CCSD-T-F12b energy                  -40.454871495582
 !CCSD(T)-F12b total energy           -40.454941355642

 Timing summary (sec):

 STEP                 CPU(USER)    SYS     CPU(TOT)    WALL
 Transformation        163.45      5.87    169.32    169.76
 CCSD iterations       681.74     23.72    705.46    706.31
 Triples               439.79      5.16    444.95    445.45
 MP2-F12                60.87      1.39     62.26     62.32
 F12b energy            44.00      1.48     45.48     45.55

 Program statistics:

 Available memory in ccsd:              1999999866
 Min. memory needed in ccsd:               6763924
 Max. memory used in ccsd:                 7862874
 Max. memory used in cckext:               5171974 (15 integral passes)



 **********************************************************************************************************************************
 DATASETS  * FILE   NREC   LENGTH (MB)   RECORD NAMES
              1      19     1346.98       500      610      700      900      950      970     1000      129      960     1100   
                                          VAR    BASINP    GEOM    SYMINP    ZMAT    AOBASIS   BASIS     P2S    ABASIS      S 
                                         1400     1410     1200     1210     1080     1600     1650     1700     1380   
                                           T        V       H0       H01     AOSYM     SMH    MOLCAS    OPER     JKOP   

              2       9       27.51       700     1000      520     2100     7360     7350      200     2101     2102   
                                         GEOM     BASIS   MCVARS     RHF    F12ABS    EF12    OPTIONS    RHF      RHF  

 PROGRAMS   *        TOTAL   CCSD(T)    HF-SCF       INT   CCSD(T)    HF-SCF       INT   CCSD(T)    HF-SCF       INT
 CPU TIMES  *     10070.07   1390.11    193.91      0.36   1493.10    239.04      0.40   6322.71    235.39    194.79
 REAL TIME  *     10376.87 SEC
 DISK USED  *         3.24 GB (local),       76.50 GB (total)
 SF USED    *         5.12 GB
 GA USED    *         4.87 MB       (max)       0.00 MB       (current)
 **********************************************************************************************************************************
 Molecular orbitals read from record     2102.2  Type=RHF/CANONICAL (state 1.1)
 Occupation numbers read from record     2102.2  Type=RHF/RHF (state 1.1)
 Orbital energies read from record       2102.2  Type=RHF/CANONICAL (state 1.1)
 Redundancy group numbers read from rec  2102.2  Type=RHF/RHF (state 1.1)

 CCSD(T)-F12/aug-cc-pVQZ energy=    -40.454941355642

     CCSD(T)-F12          HF-SCF     CCSD(T)-F12          HF-SCF     CCSD(T)-F12          HF-SCF
    -40.45494136    -40.21595150    -76.36945914    -76.06104356   -116.82492777   -116.27694431
 **********************************************************************************************************************************
 Molpro calculation terminated
