
 Primary working directories    : /scratch/klimes/383242/molpro.Tv9erFjN93
 Secondary working directories  : /scratch/klimes/383242/molpro.Tv9erFjN93
 Wavefunction directory         : /scratch/klimes/383242/
 Main file repository           : /scratch/klimes/383242/molpro.Tv9erFjN93/

 id        : karlovklimes

 Nodes                      nprocs
 nc-22.cc.karlov.mff.cuni.cz    4

 Using customized tuning parameters: mindgm=1; mindgv=20; mindgc=4; mindgr=1; noblas=0; minvec=7
 default implementation of scratch files=sf  


 Variables initialized (930), CPU time= 0.01 sec
                                                                                 !gdirect
 memory,2000,m
 gthresh,orbital=1d-10,energy=1d-10,grid=1d-8
 
 symmetry,nosym
 angstrom
 geometry={
 O10        -3.744400000000      0.396600000000     -2.499800000000
 H19        -4.617400000000      0.462100000000     -2.021700000000
 H20        -3.968900000000      0.126100000000     -3.399000000000
 C1        -3.277200000000      1.482500000000      1.271900000000
 H41        -2.464000000000      0.899600000000      1.651000000000
 H42        -3.160800000000      2.501000000000      1.578500000000
 H43        -4.201800000000      1.099200000000      1.650100000000
 H44        -3.268500000000      1.421000000000      0.203700000000
 }
 
 nkerna=1
 nkernb=1
 
 gf=0
 sing=1
 thrdum=1d-4
 gridthr=1d-8
 
 basis={
 set,orbital
 default,avqz
 set,jkfit
 default,av5z/jkfit
 set,mp2fit
 default,av5z/mp2fit
 set,ri
 default,av5z/optri
 set,tddft
 default,av5z/mp2fit
 }
 
 proc set_monomer1
 dummy,4,5,6,7,8
 endproc
 
 proc set_monomer2
 dummy,1,2,3
 endproc
 
                                                                                 !12 energy
 {hf,accu=1.d-16}
 {ccsd(t)-f12,df_basis=mp2fit,df_basis_exch=jkfit,ri_basis=ri,scale_trip=1,THRAOF12=1d-10}
 
 set_monomer1
 {hf,accu=1.d-16}
 {ccsd(t)-f12,df_basis=mp2fit,df_basis_exch=jkfit,ri_basis=ri,scale_trip=1,THRAOF12=1d-10}
 
 set_monomer2
 {hf,accu=1.d-16}
 {ccsd(t)-f12,df_basis=mp2fit,df_basis_exch=jkfit,ri_basis=ri,scale_trip=1,THRAOF12=1d-10}
 
 Commands  initialized (760), CPU time= 0.01 sec, 617 directives.
 Default parameters read. Elapsed time= 0.20 sec

 Checking input...
 Passed
1


                                         ***  PROGRAM SYSTEM MOLPRO  ***
                                       Copyright, TTI GmbH Stuttgart, 2015
                                    Version 2019.1 linked Jan 14 2019 13:09:19


 **********************************************************************************************************************************
 LABEL *                                                                                 
  64 bit mpp version                                                                     DATE: 11-Mar-20          TIME: 16:39:17  
 **********************************************************************************************************************************

 SHA1:             d688ac825633d238f2093ded1675ba87ccd55965
 **********************************************************************************************************************************

 THRESHOLDS:

 ZERO    =  1.00D-12  ONEINT  =  1.00D-12  TWOINT  =  1.00D-11  PREFAC  =  1.00D-14  XXXXXX  =  1.00D-09  EORDER  =  1.00D-04
 ENERGY  =  1.00D-10  ETEST   =  0.00D+00  EDENS   =  0.00D+00  THRDEDEF=  1.00D-06  GRADIENT=  1.00D-02  STEP    =  1.00D-03
 ORBITAL =  1.00D-10  CIVEC   =  1.00D-05  COEFF   =  1.00D-04  PRINTCI =  5.00D-02  PUNCHCI =  9.90D+01  OPTGRAD =  3.00D-04
 OPTENERG=  1.00D-06  OPTSTEP =  3.00D-04  THRGRAD =  1.00D-10  COMPRESS=  1.00D-11  VARMIN  =  1.00D-07  VARMAX  =  1.00D-03
 THRDOUB =  0.00D+00  THRDIV  =  1.00D-05  THRRED  =  1.00D-07  THRPSP  =  1.00D+00  THRDC   =  1.00D-10  THRCS   =  1.00D-10
 THRNRM  =  1.00D-08  THREQ   =  0.00D+00  THRDE   =  1.00D+00  THRREF  =  1.00D-05  SPARFAC =  1.00D+00  THRDLP  =  1.00D-07
 THRDIA  =  1.00D-10  THRDLS  =  1.00D-07  THRGPS  =  0.00D+00  THRKEX  =  0.00D+00  THRDIS  =  2.00D-01  THRVAR  =  1.00D-10
 THRLOC  =  1.00D-06  THRGAP  =  1.00D-06  THRLOCT = -1.00D+00  THRGAPT = -1.00D+00  THRORB  =  1.00D-06  THRMLTP =  0.00D+00
 THRCPQCI=  1.00D-10  KEXTA   =  0.00D+00  THRCOARS=  0.00D+00  SYMTOL  =  1.00D-06  GRADTOL =  1.00D-06  THROVL  =  1.00D-08
 THRORTH =  1.00D-08  GRID    =  1.00D-08  GRIDMAX =  1.00D-03  DTMAX   =  0.00D+00  THROCCDE=  1.00D-01  THROCCDE=  1.00D-01
 THRPRINT=  2.50D-01


 Variable memory set to 2000000000 words,  buffer space 

 ZSYMEL=NOSYM
 ZUNIT=ANG


Geometry recognized as XYZ

 SETTING NKERNA         =         1.00000000                                  
 SETTING NKERNB         =         1.00000000                                  
 SETTING GF             =     0.00000000D+00                                  
 SETTING SING           =         1.00000000                                  
 SETTING THRDUM         =     1.00000000D-04                                  
 SETTING GRIDTHR        =     1.00000000D-08                                  
 SETTING BASIS          =    AVQZ


 Recomputing integrals since basis changed


 Using spherical harmonics

 Library entry O      S aug-cc-pVQZ          selected for orbital group  1
 Library entry O      P aug-cc-pVQZ          selected for orbital group  1
 Library entry O      D aug-cc-pVQZ          selected for orbital group  1
 Library entry O      F aug-cc-pVQZ          selected for orbital group  1
 Library entry O      G aug-cc-pVQZ          selected for orbital group  1
 Library entry H      S aug-cc-pVQZ          selected for orbital group  2
 Library entry H      P aug-cc-pVQZ          selected for orbital group  2
 Library entry H      D aug-cc-pVQZ          selected for orbital group  2
 Library entry H      F aug-cc-pVQZ          selected for orbital group  2
 Library entry C      S aug-cc-pVQZ          selected for orbital group  3
 Library entry C      P aug-cc-pVQZ          selected for orbital group  3
 Library entry C      D aug-cc-pVQZ          selected for orbital group  3
 Library entry C      F aug-cc-pVQZ          selected for orbital group  3
 Library entry C      G aug-cc-pVQZ          selected for orbital group  3


 PROGRAM * SEWARD (Integral evaluation for generally contracted gaussian basis sets)     Author: Roland Lindh, 1990

 Geometry written to block  1 of record 700


 Point group  C1  



 ATOMIC COORDINATES

 NR  ATOM    CHARGE       X              Y              Z

   1  O10     8.00   -7.075890501    0.749465381   -4.723937366
   2  H19     1.00   -8.725621408    0.873242442   -3.820459306
   3  H20     1.00   -7.500134016    0.238294464   -6.423179097
   4  C1      6.00   -6.193010455    2.801518980    2.403542658
   5  H41     1.00   -4.656285171    1.699997622    3.119937832
   6  H42     1.00   -5.973046335    4.726205038    2.982932688
   7  H43     1.00   -7.940251230    2.077186956    3.118237078
   8  H44     1.00   -6.176569838    2.685300823    0.384937212

 Bond lengths in Bohr (Angstrom)

 1-2  1.884994809  1-3  1.824472726  4-5  2.021904040  4-6  2.022002335  4-7  2.021953343
     ( 0.997496296)     ( 0.965469388)     ( 1.069945541)     ( 1.069997556)     ( 1.069971630)

 4-8  2.022015060
     ( 1.070004290)

 Bond angles

  2-1-3  105.14667399   5-4-6  109.53398059   5-4-7  109.65604535   5-4-8  108.43490854

  6-4-7  109.49436728   6-4-8  109.86987750   7-4-8  109.83468330

 NUCLEAR CHARGE:                   20
 NUMBER OF PRIMITIVE AOS:         578
 NUMBER OF SYMMETRY AOS:          474
 NUMBER OF CONTRACTIONS:          436   (  436A   )
 NUMBER OF CORE ORBITALS:           2   (    2A   )
 NUMBER OF VALENCE ORBITALS:       14   (   14A   )


 NUCLEAR REPULSION ENERGY   35.92323390


 Basis set:  JKFIT                   
 Basis size:  1104
 Attributes:
 Sphericals:   T
 Basis set:  MP2FIT                  
 Basis size:  1246
 Attributes:
 Sphericals:   T
 Basis set:  RI                      
 Basis size:   730
 Attributes:
 Sphericals:   T
 Basis set:  TDDFT                   
 Basis size:  1246
 Attributes:
 Sphericals:   T

 **********************************************************************************************************************************


 Eigenvalues of metric

         1 0.136E-04 0.197E-04 0.311E-04 0.365E-04 0.613E-04 0.760E-04 0.865E-04 0.957E-04


 Contracted 2-electron integrals neglected if value below      1.0D-14
 AO integral compression algorithm  1   Integral accuracy      1.0D-14

     21229.994 MB (compressed) written to integral file ( 52.9%)

     Node minimum: 5043.126 MB, node maximum: 5462.032 MB


 NUMBER OF SORTED TWO-ELECTRON INTEGRALS: 1134451344.     BUFFER LENGTH:  32768
 NUMBER OF SEGMENTS:  36  SEGMENT LENGTH:   31999984      RECORD LENGTH: 524288

 Memory used in sort:      32.56 MW

 SORT1 READ  5012305700. AND WROTE   908987553. INTEGRALS IN   2617 RECORDS. CPU TIME:   153.06 SEC, REAL TIME:   176.27 SEC
 SORT2 READ  3636283453. AND WROTE  4537853011. INTEGRALS IN  82348 RECORDS. CPU TIME:    15.77 SEC, REAL TIME:    89.08 SEC

 Node minimum:  1134427528.  Node maximum:  1134498978. integrals

 OPERATOR DM      FOR CENTER  0  COORDINATES:    0.000000    0.000000    0.000000


 **********************************************************************************************************************************
 DATASETS  * FILE   NREC   LENGTH (MB)   RECORD NAMES
              1      18       37.12       500      610      700      900      950      970     1000      129      960     1100   
                                          VAR    BASINP    GEOM    SYMINP    ZMAT    AOBASIS   BASIS     P2S    ABASIS      S 
                                         1400     1410     1200     1210     1080     1600     1650     1700   
                                           T        V       H0       H01     AOSYM     SMH    MOLCAS    OPER   

 PROGRAMS   *        TOTAL       INT
 CPU TIMES  *       229.15    228.92
 REAL TIME  *       343.83 SEC
 DISK USED  *        37.64 MB (local),       64.71 GB (total)
 GA USED    *         0.00 MB       (max)       0.00 MB       (current)
 **********************************************************************************************************************************


 PROGRAM * RHF-SCF (CLOSED SHELL)       Authors: W. Meyer, H.-J. Werner


 NUMBER OF ELECTRONS:      10+   10-    SPACE SYMMETRY=1    SPIN SYMMETRY: Singlet 
 CONVERGENCE THRESHOLDS:    1.00E-08 (Density)    1.00E-11 (Energy)
 MAX. NUMBER OF ITERATIONS:       60
 INTERPOLATION TYPE:            DIIS
 INTERPOLATION STEPS:              2 (START)      1 (STEP)
 LEVEL SHIFTS:                  0.00 (CLOSED)  0.00 (OPEN) 



 Orbital guess generated from atomic densities. Full valence occupancy:   16

 Molecular orbital dump at record        2100.2

 Initial occupancy:  10

 ITERATION    DDIFF          GRAD             ENERGY        2-EL.EN.            DIPOLE MOMENTS         DIIS   ORB.
    1      0.000D+00      0.000D+00      -116.22053251    157.536316   -1.06328   -0.20042   -0.40372    0    start
    2      0.000D+00      0.378D-02      -116.26443841    152.531121   -0.58110   -0.12725   -0.28447    1    diag
    3      0.273D-02      0.222D-02      -116.27803315    154.607312   -0.70361   -0.14567   -0.31714    2    diag
    4      0.948D-03      0.331D-03      -116.27869288    154.493893   -0.69275   -0.14371   -0.31448    3    diag
    5      0.204D-03      0.973D-04      -116.27876247    154.489207   -0.69192   -0.14361   -0.31510    4    diag
    6      0.831D-04      0.237D-04      -116.27876640    154.494844   -0.69101   -0.14343   -0.31497    5    diag
    7      0.224D-04      0.477D-05      -116.27876664    154.493263   -0.69098   -0.14342   -0.31500    6    diag
    8      0.660D-05      0.121D-05      -116.27876666    154.493439   -0.69090   -0.14341   -0.31500    7    diag
    9      0.145D-05      0.285D-06      -116.27876666    154.493412   -0.69087   -0.14340   -0.31500    8    diag
   10      0.430D-06      0.334D-07      -116.27876666    154.493413   -0.69087   -0.14340   -0.31500    9    orth
   11      0.471D-07      0.769D-08      -116.27876666    154.493414   -0.69087   -0.14340   -0.31500    9    diag
   12      0.101D-07      0.197D-08      -116.27876666    154.493414   -0.69087   -0.14340   -0.31500    9    diag
   13      0.236D-08      0.518D-09      -116.27876666    154.493414   -0.69087   -0.14340   -0.31500    0    orth

 Final occupancy:  10

 !RHF STATE  1.1 Energy              -116.278766657409
 Nuclear energy                        35.92323390
 One-electron energy                 -229.44870774
 Two-electron energy                   77.24670718
 Virial quotient                       -1.00079552
 !RHF STATE  1.1 Dipole moment         -0.69087182    -0.14340412    -0.31499930
 Dipole moment /Debye                  -1.75590599    -0.36447304    -0.80059592

 Orbital energies:

         1.1          2.1          3.1          4.1          5.1          6.1          7.1          8.1          9.1         10.1
    -20.569573   -11.190524    -1.341671    -0.945329    -0.707391    -0.580784    -0.546104    -0.545149    -0.541608    -0.509514

        11.1         12.1
      0.023147     0.036291


 HOMO     10.1    -0.509514 =     -13.8646eV
 LUMO     11.1     0.023147 =       0.6299eV
 LUMO-HOMO         0.532661 =      14.4944eV


 **********************************************************************************************************************************
 DATASETS  * FILE   NREC   LENGTH (MB)   RECORD NAMES
              1      18       37.12       500      610      700      900      950      970     1000      129      960     1100   
                                          VAR    BASINP    GEOM    SYMINP    ZMAT    AOBASIS   BASIS     P2S    ABASIS      S 
                                         1400     1410     1200     1210     1080     1600     1650     1700   
                                           T        V       H0       H01     AOSYM     SMH    MOLCAS    OPER   

              2       4        6.75       700     1000      520     2100   
                                         GEOM     BASIS   MCVARS     RHF  

 PROGRAMS   *        TOTAL    HF-SCF       INT
 CPU TIMES  *       438.49    209.34    228.92
 REAL TIME  *       601.94 SEC
 DISK USED  *        57.70 MB (local),       64.79 GB (total)
 SF USED    *         0.76 MB
 GA USED    *         0.00 MB       (max)       0.00 MB       (current)
 **********************************************************************************************************************************

 Basis set:  JKFIT                   
 Basis size:  1104
 Attributes:
 Sphericals:   T
 Basis set:  MP2FIT                  
 Basis size:  1246
 Attributes:
 Sphericals:   T
 Basis set:  RI                      
 Basis size:   730
 Attributes:
 Sphericals:   T
 Basis set:  TDDFT                   
 Basis size:  1246
 Attributes:
 Sphericals:   T

 PROGRAM * CCSD (Closed-shell coupled cluster)     Authors: C. Hampel, H.-J. Werner, 1991, M. Deegan, P.J. Knowles, 1992

                                  CCSD-F12 implementation by  H.-J. Werner, 2007

                   Density fitting integral evaluation by F.R. Manby, 2003,2007, G. Knizia, 2010



 Convergence thresholds:  THRVAR = 1.00D-08  THRDEN = 1.00D-10

 CCSD(T)     terms to be evaluated (factor= 1.000)


 Number of core orbitals:           2 (   2 )
 Number of closed-shell orbitals:   8 (   8 )
 Number of external orbitals:     426 ( 426 )

 Molecular orbitals read from record     2100.2  Type=RHF/CANONICAL (state 1.1)

 MP2-F12 correlation treatment (H.-J. Werner, 2006)
 ==================================================

 Using MP2-F12 with ansatz 3C(FIX)

 Using projected zeroth-order Hamiltonian (+Z)

 FOCKRIB=T FOCKRIC=T FOCKRIP=T CABSP=T CABSA=T CABSK=T CABSF=T GBC=F EBC=F DMAT=T NOFIK=T NOPAO=1 SOLVE=-1  USEPAO=0
 EXCH_A= T EXCH_B= F EXCH_C= F EXCH_P= F

 Geminal basis:    OPTFULL  GEM_TYPE=SLATER  BETA=1.0  NGEM=6

 Optimizing Gaussian exponents for each gem_beta

 Geminal optimization for beta= 1.0000
 Weight function:   m=0, omega= 1.4646

 Augmented Hessian optimization of geminal fit. Trust ratio= 0.40000
 Convergence reached after   2 iterations. Final gradient= 7.85D-16, Step= 4.26D-06, Delta= 1.28D-09

 Alpha:                 0.19532     0.81920     2.85917     9.50073    35.69989   197.79328
 Coeff:                 0.27070     0.30552     0.18297     0.10986     0.06810     0.04224


 All pairs explicitly correlated. Number of r12-pairs:           36

 Excluding core orbitals from MO domains

 AO(A)-basis ORBITAL           loaded. Number of functions:     436
 RI(R)-basis RI                loaded. Number of functions:     730
 DF-basis JKFIT                loaded. Number of functions:    1104

 Screening thresholds:   THRAO=  1.00D-10  THRMO=  1.00D-09  THRPROD=  1.00D-09
                         THRSW=  1.00D-05  THROV=  1.00D-12  THRAOF12= 1.00D-10

 CPU time for Fock operators                     11.27 sec

 Construction of ABS:
 Smallest eigenvalue of S          2.25E-04  (threshold= 1.00E-08)
 Ratio eigmin/eigmax               3.92E-05  (threshold= 1.00E-09)
 Smallest eigenvalue of S kept     2.25E-04  (threshold= 2.25E-04, 0 functions deleted, 730 kept)

 Construction of CABS:
 Smallest eigenvalue of S          1.51E-08  (threshold= 1.00E-08)
 Ratio eigmin/eigmax               1.51E-08  (threshold= 1.00E-09)
 Smallest eigenvalue of S kept     1.51E-08  (threshold= 1.51E-08, 0 functions deleted, 730 kept)

 CPU time for CABS singles                        2.12 sec

 CABS-singles contribution of  -0.00052757 patched into reference energy.
 New reference energy        -116.27929423

 AO(A)-basis ORBITAL           loaded. Number of functions:     436
 RI(R)-basis RI                loaded. Number of functions:     730
 DF-basis MP2FIT               loaded. Number of functions:    1246

 Screening thresholds:   THRAO=  1.00D-10  THRMO=  1.00D-09  THRPROD=  1.00D-09
                         THRSW=  1.00D-05  THROV=  1.00D-12  THRAOF12= 1.00D-10

 CPU time for 3-index integral evaluation        18.13 sec
 CPU time for first  half transformation          4.28 sec ( 3017.6 MFLOP/sec)
 CPU time for second half transformation          0.08 sec ( 1916.7 MFLOP/sec)
 CPU time for sorting                             0.17 sec
 CPU time for fitting                             1.81 sec ( 4103.4 MFLOP/sec)
 CPU time for tilde quantities                    2.27 sec ( 4437.3 MFLOP/sec)
 CPU time for assembly                           15.95 sec ( 4446.3 MFLOP/sec)
 CPU time for tranop_f12                         15.40 sec ( 4461.1 MFLOP/sec)
 CPU time for f12 integrals (total)              79.91 sec, Elapsed time:     88.40 sec
 F12-matrices built in  4 passes.
 F12-matrices built in  4 passes.
 F12-matrices built in  4 passes.
 F12-matrices built in  4 passes.
 FC-matrix built in  4 passes.
 CPU time for f12 matrices (total)                5.49 sec, Elapsed time:      6.20 sec

 Diagonal F12 approximation with fixed coefficients:  TSING= 0.500,  TTRIP= 0.250 (scaled by -1/beta)

 DF-MP2-F12 energy corrections:
 ==============================
 Approx.                                    Singlet             Triplet             Total
 DF-MP2-F12/3*C(DX,FIX)                -0.021221318912     -0.002107678405     -0.023328997317
 DF-MP2-F12/3*C(FIX)                   -0.019155341694     -0.001553085711     -0.020708427406
 DF-MP2-F12/3C(FIX)                    -0.019172514243     -0.001604327835     -0.020776842078

 DF-MP2-F12 correlation energies:
 ================================
 Approx.                                    Singlet             Triplet             Ecorr            Total Energy
 DF-MP2                                -0.340895430236     -0.158445342955     -0.499340773190   -116.778635000301
 DF-MP2-F12/3*C(DX,FIX)                -0.362116749148     -0.160553021359     -0.522669770508   -116.801963997619
 DF-MP2-F12/3*C(FIX)                   -0.360050771930     -0.159998428666     -0.520049200596   -116.799343427707
 DF-MP2-F12/3C(FIX)                    -0.360067944478     -0.160049670790     -0.520117615268   -116.799411842379

 SCS-DF-MP2 energies (F_SING= 1.20000  F_TRIP= 0.62222  F_PARALLEL= 0.33333):
 ============================================================================
 SCS-DF-MP2                            -0.507662729677   -116.786956956788
 SCS-DF-MP2-F12/3*C(DX,FIX)            -0.534439756713   -116.813733983823
 SCS-DF-MP2-F12/3*C(FIX)               -0.531615504153   -116.810909731264
 SCS-DF-MP2-F12/3C(FIX)                -0.531667995199   -116.810962222310
 Symmetry transformation completed.

 Number of N-1 electron functions:               8
 Number of N-2 electron functions:              36
 Number of singly external CSFs:              3408
 Number of doubly external CSFs:           5808936
 Total number of CSFs:                     5812345

 Pair and operator lists are different

 Length of J-op  integral file:               0.75 GB
 Length of K-op  integral file:               0.98 GB
 Length of 3-ext integral record:             0.00 MB

 Memory could be reduced to 828.63 Mwords without degradation in triples

 Integral transformation finished. Total CPU: 295.37 sec, npass=  1  Memory used: 389.45 MW

 Reference energy:                   -116.27929423

 Adding F12 terms to K(Cij), methodcc=6,  factor= 1.0

 ITER.      SQ.NORM     CORR.ENERGY   TOTAL ENERGY   ENERGY CHANGE        DEN1      VAR(S)    VAR(P)  DIIS     TIME  TIME/IT
   1      1.13416406    -0.51292298  -116.79221721    -0.01357282    -0.00162071  0.14D-02  0.20D-02  1  1   561.10   163.39
   2      1.14245042    -0.51356204  -116.79285627    -0.00063906    -0.01002495  0.29D-04  0.24D-03  2  2   715.61   166.73
   3      1.14549091    -0.51375520  -116.79304943    -0.00019316    -0.00214005  0.13D-04  0.14D-04  3  3   871.30   164.97
   4      1.14647445    -0.51377516  -116.79306939    -0.00001997    -0.00058594  0.67D-06  0.13D-05  4  4  1027.66   164.36
   5      1.14664258    -0.51377495  -116.79306918     0.00000021    -0.00003937  0.20D-06  0.89D-07  5  5  1183.93   164.03
   6      1.14668581    -0.51377216  -116.79306638     0.00000280    -0.00000630  0.21D-07  0.76D-08  6  6  1340.37   163.81
   7      1.14669754    -0.51377090  -116.79306512     0.00000126    -0.00000362  0.18D-08  0.72D-09  6  1  1495.94   163.59
   8      1.14669929    -0.51377096  -116.79306519    -0.00000006     0.00000040  0.25D-09  0.79D-10  6  3  1651.42   163.38
   9      1.14670033    -0.51377089  -116.79306511     0.00000007    -0.00000031  0.17D-10  0.14D-10  6  2  1807.30   163.23
  10      1.14670044    -0.51377089  -116.79306511     0.00000000     0.00000006  0.22D-11  0.14D-11  6  4  1962.96   163.12
  11      1.14670044    -0.51377089  -116.79306511     0.00000000     0.00000003  0.37D-12  0.21D-12  6  5  2119.13   163.07
  12      1.14670042    -0.51377089  -116.79306511    -0.00000000     0.00000001  0.77D-13  0.27D-13  6  6  2275.62   162.98
  13      1.14670041    -0.51377089  -116.79306511    -0.00000000     0.00000001  0.14D-13  0.36D-14  6  1  2431.81   162.89
  14      1.14670040    -0.51377089  -116.79306512    -0.00000000     0.00000000  0.21D-14  0.84D-15  6  3  2588.69   162.86
  15      1.14670040    -0.51377089  -116.79306512    -0.00000000     0.00000000  0.25D-15  0.13D-15  6  2  2745.13   162.83
  16      1.14670040    -0.51377089  -116.79306512    -0.00000000    -0.00000000  0.30D-16  0.16D-16  6  4  2901.18   162.77
  17      1.14670040    -0.51377089  -116.79306512     0.00000000    -0.00000000  0.64D-17  0.27D-17  6  5  3057.70   162.73

 Norm of t1 vector:      0.04972641      S-energy:     0.00000000      T1 diagnostic:  0.00879047
                                                                       D1 diagnostic:  0.01898999

 Adding energy correction from Wij-K(Fij), methodcc=6  factor= 1.0

  CCSD correlation energy              -0.513770888488
  MP2-F12 correction (uncoupled)       -0.020196032536
  C*T doubles correction               -0.000556503673
  f12b correction                       0.004655233848

   CPU time for triples:   2059.38 sec for i =  1 -  7 /  8 (~  68.8 % done)
   CPU time for triples:    823.55 sec for i =  8 -  8 /  8 (  100.0 % done)

 Total CPU time for triples:   2886.95 sec

  Ecorr(MP2)                           -0.499350160729
  Ecorr(MP2-F12)                       -0.520127002807
  Scale factor for triples energy       1.041607760869


 RESULTS
 =======

  Reference energy                   -116.278766657407
  F12 singles correction               -0.000527569704

 F12 singles corrections added to reference energy

  New reference energy               -116.279294227111

  F12a singlet correction              -0.019137549387
  F12a triplet correction              -0.001614986822
  F12a total correction                -0.020752536209

 F12a corrections for ansatz F12/3C(FIX) added to CCSD energy

  CCSD-F12a singlet pair energy        -0.388028647048
  CCSD-F12a triplet pair energy        -0.146494777742
  CCSD-F12a correlation energy         -0.534523424697

  Triples (T) contribution (scaled)    -0.017130591421
  Total correlation energy             -0.551654016117

  CCSD-F12a total energy             -116.813817651808
  CCSD[T]-F12a energy                -116.831515840868
  CCSD-T-F12a energy                 -116.830734081479
 !CCSD(T)-F12a total energy          -116.830948243229

 F12b corrections for ansatz F12/3C(FIX) added to CCSD(T)-F12a energy

  CCSD-F12b singlet pair energy        -0.383588379093
  CCSD-F12b triplet pair energy        -0.146279811849
  CCSD-F12b correlation energy         -0.529868190849

  Triples (T) contribution (scaled)    -0.017130591421
  Total correlation energy             -0.546998782269

  CCSD-F12b total energy             -116.809162417960
  CCSD[T]-F12b energy                -116.826860607020
  CCSD-T-F12b energy                 -116.826078847631
 !CCSD(T)-F12b total energy          -116.826293009380

 Timing summary (sec):

 STEP                 CPU(USER)    SYS     CPU(TOT)    WALL
 Transformation        296.32      9.84    306.16    317.69
 CCSD iterations      2655.51     33.62   2689.13   2766.60
 Triples              2886.95     16.62   2903.57   2922.38
 MP2-F12               106.00      3.04    109.04    116.95
 F12b energy           133.04      1.33    134.37    135.22

 Program statistics:

 Available memory in ccsd:              1999999554
 Min. memory needed in ccsd:              16971337
 Max. memory used in ccsd:                21987113
 Max. memory used in cckext:              15122080 (18 integral passes)



 **********************************************************************************************************************************
 DATASETS  * FILE   NREC   LENGTH (MB)   RECORD NAMES
              1      19     2602.04       500      610      700      900      950      970     1000      129      960     1100   
                                          VAR    BASINP    GEOM    SYMINP    ZMAT    AOBASIS   BASIS     P2S    ABASIS      S 
                                         1400     1410     1200     1210     1080     1600     1650     1700     1380   
                                           T        V       H0       H01     AOSYM     SMH    MOLCAS    OPER     JKOP   

              2       6       10.56       700     1000      520     2100     7360     7350   
                                         GEOM     BASIS   MCVARS     RHF    F12ABS    EF12   

 PROGRAMS   *        TOTAL   CCSD(T)    HF-SCF       INT
 CPU TIMES  *      6516.55   6078.06    209.34    228.92
 REAL TIME  *      6861.75 SEC
 DISK USED  *         3.24 GB (local),       75.64 GB (total)
 SF USED    *         5.12 GB
 GA USED    *         4.87 MB       (max)       0.00 MB       (current)
 **********************************************************************************************************************************

 Running procedure: SET_MONOMER1

 Dummy atoms: C1  H41  H42  H43  H44


 Recomputing one-electron integrals since nuclear charges changed


 PROGRAM * SEWARD (Integral evaluation for generally contracted gaussian basis sets)     Author: Roland Lindh, 1990

 Geometry written to block  1 of record 700


 Point group  C1  



 ATOMIC COORDINATES

 NR  ATOM    CHARGE       X              Y              Z

   1  O10     8.00   -7.075890501    0.749465381   -4.723937366
   2  H19     1.00   -8.725621408    0.873242442   -3.820459306
   3  H20     1.00   -7.500134016    0.238294464   -6.423179097
   4  C1      0.00   -6.193010455    2.801518980    2.403542658
   5  H41     0.00   -4.656285171    1.699997622    3.119937832
   6  H42     0.00   -5.973046335    4.726205038    2.982932688
   7  H43     0.00   -7.940251230    2.077186956    3.118237078
   8  H44     0.00   -6.176569838    2.685300823    0.384937212

 Bond lengths in Bohr (Angstrom)

 1-2  1.884994809  1-3  1.824472726  4-5  2.021904040  4-6  2.022002335  4-7  2.021953343
     ( 0.997496296)     ( 0.965469388)     ( 1.069945541)     ( 1.069997556)     ( 1.069971630)

 4-8  2.022015060
     ( 1.070004290)

 Bond angles

  2-1-3  105.14667399   5-4-6  109.53398059   5-4-7  109.65604535   5-4-8  108.43490854

  6-4-7  109.49436728   6-4-8  109.86987750   7-4-8  109.83468330

 NUCLEAR CHARGE:                   10
 NUMBER OF PRIMITIVE AOS:         578
 NUMBER OF SYMMETRY AOS:          474
 NUMBER OF CONTRACTIONS:          436   (  436A   )
 NUMBER OF CORE ORBITALS:           1   (    1A   )
 NUMBER OF VALENCE ORBITALS:        6   (    6A   )

 MOLECULE CHANGED: INITIALIZING OCCUPATION AND DUMP RECORDS


 NUCLEAR REPULSION ENERGY    8.96831117

 Basis set:  JKFIT                   
 Basis size:  1104
 Attributes:
 Sphericals:   T
 Basis set:  MP2FIT                  
 Basis size:  1246
 Attributes:
 Sphericals:   T
 Basis set:  RI                      
 Basis size:   730
 Attributes:
 Sphericals:   T
 Basis set:  TDDFT                   
 Basis size:  1246
 Attributes:
 Sphericals:   T

 Eigenvalues of metric

         1 0.136E-04 0.197E-04 0.311E-04 0.365E-04 0.613E-04 0.760E-04 0.865E-04 0.957E-04


 Contracted 2-electron integrals neglected if value below      1.0D-14

 OPERATOR DM      FOR CENTER  0  COORDINATES:    0.000000    0.000000    0.000000


 **********************************************************************************************************************************
 DATASETS  * FILE   NREC   LENGTH (MB)   RECORD NAMES
              1      18       37.12       500      610      700      900      950      970     1000      129      960     1100   
                                          VAR    BASINP    GEOM    SYMINP    ZMAT    AOBASIS   BASIS     P2S    ABASIS      S 
                                         1400     1410     1200     1210     1080     1600     1650     1700   
                                           T        V       H0       H01     AOSYM     SMH    MOLCAS    OPER   

              2       7       10.59       700     1000      520     2100     7360     7350      200   
                                         GEOM     BASIS   MCVARS     RHF    F12ABS    EF12    OPTIONS    

 PROGRAMS   *        TOTAL       INT   CCSD(T)    HF-SCF       INT
 CPU TIMES  *      6516.97      0.41   6078.06    209.34    228.92
 REAL TIME  *      6862.95 SEC
 DISK USED  *         3.24 GB (local),       75.64 GB (total)
 SF USED    *         5.12 GB
 GA USED    *         4.87 MB       (max)       0.00 MB       (current)
 **********************************************************************************************************************************


 PROGRAM * RHF-SCF (CLOSED SHELL)       Authors: W. Meyer, H.-J. Werner


 NUMBER OF ELECTRONS:       5+    5-    SPACE SYMMETRY=1    SPIN SYMMETRY: Singlet 
 CONVERGENCE THRESHOLDS:    1.00E-08 (Density)    1.00E-11 (Energy)
 MAX. NUMBER OF ITERATIONS:       60
 INTERPOLATION TYPE:            DIIS
 INTERPOLATION STEPS:              2 (START)      1 (STEP)
 LEVEL SHIFTS:                  0.00 (CLOSED)  0.00 (OPEN) 



 Orbital guess generated from atomic densities. Full valence occupancy:    7

 Molecular orbital dump at record        2101.2

 Initial occupancy:   5

 ITERATION    DDIFF          GRAD             ENERGY        2-EL.EN.            DIPOLE MOMENTS         DIIS   ORB.
    1      0.000D+00      0.000D+00       -76.02404302     77.368943   -1.06805   -0.19634   -0.39854    0    start
    2      0.000D+00      0.467D-02       -76.05086707     73.699505   -0.61361   -0.11572   -0.23934    1    diag
    3      0.223D-02      0.299D-02       -76.06255913     75.330444   -0.72620   -0.13630   -0.28094    2    diag
    4      0.848D-03      0.279D-03       -76.06275648     75.239010   -0.72071   -0.13586   -0.28092    3    diag
    5      0.107D-03      0.789D-04       -76.06277823     75.253487   -0.71862   -0.13572   -0.28100    4    diag
    6      0.351D-04      0.159D-04       -76.06277967     75.252419   -0.71811   -0.13570   -0.28109    5    diag
    7      0.932D-05      0.324D-05       -76.06277974     75.252566   -0.71795   -0.13570   -0.28110    6    diag
    8      0.251D-05      0.603D-06       -76.06277975     75.252550   -0.71791   -0.13569   -0.28110    7    diag
    9      0.463D-06      0.820D-07       -76.06277975     75.252541   -0.71790   -0.13569   -0.28110    8    diag
   10      0.586D-07      0.194D-07       -76.06277975     75.252544   -0.71790   -0.13569   -0.28110    9    orth
   11      0.154D-07      0.439D-08       -76.06277975     75.252543   -0.71790   -0.13569   -0.28110    9    diag
   12      0.323D-08      0.867D-09       -76.06277975     75.252543   -0.71790   -0.13569   -0.28110    0    orth

 Final occupancy:   5

 !RHF STATE  1.1 Energy               -76.062779746569
 Nuclear energy                         8.96831117
 One-electron energy                 -122.65736257
 Two-electron energy                   37.62627166
 Virial quotient                       -1.00211102
 !RHF STATE  1.1 Dipole moment         -0.71790032    -0.13569016    -0.28109722
 Dipole moment /Debye                  -1.82460110    -0.34486740    -0.71443107

 Orbital energies:

         1.1          2.1          3.1          4.1          5.1          6.1          7.1
    -20.568570    -1.340482    -0.705968    -0.579019    -0.508371     0.019943     0.033468


 HOMO      5.1    -0.508371 =     -13.8335eV
 LUMO      6.1     0.019943 =       0.5427eV
 LUMO-HOMO         0.528314 =      14.3762eV


 **********************************************************************************************************************************
 DATASETS  * FILE   NREC   LENGTH (MB)   RECORD NAMES
              1      18       37.12       500      610      700      900      950      970     1000      129      960     1100   
                                          VAR    BASINP    GEOM    SYMINP    ZMAT    AOBASIS   BASIS     P2S    ABASIS      S 
                                         1400     1410     1200     1210     1080     1600     1650     1700   
                                           T        V       H0       H01     AOSYM     SMH    MOLCAS    OPER   

              2       8       17.39       700     1000      520     2100     7360     7350      200     2101   
                                         GEOM     BASIS   MCVARS     RHF    F12ABS    EF12    OPTIONS    RHF  

 PROGRAMS   *        TOTAL    HF-SCF       INT   CCSD(T)    HF-SCF       INT
 CPU TIMES  *      6735.95    218.98      0.41   6078.06    209.34    228.92
 REAL TIME  *      7101.27 SEC
 DISK USED  *         3.24 GB (local),       75.64 GB (total)
 SF USED    *         5.12 GB
 GA USED    *         4.87 MB       (max)       0.00 MB       (current)
 **********************************************************************************************************************************

 Basis set:  JKFIT                   
 Basis size:  1104
 Attributes:
 Sphericals:   T
 Basis set:  MP2FIT                  
 Basis size:  1246
 Attributes:
 Sphericals:   T
 Basis set:  RI                      
 Basis size:   730
 Attributes:
 Sphericals:   T
 Basis set:  TDDFT                   
 Basis size:  1246
 Attributes:
 Sphericals:   T

 PROGRAM * CCSD (Closed-shell coupled cluster)     Authors: C. Hampel, H.-J. Werner, 1991, M. Deegan, P.J. Knowles, 1992

                                  CCSD-F12 implementation by  H.-J. Werner, 2007

                   Density fitting integral evaluation by F.R. Manby, 2003,2007, G. Knizia, 2010



 Convergence thresholds:  THRVAR = 1.00D-08  THRDEN = 1.00D-10

 CCSD(T)     terms to be evaluated (factor= 1.000)


 Number of core orbitals:           1 (   1 )
 Number of closed-shell orbitals:   4 (   4 )
 Number of external orbitals:     431 ( 431 )

 Molecular orbitals read from record     2101.2  Type=RHF/CANONICAL (state 1.1)

 MP2-F12 correlation treatment (H.-J. Werner, 2006)
 ==================================================

 Using MP2-F12 with ansatz 3C(FIX)

 Using projected zeroth-order Hamiltonian (+Z)

 FOCKRIB=T FOCKRIC=T FOCKRIP=T CABSP=T CABSA=T CABSK=T CABSF=T GBC=F EBC=F DMAT=T NOFIK=T NOPAO=1 SOLVE=-1  USEPAO=0
 EXCH_A= T EXCH_B= F EXCH_C= F EXCH_P= F

 Geminal basis:    OPTFULL  GEM_TYPE=SLATER  BETA=1.0  NGEM=6

 Optimizing Gaussian exponents for each gem_beta

 Geminal optimization for beta= 1.0000
 Weight function:   m=0, omega= 1.4646

 Augmented Hessian optimization of geminal fit. Trust ratio= 0.40000
 Convergence reached after   2 iterations. Final gradient= 8.31D-16, Step= 4.24D-06, Delta= 1.28D-09

 Alpha:                 0.19532     0.81920     2.85917     9.50073    35.69989   197.79328
 Coeff:                 0.27070     0.30552     0.18297     0.10986     0.06810     0.04224


 All pairs explicitly correlated. Number of r12-pairs:           10

 Excluding core orbitals from MO domains

 AO(A)-basis ORBITAL           loaded. Number of functions:     436
 RI(R)-basis RI                loaded. Number of functions:     730
 DF-basis JKFIT                loaded. Number of functions:    1104

 Screening thresholds:   THRAO=  1.00D-10  THRMO=  1.00D-09  THRPROD=  1.00D-09
                         THRSW=  1.00D-05  THROV=  1.00D-12  THRAOF12= 1.00D-10

 CPU time for Fock operators                      9.67 sec

 Construction of ABS:
 Smallest eigenvalue of S          2.25E-04  (threshold= 1.00E-08)
 Ratio eigmin/eigmax               3.92E-05  (threshold= 1.00E-09)
 Smallest eigenvalue of S kept     2.25E-04  (threshold= 2.25E-04, 0 functions deleted, 730 kept)

 Construction of CABS:
 Smallest eigenvalue of S          1.51E-08  (threshold= 1.00E-08)
 Ratio eigmin/eigmax               1.51E-08  (threshold= 1.00E-09)
 Smallest eigenvalue of S kept     1.51E-08  (threshold= 1.51E-08, 0 functions deleted, 730 kept)

 CPU time for CABS singles                        2.20 sec

 CABS-singles contribution of  -0.00028076 patched into reference energy.
 New reference energy         -76.06306051

 AO(A)-basis ORBITAL           loaded. Number of functions:     436
 RI(R)-basis RI                loaded. Number of functions:     730
 DF-basis MP2FIT               loaded. Number of functions:    1246

 Screening thresholds:   THRAO=  1.00D-10  THRMO=  1.00D-09  THRPROD=  1.00D-09
                         THRSW=  1.00D-05  THROV=  1.00D-12  THRAOF12= 1.00D-10

 CPU time for 3-index integral evaluation        18.70 sec
 CPU time for first  half transformation          3.15 sec ( 2069.9 MFLOP/sec)
 CPU time for second half transformation          0.03 sec ( 1287.5 MFLOP/sec)
 CPU time for sorting                             0.08 sec
 CPU time for fitting                             1.18 sec ( 4989.1 MFLOP/sec)
 CPU time for tilde quantities                    1.59 sec ( 5434.8 MFLOP/sec)
 CPU time for assembly                            4.65 sec ( 3533.8 MFLOP/sec)
 CPU time for tranop_f12                          4.57 sec ( 3328.4 MFLOP/sec)
 CPU time for f12 integrals (total)              41.64 sec, Elapsed time:     42.58 sec
 F12-matrices built in  4 passes.
 F12-matrices built in  4 passes.
 F12-matrices built in  4 passes.
 F12-matrices built in  4 passes.
 FC-matrix built in  4 passes.
 CPU time for f12 matrices (total)                1.53 sec, Elapsed time:      1.55 sec

 Diagonal F12 approximation with fixed coefficients:  TSING= 0.500,  TTRIP= 0.250 (scaled by -1/beta)

 DF-MP2-F12 energy corrections:
 ==============================
 Approx.                                    Singlet             Triplet             Total
 DF-MP2-F12/3*C(DX,FIX)                -0.013718036124     -0.001529988725     -0.015248024849
 DF-MP2-F12/3*C(FIX)                   -0.012099490900     -0.001076357321     -0.013175848221
 DF-MP2-F12/3C(FIX)                    -0.012087225776     -0.001113627201     -0.013200852977

 DF-MP2-F12 correlation energies:
 ================================
 Approx.                                    Singlet             Triplet             Ecorr            Total Energy
 DF-MP2                                -0.186318773095     -0.101447876420     -0.287766649515    -76.350827159526
 DF-MP2-F12/3*C(DX,FIX)                -0.200036809218     -0.102977865145     -0.303014674363    -76.366075184374
 DF-MP2-F12/3*C(FIX)                   -0.198418263995     -0.102524233741     -0.300942497736    -76.364003007747
 DF-MP2-F12/3C(FIX)                    -0.198405998871     -0.102561503621     -0.300967502492    -76.364028012503

 SCS-DF-MP2 energies (F_SING= 1.20000  F_TRIP= 0.62222  F_PARALLEL= 0.33333):
 ============================================================================
 SCS-DF-MP2                            -0.286705650819    -76.349766160830
 SCS-DF-MP2-F12/3*C(DX,FIX)            -0.304119287152    -76.367179797163
 SCS-DF-MP2-F12/3*C(FIX)               -0.301894773344    -76.364955283354
 SCS-DF-MP2-F12/3C(FIX)                -0.301903245343    -76.364963755353
 Symmetry transformation completed.

 Number of N-1 electron functions:               4
 Number of N-2 electron functions:              10
 Number of singly external CSFs:              1724
 Number of doubly external CSFs:           1486950
 Total number of CSFs:                     1488675

 Pair and operator lists are different

 Length of J-op  integral file:             203.65 MB
 Length of K-op  integral file:             338.08 MB
 Length of 3-ext integral record:             0.00 MB

 Memory could be reduced to 526.20 Mwords without degradation in triples

 Integral transformation finished. Total CPU: 159.06 sec, npass=  1  Memory used: 214.75 MW

 Reference energy:                    -76.06306051

 Adding F12 terms to K(Cij), methodcc=6,  factor= 1.0

 ITER.      SQ.NORM     CORR.ENERGY   TOTAL ENERGY   ENERGY CHANGE        DEN1      VAR(S)    VAR(P)  DIIS     TIME  TIME/IT
   1      1.06370832    -0.28717758   -76.35023809     0.00059315     0.00679698  0.79D-03  0.11D-02  1  1   263.24    47.14
   2      1.06727172    -0.28697740   -76.35003791     0.00020018    -0.00490628  0.13D-04  0.12D-03  2  2   309.06    48.68
   3      1.06851717    -0.28707571   -76.35013622    -0.00009832    -0.00082630  0.10D-04  0.76D-05  3  3   355.13    49.12
   4      1.06908123    -0.28709085   -76.35015136    -0.00001514    -0.00034487  0.53D-06  0.72D-06  4  4   401.59    49.50
   5      1.06918804    -0.28708918   -76.35014969     0.00000167    -0.00002912  0.17D-06  0.54D-07  5  5   447.59    50.05
   6      1.06922132    -0.28708701   -76.35014752     0.00000217    -0.00000424  0.18D-07  0.43D-08  6  6   493.76    50.57
   7      1.06923046    -0.28708639   -76.35014690     0.00000062    -0.00000194  0.11D-08  0.52D-09  6  1   540.18    51.16
   8      1.06923198    -0.28708638   -76.35014689     0.00000001     0.00000006  0.15D-09  0.57D-10  6  2   586.61    51.34
   9      1.06923251    -0.28708636   -76.35014687     0.00000002     0.00000002  0.12D-10  0.85D-11  6  3   633.07    51.17
  10      1.06923261    -0.28708636   -76.35014687     0.00000000     0.00000002  0.18D-11  0.78D-12  6  4   679.35    51.25
  11      1.06923260    -0.28708636   -76.35014687    -0.00000000     0.00000002  0.38D-12  0.13D-12  6  5   725.49    51.35
  12      1.06923260    -0.28708636   -76.35014687    -0.00000000     0.00000000  0.76D-13  0.20D-13  6  6   771.89    51.30
  13      1.06923259    -0.28708636   -76.35014687    -0.00000000     0.00000000  0.11D-13  0.31D-14  6  1   817.48    51.36
  14      1.06923258    -0.28708636   -76.35014687    -0.00000000     0.00000000  0.13D-14  0.69D-15  6  2   863.09    51.30
  15      1.06923258    -0.28708636   -76.35014687    -0.00000000     0.00000000  0.15D-15  0.90D-16  6  3   908.78    51.18
  16      1.06923258    -0.28708636   -76.35014687    -0.00000000     0.00000000  0.17D-16  0.11D-16  6  4   955.08    51.14

 Norm of t1 vector:      0.03702184      S-energy:    -0.00000000      T1 diagnostic:  0.00925546
                                                                       D1 diagnostic:  0.01880182

 Adding energy correction from Wij-K(Fij), methodcc=6  factor= 1.0

  CCSD correlation energy              -0.287086362894
  MP2-F12 correction (uncoupled)       -0.012745324733
  C*T doubles correction               -0.000429088071
  f12b correction                       0.002714524981


 Total CPU time for triples:    429.68 sec

  Ecorr(MP2)                           -0.287770726356
  Ecorr(MP2-F12)                       -0.300971579333
  Scale factor for triples energy       1.045872813905


 RESULTS
 =======

  Reference energy                    -76.062779746570
  F12 singles correction               -0.000280763441

 F12 singles corrections added to reference energy

  New reference energy                -76.063060510011

  F12a singlet correction              -0.012052230187
  F12a triplet correction              -0.001122182618
  F12a total correction                -0.013174412804

 F12a corrections for ansatz F12/3C(FIX) added to CCSD energy

  CCSD-F12a singlet pair energy        -0.209501239884
  CCSD-F12a triplet pair energy        -0.090759535781
  CCSD-F12a correlation energy         -0.300260775698

  Triples (T) contribution (scaled)    -0.009961464904
  Total correlation energy             -0.310222240603

  CCSD-F12a total energy              -76.363321285709
  CCSD[T]-F12a energy                 -76.373612342548
  CCSD-T-F12a energy                  -76.373139500893
 !CCSD(T)-F12a total energy           -76.373282750614

 F12b corrections for ansatz F12/3C(FIX) added to CCSD(T)-F12a energy

  CCSD-F12b singlet pair energy        -0.206933427843
  CCSD-F12b triplet pair energy        -0.090612822840
  CCSD-F12b correlation energy         -0.297546250717

  Triples (T) contribution (scaled)    -0.009961464904
  Total correlation energy             -0.307507715621

  CCSD-F12b total energy              -76.360606760728
  CCSD[T]-F12b energy                 -76.370897817567
  CCSD-T-F12b energy                  -76.370424975912
 !CCSD(T)-F12b total energy           -76.370568225632

 Timing summary (sec):

 STEP                 CPU(USER)    SYS     CPU(TOT)    WALL
 Transformation        159.30      5.06    164.36    165.54
 CCSD iterations       735.70     23.24    758.94    818.44
 Triples               429.68      2.99    432.67    449.05
 MP2-F12                60.17      1.21     61.38     61.46
 F12b energy            42.38      1.27     43.65     43.84

 Program statistics:

 Available memory in ccsd:              1999999871
 Min. memory needed in ccsd:               6763924
 Max. memory used in ccsd:                 7862874
 Max. memory used in cckext:               5171974 (17 integral passes)



 **********************************************************************************************************************************
 DATASETS  * FILE   NREC   LENGTH (MB)   RECORD NAMES
              1      19     1346.98       500      610      700      900      950      970     1000      129      960     1100   
                                          VAR    BASINP    GEOM    SYMINP    ZMAT    AOBASIS   BASIS     P2S    ABASIS      S 
                                         1400     1410     1200     1210     1080     1600     1650     1700     1380   
                                           T        V       H0       H01     AOSYM     SMH    MOLCAS    OPER     JKOP   

              2       8       17.39       700     1000      520     2100     7360     7350      200     2101   
                                         GEOM     BASIS   MCVARS     RHF    F12ABS    EF12    OPTIONS    RHF  

 PROGRAMS   *        TOTAL   CCSD(T)    HF-SCF       INT   CCSD(T)    HF-SCF       INT
 CPU TIMES  *      8163.43   1427.47    218.98      0.41   6078.06    209.34    228.92
 REAL TIME  *      8640.44 SEC
 DISK USED  *         3.24 GB (local),       75.64 GB (total)
 SF USED    *         5.12 GB
 GA USED    *         4.87 MB       (max)       0.00 MB       (current)
 **********************************************************************************************************************************

 Running procedure: SET_MONOMER2

 Dummy atoms: O10  H19  H20


 Recomputing one-electron integrals since nuclear charges changed


 PROGRAM * SEWARD (Integral evaluation for generally contracted gaussian basis sets)     Author: Roland Lindh, 1990

 Geometry written to block  1 of record 700


 Point group  C1  



 ATOMIC COORDINATES

 NR  ATOM    CHARGE       X              Y              Z

   1  O10     0.00   -7.075890501    0.749465381   -4.723937366
   2  H19     0.00   -8.725621408    0.873242442   -3.820459306
   3  H20     0.00   -7.500134016    0.238294464   -6.423179097
   4  C1      6.00   -6.193010455    2.801518980    2.403542658
   5  H41     1.00   -4.656285171    1.699997622    3.119937832
   6  H42     1.00   -5.973046335    4.726205038    2.982932688
   7  H43     1.00   -7.940251230    2.077186956    3.118237078
   8  H44     1.00   -6.176569838    2.685300823    0.384937212

 Bond lengths in Bohr (Angstrom)

 1-2  1.884994809  1-3  1.824472726  4-5  2.021904040  4-6  2.022002335  4-7  2.021953343
     ( 0.997496296)     ( 0.965469388)     ( 1.069945541)     ( 1.069997556)     ( 1.069971630)

 4-8  2.022015060
     ( 1.070004290)

 Bond angles

  2-1-3  105.14667399   5-4-6  109.53398059   5-4-7  109.65604535   5-4-8  108.43490854

  6-4-7  109.49436728   6-4-8  109.86987750   7-4-8  109.83468330

 NUCLEAR CHARGE:                   10
 NUMBER OF PRIMITIVE AOS:         578
 NUMBER OF SYMMETRY AOS:          474
 NUMBER OF CONTRACTIONS:          436   (  436A   )
 NUMBER OF CORE ORBITALS:           1   (    1A   )
 NUMBER OF VALENCE ORBITALS:        8   (    8A   )

 MOLECULE CHANGED: INITIALIZING OCCUPATION AND DUMP RECORDS


 NUCLEAR REPULSION ENERGY   13.68681606

 Basis set:  JKFIT                   
 Basis size:  1104
 Attributes:
 Sphericals:   T
 Basis set:  MP2FIT                  
 Basis size:  1246
 Attributes:
 Sphericals:   T
 Basis set:  RI                      
 Basis size:   730
 Attributes:
 Sphericals:   T
 Basis set:  TDDFT                   
 Basis size:  1246
 Attributes:
 Sphericals:   T

 Eigenvalues of metric

         1 0.136E-04 0.197E-04 0.311E-04 0.365E-04 0.613E-04 0.760E-04 0.865E-04 0.957E-04


 Contracted 2-electron integrals neglected if value below      1.0D-14

 OPERATOR DM      FOR CENTER  0  COORDINATES:    0.000000    0.000000    0.000000


 **********************************************************************************************************************************
 DATASETS  * FILE   NREC   LENGTH (MB)   RECORD NAMES
              1      18       37.12       500      610      700      900      950      970     1000      129      960     1100   
                                          VAR    BASINP    GEOM    SYMINP    ZMAT    AOBASIS   BASIS     P2S    ABASIS      S 
                                         1400     1410     1200     1210     1080     1600     1650     1700   
                                           T        V       H0       H01     AOSYM     SMH    MOLCAS    OPER   

              2       8       17.39       700     1000      520     2100     7360     7350      200     2101   
                                         GEOM     BASIS   MCVARS     RHF    F12ABS    EF12    OPTIONS    RHF  

 PROGRAMS   *        TOTAL       INT   CCSD(T)    HF-SCF       INT   CCSD(T)    HF-SCF       INT
 CPU TIMES  *      8163.82      0.39   1427.47    218.98      0.41   6078.06    209.34    228.92
 REAL TIME  *      8641.43 SEC
 DISK USED  *         3.24 GB (local),       75.64 GB (total)
 SF USED    *         5.12 GB
 GA USED    *         4.87 MB       (max)       0.00 MB       (current)
 **********************************************************************************************************************************


 PROGRAM * RHF-SCF (CLOSED SHELL)       Authors: W. Meyer, H.-J. Werner


 NUMBER OF ELECTRONS:       5+    5-    SPACE SYMMETRY=1    SPIN SYMMETRY: Singlet 
 CONVERGENCE THRESHOLDS:    1.00E-08 (Density)    1.00E-11 (Energy)
 MAX. NUMBER OF ITERATIONS:       60
 INTERPOLATION TYPE:            DIIS
 INTERPOLATION STEPS:              2 (START)      1 (STEP)
 LEVEL SHIFTS:                  0.00 (CLOSED)  0.00 (OPEN) 



 Orbital guess generated from atomic densities. Full valence occupancy:    9

 Molecular orbital dump at record        2102.2

 Initial occupancy:   5

 ITERATION    DDIFF          GRAD             ENERGY        2-EL.EN.            DIPOLE MOMENTS         DIIS   ORB.
    1      0.000D+00      0.000D+00       -40.19609502     53.506289    0.00411   -0.00276   -0.00131    0    start
    2      0.000D+00      0.257D-02       -40.21334907     52.217625    0.00129   -0.00088   -0.00038    1    diag
    3      0.158D-02      0.998D-03       -40.21562498     52.672084    0.00182   -0.00123   -0.00055    2    diag
    4      0.442D-03      0.249D-03       -40.21594443     52.617271    0.00162   -0.00110   -0.00048    3    diag
    5      0.167D-03      0.322D-04       -40.21594992     52.619419    0.00159   -0.00108   -0.00047    4    diag
    6      0.417D-04      0.264D-05       -40.21594997     52.619555    0.00159   -0.00108   -0.00047    5    diag
    7      0.557D-05      0.212D-06       -40.21594997     52.619516    0.00159   -0.00108   -0.00047    6    diag
    8      0.225D-06      0.170D-07       -40.21594997     52.619517    0.00159   -0.00108   -0.00047    7    diag
    9      0.821D-07      0.217D-08       -40.21594997     52.619517    0.00159   -0.00108   -0.00047    8    diag
   10      0.820D-08      0.595D-09       -40.21594997     52.619517    0.00159   -0.00108   -0.00047    0    orth

 Final occupancy:   5

 !RHF STATE  1.1 Energy               -40.215949965536
 Nuclear energy                        13.68681606
 One-electron energy                  -80.21252461
 Two-electron energy                   26.30975859
 Virial quotient                       -0.99838100
 !RHF STATE  1.1 Dipole moment          0.00158857    -0.00108109    -0.00047023
 Dipole moment /Debye                   0.00403748    -0.00274768    -0.00119513

 Orbital energies:

         1.1          2.1          3.1          4.1          5.1          6.1          7.1
    -11.196223    -0.950661    -0.551889    -0.549955    -0.547776     0.023574     0.036323


 HOMO      5.1    -0.547776 =     -14.9057eV
 LUMO      6.1     0.023574 =       0.6415eV
 LUMO-HOMO         0.571350 =      15.5472eV


 **********************************************************************************************************************************
 DATASETS  * FILE   NREC   LENGTH (MB)   RECORD NAMES
              1      18       37.12       500      610      700      900      950      970     1000      129      960     1100   
                                          VAR    BASINP    GEOM    SYMINP    ZMAT    AOBASIS   BASIS     P2S    ABASIS      S 
                                         1400     1410     1200     1210     1080     1600     1650     1700   
                                           T        V       H0       H01     AOSYM     SMH    MOLCAS    OPER   

              2       9       27.51       700     1000      520     2100     7360     7350      200     2101     2102   
                                         GEOM     BASIS   MCVARS     RHF    F12ABS    EF12    OPTIONS    RHF      RHF  

 PROGRAMS   *        TOTAL    HF-SCF       INT   CCSD(T)    HF-SCF       INT   CCSD(T)    HF-SCF       INT
 CPU TIMES  *      8340.70    176.88      0.39   1427.47    218.98      0.41   6078.06    209.34    228.92
 REAL TIME  *      8834.38 SEC
 DISK USED  *         3.24 GB (local),       75.64 GB (total)
 SF USED    *         5.12 GB
 GA USED    *         4.87 MB       (max)       0.00 MB       (current)
 **********************************************************************************************************************************

 Basis set:  JKFIT                   
 Basis size:  1104
 Attributes:
 Sphericals:   T
 Basis set:  MP2FIT                  
 Basis size:  1246
 Attributes:
 Sphericals:   T
 Basis set:  RI                      
 Basis size:   730
 Attributes:
 Sphericals:   T
 Basis set:  TDDFT                   
 Basis size:  1246
 Attributes:
 Sphericals:   T

 PROGRAM * CCSD (Closed-shell coupled cluster)     Authors: C. Hampel, H.-J. Werner, 1991, M. Deegan, P.J. Knowles, 1992

                                  CCSD-F12 implementation by  H.-J. Werner, 2007

                   Density fitting integral evaluation by F.R. Manby, 2003,2007, G. Knizia, 2010



 Convergence thresholds:  THRVAR = 1.00D-08  THRDEN = 1.00D-10

 CCSD(T)     terms to be evaluated (factor= 1.000)


 Number of core orbitals:           1 (   1 )
 Number of closed-shell orbitals:   4 (   4 )
 Number of external orbitals:     431 ( 431 )

 Molecular orbitals read from record     2102.2  Type=RHF/CANONICAL (state 1.1)

 MP2-F12 correlation treatment (H.-J. Werner, 2006)
 ==================================================

 Using MP2-F12 with ansatz 3C(FIX)

 Using projected zeroth-order Hamiltonian (+Z)

 FOCKRIB=T FOCKRIC=T FOCKRIP=T CABSP=T CABSA=T CABSK=T CABSF=T GBC=F EBC=F DMAT=T NOFIK=T NOPAO=1 SOLVE=-1  USEPAO=0
 EXCH_A= T EXCH_B= F EXCH_C= F EXCH_P= F

 Geminal basis:    OPTFULL  GEM_TYPE=SLATER  BETA=1.0  NGEM=6

 Optimizing Gaussian exponents for each gem_beta

 Geminal optimization for beta= 1.0000
 Weight function:   m=0, omega= 1.4646

 Augmented Hessian optimization of geminal fit. Trust ratio= 0.40000
 Convergence reached after   2 iterations. Final gradient= 7.85D-16, Step= 4.26D-06, Delta= 1.28D-09

 Alpha:                 0.19532     0.81920     2.85917     9.50073    35.69989   197.79328
 Coeff:                 0.27070     0.30552     0.18297     0.10986     0.06810     0.04224


 All pairs explicitly correlated. Number of r12-pairs:           10

 Excluding core orbitals from MO domains

 AO(A)-basis ORBITAL           loaded. Number of functions:     436
 RI(R)-basis RI                loaded. Number of functions:     730
 DF-basis JKFIT                loaded. Number of functions:    1104

 Screening thresholds:   THRAO=  1.00D-10  THRMO=  1.00D-09  THRPROD=  1.00D-09
                         THRSW=  1.00D-05  THROV=  1.00D-12  THRAOF12= 1.00D-10

 CPU time for Fock operators                      9.85 sec

 Construction of ABS:
 Smallest eigenvalue of S          2.25E-04  (threshold= 1.00E-08)
 Ratio eigmin/eigmax               3.92E-05  (threshold= 1.00E-09)
 Smallest eigenvalue of S kept     2.25E-04  (threshold= 2.25E-04, 0 functions deleted, 730 kept)

 Construction of CABS:
 Smallest eigenvalue of S          1.51E-08  (threshold= 1.00E-08)
 Ratio eigmin/eigmax               1.51E-08  (threshold= 1.00E-09)
 Smallest eigenvalue of S kept     1.51E-08  (threshold= 1.51E-08, 0 functions deleted, 730 kept)

 CPU time for CABS singles                        2.20 sec

 CABS-singles contribution of  -0.00024610 patched into reference energy.
 New reference energy         -40.21619606

 AO(A)-basis ORBITAL           loaded. Number of functions:     436
 RI(R)-basis RI                loaded. Number of functions:     730
 DF-basis MP2FIT               loaded. Number of functions:    1246

 Screening thresholds:   THRAO=  1.00D-10  THRMO=  1.00D-09  THRPROD=  1.00D-09
                         THRSW=  1.00D-05  THROV=  1.00D-12  THRAOF12= 1.00D-10

 CPU time for 3-index integral evaluation        18.64 sec
 CPU time for first  half transformation          3.78 sec ( 1704.1 MFLOP/sec)
 CPU time for second half transformation          0.02 sec ( 1914.8 MFLOP/sec)
 CPU time for sorting                             0.10 sec
 CPU time for fitting                             1.59 sec ( 4593.1 MFLOP/sec)
 CPU time for tilde quantities                    1.37 sec ( 6296.2 MFLOP/sec)
 CPU time for assembly                            4.88 sec ( 3658.5 MFLOP/sec)
 CPU time for tranop_f12                          4.49 sec ( 3862.6 MFLOP/sec)
 CPU time for f12 integrals (total)              42.16 sec, Elapsed time:     43.11 sec
 F12-matrices built in  4 passes.
 F12-matrices built in  4 passes.
 F12-matrices built in  4 passes.
 F12-matrices built in  4 passes.
 FC-matrix built in  4 passes.
 CPU time for f12 matrices (total)                1.73 sec, Elapsed time:      1.75 sec

 Diagonal F12 approximation with fixed coefficients:  TSING= 0.500,  TTRIP= 0.250 (scaled by -1/beta)

 DF-MP2-F12 energy corrections:
 ==============================
 Approx.                                    Singlet             Triplet             Total
 DF-MP2-F12/3*C(DX,FIX)                -0.007493193503     -0.000574742678     -0.008067936181
 DF-MP2-F12/3*C(FIX)                   -0.007045918169     -0.000473312663     -0.007519230832
 DF-MP2-F12/3C(FIX)                    -0.007075075507     -0.000486828100     -0.007561903608

 DF-MP2-F12 correlation energies:
 ================================
 Approx.                                    Singlet             Triplet             Ecorr            Total Energy
 DF-MP2                                -0.154423423470     -0.056464238351     -0.210887661822    -40.427083724063
 DF-MP2-F12/3*C(DX,FIX)                -0.161916616973     -0.057038981030     -0.218955598003    -40.435151660244
 DF-MP2-F12/3*C(FIX)                   -0.161469341639     -0.056937551014     -0.218406892653    -40.434602954895
 DF-MP2-F12/3C(FIX)                    -0.161498498978     -0.056951066452     -0.218449565429    -40.434645627670

 SCS-DF-MP2 energies (F_SING= 1.20000  F_TRIP= 0.62222  F_PARALLEL= 0.33333):
 ============================================================================
 SCS-DF-MP2                            -0.220441412027    -40.436637474269
 SCS-DF-MP2-F12/3*C(DX,FIX)            -0.229790861897    -40.445986924138
 SCS-DF-MP2-F12/3*C(FIX)               -0.229191019487    -40.445387081728
 SCS-DF-MP2-F12/3C(FIX)                -0.229234417898    -40.445430480140
 Symmetry transformation completed.

 Number of N-1 electron functions:               4
 Number of N-2 electron functions:              10
 Number of singly external CSFs:              1724
 Number of doubly external CSFs:           1486950
 Total number of CSFs:                     1488675

 Pair and operator lists are different

 Length of J-op  integral file:             203.65 MB
 Length of K-op  integral file:             338.08 MB
 Length of 3-ext integral record:             0.00 MB

 Memory could be reduced to 526.20 Mwords without degradation in triples

 Integral transformation finished. Total CPU: 165.65 sec, npass=  1  Memory used: 214.75 MW

 Reference energy:                    -40.21619606

 Adding F12 terms to K(Cij), methodcc=6,  factor= 1.0

 ITER.      SQ.NORM     CORR.ENERGY   TOTAL ENERGY   ENERGY CHANGE        DEN1      VAR(S)    VAR(P)  DIIS     TIME  TIME/IT
   1      1.07024082    -0.22512139   -40.44131745    -0.01422839    -0.00847403  0.63D-03  0.94D-03  1  1   272.23    46.74
   2      1.07517146    -0.22597158   -40.44216764    -0.00085019    -0.00530359  0.15D-04  0.10D-03  2  2   317.43    47.67
   3      1.07679436    -0.22605938   -40.44225545    -0.00008780    -0.00117763  0.22D-05  0.59D-05  3  3   363.29    48.23
   4      1.07717738    -0.22606668   -40.44226274    -0.00000729    -0.00020555  0.14D-06  0.33D-06  4  4   409.06    48.27
   5      1.07722944    -0.22606831   -40.44226437    -0.00000163    -0.00000894  0.11D-07  0.21D-07  5  5   455.30    48.26
   6      1.07723803    -0.22606701   -40.44226307     0.00000130    -0.00000327  0.77D-09  0.16D-08  6  6   500.81    48.15
   7      1.07723938    -0.22606669   -40.44226275     0.00000033    -0.00000084  0.50D-10  0.12D-09  6  1   546.33    48.07
   8      1.07723935    -0.22606676   -40.44226282    -0.00000007     0.00000020  0.52D-11  0.68D-11  6  3   592.50    48.04
   9      1.07723948    -0.22606674   -40.44226280     0.00000002    -0.00000009  0.38D-12  0.54D-12  6  2   638.64    48.01
  10      1.07723948    -0.22606674   -40.44226280     0.00000000     0.00000001  0.50D-13  0.56D-13  6  4   684.96    48.00
  11      1.07723949    -0.22606673   -40.44226280     0.00000000     0.00000000  0.46D-14  0.58D-14  6  5   731.36    48.00
  12      1.07723949    -0.22606673   -40.44226280     0.00000000     0.00000000  0.11D-15  0.63D-15  6  6   777.80    48.02
  13      1.07723948    -0.22606673   -40.44226280    -0.00000000     0.00000000  0.77D-17  0.68D-16  6  1   824.29    48.03
  14      1.07723948    -0.22606673   -40.44226280    -0.00000000     0.00000000  0.12D-17  0.87D-17  6  3   870.42    48.03

 Norm of t1 vector:      0.03291697      S-energy:    -0.00000000      T1 diagnostic:  0.00822924
                                                                       D1 diagnostic:  0.01319229

 Adding energy correction from Wij-K(Fij), methodcc=6  factor= 1.0

  CCSD correlation energy              -0.226066734307
  MP2-F12 correction (uncoupled)       -0.007438203933
  C*T doubles correction               -0.000126582499
  f12b correction                       0.001936579496

 Total CPU time for triples:    434.81 sec

  Ecorr(MP2)                           -0.210893000902
  Ecorr(MP2-F12)                       -0.218454904509
  Scale factor for triples energy       1.035856588769


 RESULTS
 =======

  Reference energy                    -40.215949965536
  F12 singles correction               -0.000246096706

 F12 singles corrections added to reference energy

  New reference energy                -40.216196062241

  F12a singlet correction              -0.007075517063
  F12a triplet correction              -0.000489269369
  F12a total correction                -0.007564786432

 F12a corrections for ansatz F12/3C(FIX) added to CCSD energy

  CCSD-F12a singlet pair energy        -0.178450409387
  CCSD-F12a triplet pair energy        -0.055181111347
  CCSD-F12a correlation energy         -0.233631520739

  Triples (T) contribution (scaled)    -0.007053170189
  Total correlation energy             -0.240684690928

  CCSD-F12a total energy              -40.449827582980
  CCSD[T]-F12a energy                 -40.457117282193
  CCSD-T-F12a energy                  -40.456810903096
 !CCSD(T)-F12a total energy           -40.456880753169

 F12b corrections for ansatz F12/3C(FIX) added to CCSD(T)-F12a energy

  CCSD-F12b singlet pair energy        -0.176581388494
  CCSD-F12b triplet pair energy        -0.055113552744
  CCSD-F12b correlation energy         -0.231694941243

  Triples (T) contribution (scaled)    -0.007053170189
  Total correlation energy             -0.238748111432

  CCSD-F12b total energy              -40.447891003484
  CCSD[T]-F12b energy                 -40.455180702697
  CCSD-T-F12b energy                  -40.454874323600
 !CCSD(T)-F12b total energy           -40.454944173673

 Timing summary (sec):

 STEP                 CPU(USER)    SYS     CPU(TOT)    WALL
 Transformation        166.02      5.27    171.29    171.50
 CCSD iterations       643.46     22.71    666.17    672.65
 Triples               434.81      2.68    437.49    438.01
 MP2-F12                61.04      1.20     62.24     62.34
 F12b energy            43.01      1.37     44.38     44.45

 Program statistics:

 Available memory in ccsd:              1999999866
 Min. memory needed in ccsd:               6763924
 Max. memory used in ccsd:                 7862874
 Max. memory used in cckext:               5171974 (15 integral passes)



 **********************************************************************************************************************************
 DATASETS  * FILE   NREC   LENGTH (MB)   RECORD NAMES
              1      19     1346.98       500      610      700      900      950      970     1000      129      960     1100   
                                          VAR    BASINP    GEOM    SYMINP    ZMAT    AOBASIS   BASIS     P2S    ABASIS      S 
                                         1400     1410     1200     1210     1080     1600     1650     1700     1380   
                                           T        V       H0       H01     AOSYM     SMH    MOLCAS    OPER     JKOP   

              2       9       27.51       700     1000      520     2100     7360     7350      200     2101     2102   
                                         GEOM     BASIS   MCVARS     RHF    F12ABS    EF12    OPTIONS    RHF      RHF  

 PROGRAMS   *        TOTAL   CCSD(T)    HF-SCF       INT   CCSD(T)    HF-SCF       INT   CCSD(T)    HF-SCF       INT
 CPU TIMES  *      9689.30   1348.59    176.88      0.39   1427.47    218.98      0.41   6078.06    209.34    228.92
 REAL TIME  *     10224.17 SEC
 DISK USED  *         3.24 GB (local),       75.64 GB (total)
 SF USED    *         5.12 GB
 GA USED    *         4.87 MB       (max)       0.00 MB       (current)
 **********************************************************************************************************************************
 Molecular orbitals read from record     2102.2  Type=RHF/CANONICAL (state 1.1)
 Occupation numbers read from record     2102.2  Type=RHF/RHF (state 1.1)
 Orbital energies read from record       2102.2  Type=RHF/CANONICAL (state 1.1)
 Redundancy group numbers read from rec  2102.2  Type=RHF/RHF (state 1.1)

 CCSD(T)-F12/aug-cc-pVQZ energy=    -40.454944173673

     CCSD(T)-F12          HF-SCF     CCSD(T)-F12          HF-SCF     CCSD(T)-F12          HF-SCF
    -40.45494417    -40.21594997    -76.37056823    -76.06277975   -116.82629301   -116.27876666
 **********************************************************************************************************************************
 Molpro calculation terminated
