
 Primary working directories    : /scratch/klimes/383243/molpro.F5XveaECbC
 Secondary working directories  : /scratch/klimes/383243/molpro.F5XveaECbC
 Wavefunction directory         : /scratch/klimes/383243/
 Main file repository           : /scratch/klimes/383243/molpro.F5XveaECbC/

 id        : karlovklimes

 Nodes                      nprocs
 nc-22.cc.karlov.mff.cuni.cz    4

 Using customized tuning parameters: mindgm=1; mindgv=20; mindgc=4; mindgr=1; noblas=0; minvec=7
 default implementation of scratch files=sf  


 Variables initialized (930), CPU time= 0.01 sec
                                                                                 !gdirect
 memory,2000,m
 gthresh,orbital=1d-10,energy=1d-10,grid=1d-8
 
 symmetry,nosym
 angstrom
 geometry={
 O11        -2.921900000000      2.481400000000      4.906200000000
 H21        -2.027400000000      2.492000000000      4.514500000000
 H22        -3.418800000000      3.190500000000      4.446000000000
 C1        -3.277200000000      1.482500000000      1.271900000000
 H41        -2.464000000000      0.899600000000      1.651000000000
 H42        -3.160800000000      2.501000000000      1.578500000000
 H43        -4.201800000000      1.099200000000      1.650100000000
 H44        -3.268500000000      1.421000000000      0.203700000000
 }
 
 nkerna=1
 nkernb=1
 
 gf=0
 sing=1
 thrdum=1d-4
 gridthr=1d-8
 
 basis={
 set,orbital
 default,avqz
 set,jkfit
 default,av5z/jkfit
 set,mp2fit
 default,av5z/mp2fit
 set,ri
 default,av5z/optri
 set,tddft
 default,av5z/mp2fit
 }
 
 proc set_monomer1
 dummy,4,5,6,7,8
 endproc
 
 proc set_monomer2
 dummy,1,2,3
 endproc
 
                                                                                 !12 energy
 {hf,accu=1.d-16}
 {ccsd(t)-f12,df_basis=mp2fit,df_basis_exch=jkfit,ri_basis=ri,scale_trip=1,THRAOF12=1d-10}
 
 set_monomer1
 {hf,accu=1.d-16}
 {ccsd(t)-f12,df_basis=mp2fit,df_basis_exch=jkfit,ri_basis=ri,scale_trip=1,THRAOF12=1d-10}
 
 set_monomer2
 {hf,accu=1.d-16}
 {ccsd(t)-f12,df_basis=mp2fit,df_basis_exch=jkfit,ri_basis=ri,scale_trip=1,THRAOF12=1d-10}
 
 Commands  initialized (760), CPU time= 0.00 sec, 617 directives.
 Default parameters read. Elapsed time= 0.20 sec

 Checking input...
 Passed
1


                                         ***  PROGRAM SYSTEM MOLPRO  ***
                                       Copyright, TTI GmbH Stuttgart, 2015
                                    Version 2019.1 linked Jan 14 2019 13:09:19


 **********************************************************************************************************************************
 LABEL *                                                                                 
  64 bit mpp version                                                                     DATE: 11-Mar-20          TIME: 16:42:27  
 **********************************************************************************************************************************

 SHA1:             d688ac825633d238f2093ded1675ba87ccd55965
 **********************************************************************************************************************************

 THRESHOLDS:

 ZERO    =  1.00D-12  ONEINT  =  1.00D-12  TWOINT  =  1.00D-11  PREFAC  =  1.00D-14  XXXXXX  =  1.00D-09  EORDER  =  1.00D-04
 ENERGY  =  1.00D-10  ETEST   =  0.00D+00  EDENS   =  0.00D+00  THRDEDEF=  1.00D-06  GRADIENT=  1.00D-02  STEP    =  1.00D-03
 ORBITAL =  1.00D-10  CIVEC   =  1.00D-05  COEFF   =  1.00D-04  PRINTCI =  5.00D-02  PUNCHCI =  9.90D+01  OPTGRAD =  3.00D-04
 OPTENERG=  1.00D-06  OPTSTEP =  3.00D-04  THRGRAD =  1.00D-10  COMPRESS=  1.00D-11  VARMIN  =  1.00D-07  VARMAX  =  1.00D-03
 THRDOUB =  0.00D+00  THRDIV  =  1.00D-05  THRRED  =  1.00D-07  THRPSP  =  1.00D+00  THRDC   =  1.00D-10  THRCS   =  1.00D-10
 THRNRM  =  1.00D-08  THREQ   =  0.00D+00  THRDE   =  1.00D+00  THRREF  =  1.00D-05  SPARFAC =  1.00D+00  THRDLP  =  1.00D-07
 THRDIA  =  1.00D-10  THRDLS  =  1.00D-07  THRGPS  =  0.00D+00  THRKEX  =  0.00D+00  THRDIS  =  2.00D-01  THRVAR  =  1.00D-10
 THRLOC  =  1.00D-06  THRGAP  =  1.00D-06  THRLOCT = -1.00D+00  THRGAPT = -1.00D+00  THRORB  =  1.00D-06  THRMLTP =  0.00D+00
 THRCPQCI=  1.00D-10  KEXTA   =  0.00D+00  THRCOARS=  0.00D+00  SYMTOL  =  1.00D-06  GRADTOL =  1.00D-06  THROVL  =  1.00D-08
 THRORTH =  1.00D-08  GRID    =  1.00D-08  GRIDMAX =  1.00D-03  DTMAX   =  0.00D+00  THROCCDE=  1.00D-01  THROCCDE=  1.00D-01
 THRPRINT=  2.50D-01


 Variable memory set to 2000000000 words,  buffer space 

 ZSYMEL=NOSYM
 ZUNIT=ANG


Geometry recognized as XYZ

 SETTING NKERNA         =         1.00000000                                  
 SETTING NKERNB         =         1.00000000                                  
 SETTING GF             =     0.00000000D+00                                  
 SETTING SING           =         1.00000000                                  
 SETTING THRDUM         =     1.00000000D-04                                  
 SETTING GRIDTHR        =     1.00000000D-08                                  
 SETTING BASIS          =    AVQZ


 Recomputing integrals since basis changed


 Using spherical harmonics

 Library entry O      S aug-cc-pVQZ          selected for orbital group  1
 Library entry O      P aug-cc-pVQZ          selected for orbital group  1
 Library entry O      D aug-cc-pVQZ          selected for orbital group  1
 Library entry O      F aug-cc-pVQZ          selected for orbital group  1
 Library entry O      G aug-cc-pVQZ          selected for orbital group  1
 Library entry H      S aug-cc-pVQZ          selected for orbital group  2
 Library entry H      P aug-cc-pVQZ          selected for orbital group  2
 Library entry H      D aug-cc-pVQZ          selected for orbital group  2
 Library entry H      F aug-cc-pVQZ          selected for orbital group  2
 Library entry C      S aug-cc-pVQZ          selected for orbital group  3
 Library entry C      P aug-cc-pVQZ          selected for orbital group  3
 Library entry C      D aug-cc-pVQZ          selected for orbital group  3
 Library entry C      F aug-cc-pVQZ          selected for orbital group  3
 Library entry C      G aug-cc-pVQZ          selected for orbital group  3


 PROGRAM * SEWARD (Integral evaluation for generally contracted gaussian basis sets)     Author: Roland Lindh, 1990

 Geometry written to block  1 of record 700


 Point group  C1  



 ATOMIC COORDINATES

 NR  ATOM    CHARGE       X              Y              Z

   1  O11     8.00   -5.521590763    4.689166405    9.271374312
   2  H21     1.00   -3.831230745    4.709197502    8.531168589
   3  H22     1.00   -6.460595675    6.029171200    8.401722350
   4  C1      6.00   -6.193010455    2.801518980    2.403542658
   5  H41     1.00   -4.656285171    1.699997622    3.119937832
   6  H42     1.00   -5.973046335    4.726205038    2.982932688
   7  H43     1.00   -7.940251230    2.077186956    3.118237078
   8  H44     1.00   -6.176569838    2.685300823    0.384937212

 Bond lengths in Bohr (Angstrom)

 1-2  1.845432944  1-3  1.853007720  4-5  2.021904040  4-6  2.022002335  4-7  2.021953343
     ( 0.976561058)     ( 0.980569457)     ( 1.069945541)     ( 1.069997556)     ( 1.069971630)

 4-8  2.022015060
     ( 1.070004290)

 Bond angles

  2-1-3  105.54946434   5-4-6  109.53398059   5-4-7  109.65604535   5-4-8  108.43490854

  6-4-7  109.49436728   6-4-8  109.86987750   7-4-8  109.83468330

 NUCLEAR CHARGE:                   20
 NUMBER OF PRIMITIVE AOS:         578
 NUMBER OF SYMMETRY AOS:          474
 NUMBER OF CONTRACTIONS:          436   (  436A   )
 NUMBER OF CORE ORBITALS:           2   (    2A   )
 NUMBER OF VALENCE ORBITALS:       14   (   14A   )


 NUCLEAR REPULSION ENERGY   36.73986578


 Basis set:  JKFIT                   
 Basis size:  1104
 Attributes:
 Sphericals:   T
 Basis set:  MP2FIT                  
 Basis size:  1246
 Attributes:
 Sphericals:   T
 Basis set:  RI                      
 Basis size:   730
 Attributes:
 Sphericals:   T
 Basis set:  TDDFT                   
 Basis size:  1246
 Attributes:
 Sphericals:   T

 **********************************************************************************************************************************


 Eigenvalues of metric

         1 0.147E-04 0.223E-04 0.343E-04 0.368E-04 0.637E-04 0.837E-04 0.932E-04 0.104E-03


 Contracted 2-electron integrals neglected if value below      1.0D-14
 AO integral compression algorithm  1   Integral accuracy      1.0D-14

     22992.126 MB (compressed) written to integral file ( 57.3%)

     Node minimum: 4887.151 MB, node maximum: 6433.014 MB


 NUMBER OF SORTED TWO-ELECTRON INTEGRALS: 1134451344.     BUFFER LENGTH:  32768
 NUMBER OF SEGMENTS:  36  SEGMENT LENGTH:   31999984      RECORD LENGTH: 524288

 Memory used in sort:      32.56 MW

 SORT1 READ  5012305700. AND WROTE   974433904. INTEGRALS IN   2808 RECORDS. CPU TIME:   222.93 SEC, REAL TIME:   245.27 SEC
 SORT2 READ  3896453165. AND WROTE  4537853011. INTEGRALS IN  92792 RECORDS. CPU TIME:    15.83 SEC, REAL TIME:    91.86 SEC

 Node minimum:  1134427528.  Node maximum:  1134498978. integrals

 OPERATOR DM      FOR CENTER  0  COORDINATES:    0.000000    0.000000    0.000000


 **********************************************************************************************************************************
 DATASETS  * FILE   NREC   LENGTH (MB)   RECORD NAMES
              1      18       37.12       500      610      700      900      950      970     1000      129      960     1100   
                                          VAR    BASINP    GEOM    SYMINP    ZMAT    AOBASIS   BASIS     P2S    ABASIS      S 
                                         1400     1410     1200     1210     1080     1600     1650     1700   
                                           T        V       H0       H01     AOSYM     SMH    MOLCAS    OPER   

 PROGRAMS   *        TOTAL       INT
 CPU TIMES  *       304.15    303.94
 REAL TIME  *       416.89 SEC
 DISK USED  *        37.64 MB (local),       70.09 GB (total)
 GA USED    *         0.00 MB       (max)       0.00 MB       (current)
 **********************************************************************************************************************************


 PROGRAM * RHF-SCF (CLOSED SHELL)       Authors: W. Meyer, H.-J. Werner


 NUMBER OF ELECTRONS:      10+   10-    SPACE SYMMETRY=1    SPIN SYMMETRY: Singlet 
 CONVERGENCE THRESHOLDS:    1.00E-08 (Density)    1.00E-11 (Energy)
 MAX. NUMBER OF ITERATIONS:       60
 INTERPOLATION TYPE:            DIIS
 INTERPOLATION STEPS:              2 (START)      1 (STEP)
 LEVEL SHIFTS:                  0.00 (CLOSED)  0.00 (OPEN) 



 Orbital guess generated from atomic densities. Full valence occupancy:   16

 Molecular orbital dump at record        2100.2

 Initial occupancy:  10

 ITERATION    DDIFF          GRAD             ENERGY        2-EL.EN.            DIPOLE MOMENTS         DIIS   ORB.
    1      0.000D+00      0.000D+00      -116.22068394    158.926186    0.38788    0.69411   -0.82673    0    start
    2      0.000D+00      0.379D-02      -116.26488106    154.071025    0.20502    0.35880   -0.48529    1    diag
    3      0.274D-02      0.222D-02      -116.27845740    156.099602    0.25187    0.44508   -0.57103    2    diag
    4      0.951D-03      0.331D-03      -116.27912046    155.987396    0.24878    0.43929   -0.56254    3    diag
    5      0.203D-03      0.969D-04      -116.27918951    155.981489    0.24843    0.43883   -0.56243    4    diag
    6      0.814D-04      0.235D-04      -116.27919331    155.987217    0.24817    0.43834   -0.56188    5    diag
    7      0.217D-04      0.462D-05      -116.27919353    155.985529    0.24818    0.43837   -0.56188    6    diag
    8      0.628D-05      0.116D-05      -116.27919355    155.985699    0.24815    0.43833   -0.56184    7    diag
    9      0.132D-05      0.273D-06      -116.27919355    155.985674    0.24815    0.43832   -0.56182    8    diag
   10      0.397D-06      0.322D-07      -116.27919355    155.985675    0.24815    0.43832   -0.56182    9    orth
   11      0.461D-07      0.757D-08      -116.27919355    155.985676    0.24815    0.43832   -0.56182    9    diag
   12      0.839D-08      0.204D-08      -116.27919355    155.985676    0.24815    0.43832   -0.56182    0    orth

 Final occupancy:  10

 !RHF STATE  1.1 Energy              -116.279193551683
 Nuclear energy                        36.73986578
 One-electron energy                 -231.01189751
 Two-electron energy                   77.99283818
 Virial quotient                       -1.00072823
 !RHF STATE  1.1 Dipole moment          0.24814595     0.43831617    -0.56182000
 Dipole moment /Debye                   0.63068278     1.11401562    -1.42791046

 Orbital energies:

         1.1          2.1          3.1          4.1          5.1          6.1          7.1          8.1          9.1         10.1
    -20.566710   -11.199667    -1.340377    -0.953973    -0.707180    -0.578458    -0.555593    -0.553175    -0.550991    -0.506987

        11.1         12.1
      0.023382     0.037160


 HOMO     10.1    -0.506987 =     -13.7958eV
 LUMO     11.1     0.023382 =       0.6363eV
 LUMO-HOMO         0.530369 =      14.4321eV


 **********************************************************************************************************************************
 DATASETS  * FILE   NREC   LENGTH (MB)   RECORD NAMES
              1      18       37.12       500      610      700      900      950      970     1000      129      960     1100   
                                          VAR    BASINP    GEOM    SYMINP    ZMAT    AOBASIS   BASIS     P2S    ABASIS      S 
                                         1400     1410     1200     1210     1080     1600     1650     1700   
                                           T        V       H0       H01     AOSYM     SMH    MOLCAS    OPER   

              2       4        6.75       700     1000      520     2100   
                                         GEOM     BASIS   MCVARS     RHF  

 PROGRAMS   *        TOTAL    HF-SCF       INT
 CPU TIMES  *       469.49    165.27    303.94
 REAL TIME  *       843.24 SEC
 DISK USED  *        57.70 MB (local),       70.17 GB (total)
 SF USED    *         0.76 MB
 GA USED    *         0.00 MB       (max)       0.00 MB       (current)
 **********************************************************************************************************************************

 Basis set:  JKFIT                   
 Basis size:  1104
 Attributes:
 Sphericals:   T
 Basis set:  MP2FIT                  
 Basis size:  1246
 Attributes:
 Sphericals:   T
 Basis set:  RI                      
 Basis size:   730
 Attributes:
 Sphericals:   T
 Basis set:  TDDFT                   
 Basis size:  1246
 Attributes:
 Sphericals:   T

 PROGRAM * CCSD (Closed-shell coupled cluster)     Authors: C. Hampel, H.-J. Werner, 1991, M. Deegan, P.J. Knowles, 1992

                                  CCSD-F12 implementation by  H.-J. Werner, 2007

                   Density fitting integral evaluation by F.R. Manby, 2003,2007, G. Knizia, 2010



 Convergence thresholds:  THRVAR = 1.00D-08  THRDEN = 1.00D-10

 CCSD(T)     terms to be evaluated (factor= 1.000)


 Number of core orbitals:           2 (   2 )
 Number of closed-shell orbitals:   8 (   8 )
 Number of external orbitals:     426 ( 426 )

 Molecular orbitals read from record     2100.2  Type=RHF/CANONICAL (state 1.1)

 MP2-F12 correlation treatment (H.-J. Werner, 2006)
 ==================================================

 Using MP2-F12 with ansatz 3C(FIX)

 Using projected zeroth-order Hamiltonian (+Z)

 FOCKRIB=T FOCKRIC=T FOCKRIP=T CABSP=T CABSA=T CABSK=T CABSF=T GBC=F EBC=F DMAT=T NOFIK=T NOPAO=1 SOLVE=-1  USEPAO=0
 EXCH_A= T EXCH_B= F EXCH_C= F EXCH_P= F

 Geminal basis:    OPTFULL  GEM_TYPE=SLATER  BETA=1.0  NGEM=6

 Optimizing Gaussian exponents for each gem_beta

 Geminal optimization for beta= 1.0000
 Weight function:   m=0, omega= 1.4646

 Augmented Hessian optimization of geminal fit. Trust ratio= 0.40000
 Convergence reached after   2 iterations. Final gradient= 7.85D-16, Step= 4.26D-06, Delta= 1.28D-09

 Alpha:                 0.19532     0.81920     2.85917     9.50073    35.69989   197.79328
 Coeff:                 0.27070     0.30552     0.18297     0.10986     0.06810     0.04224


 All pairs explicitly correlated. Number of r12-pairs:           36

 Excluding core orbitals from MO domains

 AO(A)-basis ORBITAL           loaded. Number of functions:     436
 RI(R)-basis RI                loaded. Number of functions:     730
 DF-basis JKFIT                loaded. Number of functions:    1104

 Screening thresholds:   THRAO=  1.00D-10  THRMO=  1.00D-09  THRPROD=  1.00D-09
                         THRSW=  1.00D-05  THROV=  1.00D-12  THRAOF12= 1.00D-10

 CPU time for Fock operators                     11.50 sec

 Construction of ABS:
 Smallest eigenvalue of S          2.27E-04  (threshold= 1.00E-08)
 Ratio eigmin/eigmax               3.94E-05  (threshold= 1.00E-09)
 Smallest eigenvalue of S kept     2.27E-04  (threshold= 2.27E-04, 0 functions deleted, 730 kept)

 Construction of CABS:
 Smallest eigenvalue of S          1.52E-08  (threshold= 1.00E-08)
 Ratio eigmin/eigmax               1.52E-08  (threshold= 1.00E-09)
 Smallest eigenvalue of S kept     1.52E-08  (threshold= 1.52E-08, 0 functions deleted, 730 kept)

 CPU time for CABS singles                        2.11 sec

 CABS-singles contribution of  -0.00053894 patched into reference energy.
 New reference energy        -116.27973250

 AO(A)-basis ORBITAL           loaded. Number of functions:     436
 RI(R)-basis RI                loaded. Number of functions:     730
 DF-basis MP2FIT               loaded. Number of functions:    1246

 Screening thresholds:   THRAO=  1.00D-10  THRMO=  1.00D-09  THRPROD=  1.00D-09
                         THRSW=  1.00D-05  THROV=  1.00D-12  THRAOF12= 1.00D-10

 CPU time for 3-index integral evaluation        18.90 sec
 CPU time for first  half transformation          4.46 sec ( 2934.0 MFLOP/sec)
 CPU time for second half transformation          0.06 sec ( 2519.3 MFLOP/sec)
 CPU time for sorting                             0.14 sec
 CPU time for fitting                             1.74 sec ( 4268.5 MFLOP/sec)
 CPU time for tilde quantities                    2.26 sec ( 4457.0 MFLOP/sec)
 CPU time for assembly                           15.84 sec ( 4477.1 MFLOP/sec)
 CPU time for tranop_f12                         15.53 sec ( 4438.1 MFLOP/sec)
 CPU time for f12 integrals (total)              80.57 sec, Elapsed time:     82.80 sec
 F12-matrices built in  4 passes.
 F12-matrices built in  4 passes.
 F12-matrices built in  4 passes.
 F12-matrices built in  4 passes.
 FC-matrix built in  4 passes.
 CPU time for f12 matrices (total)                5.86 sec, Elapsed time:      6.07 sec

 Diagonal F12 approximation with fixed coefficients:  TSING= 0.500,  TTRIP= 0.250 (scaled by -1/beta)

 DF-MP2-F12 energy corrections:
 ==============================
 Approx.                                    Singlet             Triplet             Total
 DF-MP2-F12/3*C(DX,FIX)                -0.021219498009     -0.002109202171     -0.023328700181
 DF-MP2-F12/3*C(FIX)                   -0.019151381931     -0.001555120489     -0.020706502421
 DF-MP2-F12/3C(FIX)                    -0.019166650716     -0.001606525658     -0.020773176374

 DF-MP2-F12 correlation energies:
 ================================
 Approx.                                    Singlet             Triplet             Ecorr            Total Energy
 DF-MP2                                -0.340772469990     -0.158339383859     -0.499111853849   -116.778844349026
 DF-MP2-F12/3*C(DX,FIX)                -0.361991967999     -0.160448586031     -0.522440554030   -116.802173049207
 DF-MP2-F12/3*C(FIX)                   -0.359923851921     -0.159894504349     -0.519818356270   -116.799550851447
 DF-MP2-F12/3C(FIX)                    -0.359939120706     -0.159945909517     -0.519885030223   -116.799617525400

 SCS-DF-MP2 energies (F_SING= 1.20000  F_TRIP= 0.62222  F_PARALLEL= 0.33333):
 ============================================================================
 SCS-DF-MP2                            -0.507449247278   -116.787181742455
 SCS-DF-MP2-F12/3*C(DX,FIX)            -0.534225037351   -116.813957532529
 SCS-DF-MP2-F12/3*C(FIX)               -0.531398536122   -116.811131031299
 SCS-DF-MP2-F12/3C(FIX)                -0.531448844102   -116.811181339279
 Symmetry transformation completed.

 Number of N-1 electron functions:               8
 Number of N-2 electron functions:              36
 Number of singly external CSFs:              3408
 Number of doubly external CSFs:           5808936
 Total number of CSFs:                     5812345

 Pair and operator lists are different

 Length of J-op  integral file:               0.75 GB
 Length of K-op  integral file:               0.98 GB
 Length of 3-ext integral record:             0.00 MB

 Memory could be reduced to 828.63 Mwords without degradation in triples

 Integral transformation finished. Total CPU: 293.30 sec, npass=  1  Memory used: 389.45 MW

 Reference energy:                   -116.27973250

 Adding F12 terms to K(Cij), methodcc=6,  factor= 1.0

 ITER.      SQ.NORM     CORR.ENERGY   TOTAL ENERGY   ENERGY CHANGE        DEN1      VAR(S)    VAR(P)  DIIS     TIME  TIME/IT
   1      1.13401707    -0.51276656  -116.79249906    -0.01364536    -0.00171772  0.14D-02  0.20D-02  1  1   556.46   159.47
   2      1.14229574    -0.51341677  -116.79314926    -0.00065021    -0.01000998  0.30D-04  0.24D-03  2  2   713.52   160.97
   3      1.14533961    -0.51360943  -116.79334192    -0.00019266    -0.00214082  0.13D-04  0.14D-04  3  3   870.00   161.67
   4      1.14632225    -0.51362868  -116.79336117    -0.00001925    -0.00058461  0.66D-06  0.13D-05  4  4  1027.02   161.97
   5      1.14649146    -0.51362836  -116.79336085     0.00000032    -0.00004010  0.21D-06  0.91D-07  5  5  1183.70   162.19
   6      1.14653511    -0.51362551  -116.79335801     0.00000284    -0.00000631  0.22D-07  0.81D-08  6  6  1341.06   162.43
   7      1.14654690    -0.51362426  -116.79335675     0.00000126    -0.00000359  0.20D-08  0.86D-09  6  1  1497.99   162.56
   8      1.14654856    -0.51362428  -116.79335677    -0.00000002     0.00000032  0.37D-09  0.11D-09  6  3  1655.74   162.72
   9      1.14654975    -0.51362421  -116.79335671     0.00000007    -0.00000034  0.33D-10  0.18D-10  6  2  1813.07   162.79
  10      1.14654993    -0.51362421  -116.79335670     0.00000000     0.00000006  0.32D-11  0.21D-11  6  4  1969.80   162.87
  11      1.14654992    -0.51362421  -116.79335671    -0.00000000     0.00000005  0.59D-12  0.30D-12  6  5  2126.32   162.93
  12      1.14654991    -0.51362421  -116.79335671    -0.00000000     0.00000002  0.10D-12  0.39D-13  6  6  2282.98   162.98
  13      1.14654989    -0.51362421  -116.79335671    -0.00000000     0.00000001  0.19D-13  0.57D-14  6  1  2439.68   163.01
  14      1.14654988    -0.51362421  -116.79335671    -0.00000000     0.00000000  0.31D-14  0.13D-14  6  3  2597.45   163.02
  15      1.14654988    -0.51362421  -116.79335671    -0.00000000     0.00000000  0.32D-15  0.18D-15  6  2  2755.42   163.03
  16      1.14654988    -0.51362421  -116.79335671     0.00000000    -0.00000000  0.47D-16  0.25D-16  6  4  2913.01   163.07
  17      1.14654988    -0.51362421  -116.79335671     0.00000000    -0.00000000  0.94D-17  0.42D-17  6  5  3070.62   163.08

 Norm of t1 vector:      0.04995905      S-energy:    -0.00000000      T1 diagnostic:  0.00883160
                                                                       D1 diagnostic:  0.01932671

 Adding energy correction from Wij-K(Fij), methodcc=6  factor= 1.0

  CCSD correlation energy              -0.513624214666
  MP2-F12 correction (uncoupled)       -0.020206655479
  C*T doubles correction               -0.000548067560
  f12b correction                       0.004653840253

   CPU time for triples:   2039.92 sec for i =  1 -  7 /  8 (~  68.8 % done)
   CPU time for triples:    814.05 sec for i =  8 -  8 /  8 (  100.0 % done)

 Total CPU time for triples:   2857.98 sec

  Ecorr(MP2)                           -0.499121198703
  Ecorr(MP2-F12)                       -0.519894375077
  Scale factor for triples energy       1.041619503295


 RESULTS
 =======

  Reference energy                   -116.279193551681
  F12 singles correction               -0.000538943496

 F12 singles corrections added to reference energy

  New reference energy               -116.279732495177

  F12a singlet correction              -0.019137193725
  F12a triplet correction              -0.001617529314
  F12a total correction                -0.020754723039

 F12a corrections for ansatz F12/3C(FIX) added to CCSD energy

  CCSD-F12a singlet pair energy        -0.387898347882
  CCSD-F12a triplet pair energy        -0.146480589581
  CCSD-F12a correlation energy         -0.534378937705

  Triples (T) contribution (scaled)    -0.017118704814
  Total correlation energy             -0.551497642519

  CCSD-F12a total energy             -116.814111432882
  CCSD[T]-F12a energy                -116.831798350748
  CCSD-T-F12a energy                 -116.831015813046
 !CCSD(T)-F12a total energy          -116.831230137696

 F12b corrections for ansatz F12/3C(FIX) added to CCSD(T)-F12a energy

  CCSD-F12b singlet pair energy        -0.383459521744
  CCSD-F12b triplet pair energy        -0.146265575466
  CCSD-F12b correlation energy         -0.529725097452

  Triples (T) contribution (scaled)    -0.017118704814
  Total correlation energy             -0.546843802267

  CCSD-F12b total energy             -116.809457592630
  CCSD[T]-F12b energy                -116.827144510496
  CCSD-T-F12b energy                 -116.826361972793
 !CCSD(T)-F12b total energy          -116.826576297444

 Timing summary (sec):

 STEP                 CPU(USER)    SYS     CPU(TOT)    WALL
 Transformation        294.43      7.38    301.81    308.33
 CCSD iterations      2669.12     39.71   2708.83   2772.84
 Triples              2857.98     10.63   2868.61   2879.84
 MP2-F12               107.18      2.54    109.72    110.29
 F12b energy           135.25      1.64    136.89    138.50

 Program statistics:

 Available memory in ccsd:              1999999554
 Min. memory needed in ccsd:              16971337
 Max. memory used in ccsd:                21987113
 Max. memory used in cckext:              15122080 (18 integral passes)



 **********************************************************************************************************************************
 DATASETS  * FILE   NREC   LENGTH (MB)   RECORD NAMES
              1      19     2602.04       500      610      700      900      950      970     1000      129      960     1100   
                                          VAR    BASINP    GEOM    SYMINP    ZMAT    AOBASIS   BASIS     P2S    ABASIS      S 
                                         1400     1410     1200     1210     1080     1600     1650     1700     1380   
                                           T        V       H0       H01     AOSYM     SMH    MOLCAS    OPER     JKOP   

              2       6       10.56       700     1000      520     2100     7360     7350   
                                         GEOM     BASIS   MCVARS     RHF    F12ABS    EF12   

 PROGRAMS   *        TOTAL   CCSD(T)    HF-SCF       INT
 CPU TIMES  *      6533.71   6064.21    165.27    303.94
 REAL TIME  *      7054.42 SEC
 DISK USED  *         3.24 GB (local),       81.02 GB (total)
 SF USED    *         5.12 GB
 GA USED    *         4.87 MB       (max)       0.00 MB       (current)
 **********************************************************************************************************************************

 Running procedure: SET_MONOMER1

 Dummy atoms: C1  H41  H42  H43  H44


 Recomputing one-electron integrals since nuclear charges changed


 PROGRAM * SEWARD (Integral evaluation for generally contracted gaussian basis sets)     Author: Roland Lindh, 1990

 Geometry written to block  1 of record 700


 Point group  C1  



 ATOMIC COORDINATES

 NR  ATOM    CHARGE       X              Y              Z

   1  O11     8.00   -5.521590763    4.689166405    9.271374312
   2  H21     1.00   -3.831230745    4.709197502    8.531168589
   3  H22     1.00   -6.460595675    6.029171200    8.401722350
   4  C1      0.00   -6.193010455    2.801518980    2.403542658
   5  H41     0.00   -4.656285171    1.699997622    3.119937832
   6  H42     0.00   -5.973046335    4.726205038    2.982932688
   7  H43     0.00   -7.940251230    2.077186956    3.118237078
   8  H44     0.00   -6.176569838    2.685300823    0.384937212

 Bond lengths in Bohr (Angstrom)

 1-2  1.845432944  1-3  1.853007720  4-5  2.021904040  4-6  2.022002335  4-7  2.021953343
     ( 0.976561058)     ( 0.980569457)     ( 1.069945541)     ( 1.069997556)     ( 1.069971630)

 4-8  2.022015060
     ( 1.070004290)

 Bond angles

  2-1-3  105.54946434   5-4-6  109.53398059   5-4-7  109.65604535   5-4-8  108.43490854

  6-4-7  109.49436728   6-4-8  109.86987750   7-4-8  109.83468330

 NUCLEAR CHARGE:                   10
 NUMBER OF PRIMITIVE AOS:         578
 NUMBER OF SYMMETRY AOS:          474
 NUMBER OF CONTRACTIONS:          436   (  436A   )
 NUMBER OF CORE ORBITALS:           1   (    1A   )
 NUMBER OF VALENCE ORBITALS:        6   (    6A   )

 MOLECULE CHANGED: INITIALIZING OCCUPATION AND DUMP RECORDS


 NUCLEAR REPULSION ENERGY    8.99189736

 Basis set:  JKFIT                   
 Basis size:  1104
 Attributes:
 Sphericals:   T
 Basis set:  MP2FIT                  
 Basis size:  1246
 Attributes:
 Sphericals:   T
 Basis set:  RI                      
 Basis size:   730
 Attributes:
 Sphericals:   T
 Basis set:  TDDFT                   
 Basis size:  1246
 Attributes:
 Sphericals:   T

 Eigenvalues of metric

         1 0.147E-04 0.223E-04 0.343E-04 0.368E-04 0.637E-04 0.837E-04 0.932E-04 0.104E-03


 Contracted 2-electron integrals neglected if value below      1.0D-14

 OPERATOR DM      FOR CENTER  0  COORDINATES:    0.000000    0.000000    0.000000


 **********************************************************************************************************************************
 DATASETS  * FILE   NREC   LENGTH (MB)   RECORD NAMES
              1      18       37.12       500      610      700      900      950      970     1000      129      960     1100   
                                          VAR    BASINP    GEOM    SYMINP    ZMAT    AOBASIS   BASIS     P2S    ABASIS      S 
                                         1400     1410     1200     1210     1080     1600     1650     1700   
                                           T        V       H0       H01     AOSYM     SMH    MOLCAS    OPER   

              2       7       10.59       700     1000      520     2100     7360     7350      200   
                                         GEOM     BASIS   MCVARS     RHF    F12ABS    EF12    OPTIONS    

 PROGRAMS   *        TOTAL       INT   CCSD(T)    HF-SCF       INT
 CPU TIMES  *      6534.16      0.44   6064.21    165.27    303.94
 REAL TIME  *      7055.75 SEC
 DISK USED  *         3.24 GB (local),       81.02 GB (total)
 SF USED    *         5.12 GB
 GA USED    *         4.87 MB       (max)       0.00 MB       (current)
 **********************************************************************************************************************************


 PROGRAM * RHF-SCF (CLOSED SHELL)       Authors: W. Meyer, H.-J. Werner


 NUMBER OF ELECTRONS:       5+    5-    SPACE SYMMETRY=1    SPIN SYMMETRY: Singlet 
 CONVERGENCE THRESHOLDS:    1.00E-08 (Density)    1.00E-11 (Energy)
 MAX. NUMBER OF ITERATIONS:       60
 INTERPOLATION TYPE:            DIIS
 INTERPOLATION STEPS:              2 (START)      1 (STEP)
 LEVEL SHIFTS:                  0.00 (CLOSED)  0.00 (OPEN) 



 Orbital guess generated from atomic densities. Full valence occupancy:    7

 Molecular orbital dump at record        2101.2

 Initial occupancy:   5

 ITERATION    DDIFF          GRAD             ENERGY        2-EL.EN.            DIPOLE MOMENTS         DIIS   ORB.
    1      0.000D+00      0.000D+00       -76.02513805     77.402241    0.38417    0.69818   -0.82576    0    start
    2      0.000D+00      0.467D-02       -76.05188496     73.747933    0.22424    0.40495   -0.47958    1    diag
    3      0.223D-02      0.297D-02       -76.06343670     75.369628    0.26429    0.47784   -0.56576    2    diag
    4      0.845D-03      0.278D-03       -76.06363082     75.278376    0.26289    0.47479   -0.56226    3    diag
    5      0.105D-03      0.778D-04       -76.06365172     75.292655    0.26237    0.47364   -0.56096    4    diag
    6      0.328D-04      0.154D-04       -76.06365307     75.291629    0.26227    0.47339   -0.56067    5    diag
    7      0.825D-05      0.313D-05       -76.06365313     75.291776    0.26223    0.47330   -0.56057    6    diag
    8      0.227D-05      0.592D-06       -76.06365314     75.291761    0.26222    0.47328   -0.56054    7    diag
    9      0.423D-06      0.796D-07       -76.06365314     75.291753    0.26222    0.47327   -0.56054    8    diag
   10      0.550D-07      0.180D-07       -76.06365314     75.291756    0.26222    0.47327   -0.56054    9    orth
   11      0.132D-07      0.303D-08       -76.06365314     75.291755    0.26222    0.47327   -0.56054    9    diag
   12      0.243D-08      0.494D-09       -76.06365314     75.291755    0.26222    0.47327   -0.56054    0    orth

 Final occupancy:   5

 !RHF STATE  1.1 Energy               -76.063653136322
 Nuclear energy                         8.99189736
 One-electron energy                 -122.70142816
 Two-electron energy                   37.64587766
 Virial quotient                       -1.00201434
 !RHF STATE  1.1 Dipole moment          0.26221774     0.47327360    -0.56053725
 Dipole moment /Debye                   0.66644736     1.20286273    -1.42465027

 Orbital energies:

         1.1          2.1          3.1          4.1          5.1          6.1          7.1
    -20.567941    -1.341392    -0.708166    -0.578882    -0.508455     0.017702     0.034989


 HOMO      5.1    -0.508455 =     -13.8358eV
 LUMO      6.1     0.017702 =       0.4817eV
 LUMO-HOMO         0.526158 =      14.3175eV


 **********************************************************************************************************************************
 DATASETS  * FILE   NREC   LENGTH (MB)   RECORD NAMES
              1      18       37.12       500      610      700      900      950      970     1000      129      960     1100   
                                          VAR    BASINP    GEOM    SYMINP    ZMAT    AOBASIS   BASIS     P2S    ABASIS      S 
                                         1400     1410     1200     1210     1080     1600     1650     1700   
                                           T        V       H0       H01     AOSYM     SMH    MOLCAS    OPER   

              2       8       17.39       700     1000      520     2100     7360     7350      200     2101   
                                         GEOM     BASIS   MCVARS     RHF    F12ABS    EF12    OPTIONS    RHF  

 PROGRAMS   *        TOTAL    HF-SCF       INT   CCSD(T)    HF-SCF       INT
 CPU TIMES  *      6724.85    190.69      0.44   6064.21    165.27    303.94
 REAL TIME  *      7323.59 SEC
 DISK USED  *         3.24 GB (local),       81.02 GB (total)
 SF USED    *         5.12 GB
 GA USED    *         4.87 MB       (max)       0.00 MB       (current)
 **********************************************************************************************************************************

 Basis set:  JKFIT                   
 Basis size:  1104
 Attributes:
 Sphericals:   T
 Basis set:  MP2FIT                  
 Basis size:  1246
 Attributes:
 Sphericals:   T
 Basis set:  RI                      
 Basis size:   730
 Attributes:
 Sphericals:   T
 Basis set:  TDDFT                   
 Basis size:  1246
 Attributes:
 Sphericals:   T

 PROGRAM * CCSD (Closed-shell coupled cluster)     Authors: C. Hampel, H.-J. Werner, 1991, M. Deegan, P.J. Knowles, 1992

                                  CCSD-F12 implementation by  H.-J. Werner, 2007

                   Density fitting integral evaluation by F.R. Manby, 2003,2007, G. Knizia, 2010



 Convergence thresholds:  THRVAR = 1.00D-08  THRDEN = 1.00D-10

 CCSD(T)     terms to be evaluated (factor= 1.000)


 Number of core orbitals:           1 (   1 )
 Number of closed-shell orbitals:   4 (   4 )
 Number of external orbitals:     431 ( 431 )

 Molecular orbitals read from record     2101.2  Type=RHF/CANONICAL (state 1.1)

 MP2-F12 correlation treatment (H.-J. Werner, 2006)
 ==================================================

 Using MP2-F12 with ansatz 3C(FIX)

 Using projected zeroth-order Hamiltonian (+Z)

 FOCKRIB=T FOCKRIC=T FOCKRIP=T CABSP=T CABSA=T CABSK=T CABSF=T GBC=F EBC=F DMAT=T NOFIK=T NOPAO=1 SOLVE=-1  USEPAO=0
 EXCH_A= T EXCH_B= F EXCH_C= F EXCH_P= F

 Geminal basis:    OPTFULL  GEM_TYPE=SLATER  BETA=1.0  NGEM=6

 Optimizing Gaussian exponents for each gem_beta

 Geminal optimization for beta= 1.0000
 Weight function:   m=0, omega= 1.4646

 Augmented Hessian optimization of geminal fit. Trust ratio= 0.40000
 Convergence reached after   2 iterations. Final gradient= 8.31D-16, Step= 4.24D-06, Delta= 1.28D-09

 Alpha:                 0.19532     0.81920     2.85917     9.50073    35.69989   197.79328
 Coeff:                 0.27070     0.30552     0.18297     0.10986     0.06810     0.04224


 All pairs explicitly correlated. Number of r12-pairs:           10

 Excluding core orbitals from MO domains

 AO(A)-basis ORBITAL           loaded. Number of functions:     436
 RI(R)-basis RI                loaded. Number of functions:     730
 DF-basis JKFIT                loaded. Number of functions:    1104

 Screening thresholds:   THRAO=  1.00D-10  THRMO=  1.00D-09  THRPROD=  1.00D-09
                         THRSW=  1.00D-05  THROV=  1.00D-12  THRAOF12= 1.00D-10

 CPU time for Fock operators                      9.57 sec

 Construction of ABS:
 Smallest eigenvalue of S          2.27E-04  (threshold= 1.00E-08)
 Ratio eigmin/eigmax               3.94E-05  (threshold= 1.00E-09)
 Smallest eigenvalue of S kept     2.27E-04  (threshold= 2.27E-04, 0 functions deleted, 730 kept)

 Construction of CABS:
 Smallest eigenvalue of S          1.52E-08  (threshold= 1.00E-08)
 Ratio eigmin/eigmax               1.52E-08  (threshold= 1.00E-09)
 Smallest eigenvalue of S kept     1.52E-08  (threshold= 1.52E-08, 0 functions deleted, 730 kept)

 CPU time for CABS singles                        2.16 sec

 CABS-singles contribution of  -0.00029331 patched into reference energy.
 New reference energy         -76.06394645

 AO(A)-basis ORBITAL           loaded. Number of functions:     436
 RI(R)-basis RI                loaded. Number of functions:     730
 DF-basis MP2FIT               loaded. Number of functions:    1246

 Screening thresholds:   THRAO=  1.00D-10  THRMO=  1.00D-09  THRPROD=  1.00D-09
                         THRSW=  1.00D-05  THROV=  1.00D-12  THRAOF12= 1.00D-10

 CPU time for 3-index integral evaluation        18.87 sec
 CPU time for first  half transformation          2.97 sec ( 2189.3 MFLOP/sec)
 CPU time for second half transformation          0.03 sec ( 1274.5 MFLOP/sec)
 CPU time for sorting                             0.10 sec
 CPU time for fitting                             1.38 sec ( 4299.8 MFLOP/sec)
 CPU time for tilde quantities                    1.64 sec ( 4434.1 MFLOP/sec)
 CPU time for assembly                            4.48 sec ( 4366.6 MFLOP/sec)
 CPU time for tranop_f12                          4.51 sec ( 3164.7 MFLOP/sec)
 CPU time for f12 integrals (total)              40.94 sec, Elapsed time:     41.93 sec
 F12-matrices built in  4 passes.
 F12-matrices built in  4 passes.
 F12-matrices built in  4 passes.
 F12-matrices built in  4 passes.
 FC-matrix built in  4 passes.
 CPU time for f12 matrices (total)                1.68 sec, Elapsed time:      1.69 sec

 Diagonal F12 approximation with fixed coefficients:  TSING= 0.500,  TTRIP= 0.250 (scaled by -1/beta)

 DF-MP2-F12 energy corrections:
 ==============================
 Approx.                                    Singlet             Triplet             Total
 DF-MP2-F12/3*C(DX,FIX)                -0.013717307588     -0.001530293207     -0.015247600795
 DF-MP2-F12/3*C(FIX)                   -0.012096405829     -0.001076302319     -0.013172708148
 DF-MP2-F12/3C(FIX)                    -0.012082508964     -0.001113511267     -0.013196020230

 DF-MP2-F12 correlation energies:
 ================================
 Approx.                                    Singlet             Triplet             Ecorr            Total Energy
 DF-MP2                                -0.186161625000     -0.101364644231     -0.287526269231    -76.351472718846
 DF-MP2-F12/3*C(DX,FIX)                -0.199878932587     -0.102894937439     -0.302773870026    -76.366720319641
 DF-MP2-F12/3*C(FIX)                   -0.198258030828     -0.102440946550     -0.300698977379    -76.364645426994
 DF-MP2-F12/3C(FIX)                    -0.198244133963     -0.102478155498     -0.300722289461    -76.364668739076

 SCS-DF-MP2 energies (F_SING= 1.20000  F_TRIP= 0.62222  F_PARALLEL= 0.33333):
 ============================================================================
 SCS-DF-MP2                            -0.286465284188    -76.350411733803
 SCS-DF-MP2-F12/3*C(DX,FIX)            -0.303878235733    -76.367824685348
 SCS-DF-MP2-F12/3*C(FIX)               -0.301650670403    -76.365597120018
 SCS-DF-MP2-F12/3C(FIX)                -0.301657146399    -76.365603596014
 Symmetry transformation completed.

 Number of N-1 electron functions:               4
 Number of N-2 electron functions:              10
 Number of singly external CSFs:              1724
 Number of doubly external CSFs:           1486950
 Total number of CSFs:                     1488675

 Pair and operator lists are different

 Length of J-op  integral file:             203.65 MB
 Length of K-op  integral file:             338.08 MB
 Length of 3-ext integral record:             0.00 MB

 Memory could be reduced to 526.20 Mwords without degradation in triples

 Integral transformation finished. Total CPU: 155.41 sec, npass=  1  Memory used: 214.75 MW

 Reference energy:                    -76.06394645

 Adding F12 terms to K(Cij), methodcc=6,  factor= 1.0

 ITER.      SQ.NORM     CORR.ENERGY   TOTAL ENERGY   ENERGY CHANGE        DEN1      VAR(S)    VAR(P)  DIIS     TIME  TIME/IT
   1      1.06350233    -0.28696095   -76.35090740     0.00056936     0.00672855  0.79D-03  0.10D-02  1  1   258.37    54.12
   2      1.06702959    -0.28676281   -76.35070926     0.00019813    -0.00487565  0.13D-04  0.11D-03  2  2   302.78    54.46
   3      1.06825477    -0.28685913   -76.35080558    -0.00009632    -0.00081819  0.97D-05  0.75D-05  3  3   347.61    54.24
   4      1.06880618    -0.28687402   -76.35082047    -0.00001489    -0.00033874  0.53D-06  0.73D-06  4  4   391.72    54.57
   5      1.06891100    -0.28687240   -76.35081885     0.00000162    -0.00002931  0.17D-06  0.56D-07  5  5   436.07    54.73
   6      1.06894380    -0.28687027   -76.35081672     0.00000212    -0.00000405  0.20D-07  0.48D-08  6  6   480.84    54.65
   7      1.06895308    -0.28686968   -76.35081612     0.00000060    -0.00000188  0.15D-08  0.76D-09  6  1   525.42    54.52
   8      1.06895448    -0.28686965   -76.35081610     0.00000002     0.00000020  0.32D-09  0.99D-10  6  3   570.40    54.42
   9      1.06895551    -0.28686960   -76.35081605     0.00000005    -0.00000026  0.23D-10  0.11D-10  6  2   615.05    54.52
  10      1.06895570    -0.28686959   -76.35081604     0.00000001     0.00000000  0.21D-11  0.12D-11  6  4   659.65    54.56
  11      1.06895569    -0.28686959   -76.35081604    -0.00000000     0.00000003  0.50D-12  0.18D-12  6  5   703.39    54.58
  12      1.06895569    -0.28686959   -76.35081604    -0.00000000     0.00000001  0.87D-13  0.26D-13  6  6   748.34    54.34
  13      1.06895568    -0.28686959   -76.35081604    -0.00000000     0.00000000  0.15D-13  0.46D-14  6  1   793.32    54.15
  14      1.06895568    -0.28686959   -76.35081604    -0.00000000     0.00000000  0.21D-14  0.84D-15  6  3   838.42    54.02
  15      1.06895568    -0.28686959   -76.35081604    -0.00000000    -0.00000000  0.19D-15  0.12D-15  6  2   884.25    53.89
  16      1.06895568    -0.28686959   -76.35081604     0.00000000    -0.00000000  0.40D-16  0.18D-16  6  4   929.81    53.79

 Norm of t1 vector:      0.03675272      S-energy:    -0.00000000      T1 diagnostic:  0.00918818
                                                                       D1 diagnostic:  0.01864845

 Adding energy correction from Wij-K(Fij), methodcc=6  factor= 1.0

  CCSD correlation energy              -0.286869590632
  MP2-F12 correction (uncoupled)       -0.012755953066
  C*T doubles correction               -0.000419750886
  f12b correction                       0.002712972246


 Total CPU time for triples:    420.29 sec

  Ecorr(MP2)                           -0.287530303111
  Ecorr(MP2-F12)                       -0.300726323341
  Scale factor for triples energy       1.045894363438


 RESULTS
 =======

  Reference energy                    -76.063653136324
  F12 singles correction               -0.000293313291

 F12 singles corrections added to reference energy

  New reference energy                -76.063946449615

  F12a singlet correction              -0.012053100164
  F12a triplet correction              -0.001122603788
  F12a total correction                -0.013175703952

 F12a corrections for ansatz F12/3C(FIX) added to CCSD energy

  CCSD-F12a singlet pair energy        -0.209303565486
  CCSD-F12a triplet pair energy        -0.090741729045
  CCSD-F12a correlation energy         -0.300045294583

  Triples (T) contribution (scaled)    -0.009927525502
  Total correlation energy             -0.309972820086

  CCSD-F12a total energy              -76.363991744198
  CCSD[T]-F12a energy                 -76.374245647743
  CCSD-T-F12a energy                  -76.373777627337
 !CCSD(T)-F12a total energy           -76.373919269701

 F12b corrections for ansatz F12/3C(FIX) added to CCSD(T)-F12a energy

  CCSD-F12b singlet pair energy        -0.206737335208
  CCSD-F12b triplet pair energy        -0.090594987077
  CCSD-F12b correlation energy         -0.297332322337

  Triples (T) contribution (scaled)    -0.009927525502
  Total correlation energy             -0.307259847839

  CCSD-F12b total energy              -76.361278771952
  CCSD[T]-F12b energy                 -76.371532675497
  CCSD-T-F12b energy                  -76.371064655090
 !CCSD(T)-F12b total energy           -76.371206297454

 Timing summary (sec):

 STEP                 CPU(USER)    SYS     CPU(TOT)    WALL
 Transformation        155.62      4.67    160.29    169.77
 CCSD iterations       714.91     31.43    746.34    861.01
 Triples               420.29      2.50    422.79    434.47
 MP2-F12                59.38      1.06     60.44     60.83
 F12b energy            42.35      1.28     43.63     45.14

 Program statistics:

 Available memory in ccsd:              1999999871
 Min. memory needed in ccsd:               6763924
 Max. memory used in ccsd:                 7862874
 Max. memory used in cckext:               5171974 (17 integral passes)



 **********************************************************************************************************************************
 DATASETS  * FILE   NREC   LENGTH (MB)   RECORD NAMES
              1      19     1346.98       500      610      700      900      950      970     1000      129      960     1100   
                                          VAR    BASINP    GEOM    SYMINP    ZMAT    AOBASIS   BASIS     P2S    ABASIS      S 
                                         1400     1410     1200     1210     1080     1600     1650     1700     1380   
                                           T        V       H0       H01     AOSYM     SMH    MOLCAS    OPER     JKOP   

              2       8       17.39       700     1000      520     2100     7360     7350      200     2101   
                                         GEOM     BASIS   MCVARS     RHF    F12ABS    EF12    OPTIONS    RHF  

 PROGRAMS   *        TOTAL   CCSD(T)    HF-SCF       INT   CCSD(T)    HF-SCF       INT
 CPU TIMES  *      8117.64   1392.78    190.69      0.44   6064.21    165.27    303.94
 REAL TIME  *      8895.87 SEC
 DISK USED  *         3.24 GB (local),       81.02 GB (total)
 SF USED    *         5.12 GB
 GA USED    *         4.87 MB       (max)       0.00 MB       (current)
 **********************************************************************************************************************************

 Running procedure: SET_MONOMER2

 Dummy atoms: O11  H21  H22


 Recomputing one-electron integrals since nuclear charges changed


 PROGRAM * SEWARD (Integral evaluation for generally contracted gaussian basis sets)     Author: Roland Lindh, 1990

 Geometry written to block  1 of record 700


 Point group  C1  



 ATOMIC COORDINATES

 NR  ATOM    CHARGE       X              Y              Z

   1  O11     0.00   -5.521590763    4.689166405    9.271374312
   2  H21     0.00   -3.831230745    4.709197502    8.531168589
   3  H22     0.00   -6.460595675    6.029171200    8.401722350
   4  C1      6.00   -6.193010455    2.801518980    2.403542658
   5  H41     1.00   -4.656285171    1.699997622    3.119937832
   6  H42     1.00   -5.973046335    4.726205038    2.982932688
   7  H43     1.00   -7.940251230    2.077186956    3.118237078
   8  H44     1.00   -6.176569838    2.685300823    0.384937212

 Bond lengths in Bohr (Angstrom)

 1-2  1.845432944  1-3  1.853007720  4-5  2.021904040  4-6  2.022002335  4-7  2.021953343
     ( 0.976561058)     ( 0.980569457)     ( 1.069945541)     ( 1.069997556)     ( 1.069971630)

 4-8  2.022015060
     ( 1.070004290)

 Bond angles

  2-1-3  105.54946434   5-4-6  109.53398059   5-4-7  109.65604535   5-4-8  108.43490854

  6-4-7  109.49436728   6-4-8  109.86987750   7-4-8  109.83468330

 NUCLEAR CHARGE:                   10
 NUMBER OF PRIMITIVE AOS:         578
 NUMBER OF SYMMETRY AOS:          474
 NUMBER OF CONTRACTIONS:          436   (  436A   )
 NUMBER OF CORE ORBITALS:           1   (    1A   )
 NUMBER OF VALENCE ORBITALS:        8   (    8A   )

 MOLECULE CHANGED: INITIALIZING OCCUPATION AND DUMP RECORDS


 NUCLEAR REPULSION ENERGY   13.68681606

 Basis set:  JKFIT                   
 Basis size:  1104
 Attributes:
 Sphericals:   T
 Basis set:  MP2FIT                  
 Basis size:  1246
 Attributes:
 Sphericals:   T
 Basis set:  RI                      
 Basis size:   730
 Attributes:
 Sphericals:   T
 Basis set:  TDDFT                   
 Basis size:  1246
 Attributes:
 Sphericals:   T

 Eigenvalues of metric

         1 0.147E-04 0.223E-04 0.343E-04 0.368E-04 0.637E-04 0.837E-04 0.932E-04 0.104E-03


 Contracted 2-electron integrals neglected if value below      1.0D-14

 OPERATOR DM      FOR CENTER  0  COORDINATES:    0.000000    0.000000    0.000000


 **********************************************************************************************************************************
 DATASETS  * FILE   NREC   LENGTH (MB)   RECORD NAMES
              1      18       37.12       500      610      700      900      950      970     1000      129      960     1100   
                                          VAR    BASINP    GEOM    SYMINP    ZMAT    AOBASIS   BASIS     P2S    ABASIS      S 
                                         1400     1410     1200     1210     1080     1600     1650     1700   
                                           T        V       H0       H01     AOSYM     SMH    MOLCAS    OPER   

              2       8       17.39       700     1000      520     2100     7360     7350      200     2101   
                                         GEOM     BASIS   MCVARS     RHF    F12ABS    EF12    OPTIONS    RHF  

 PROGRAMS   *        TOTAL       INT   CCSD(T)    HF-SCF       INT   CCSD(T)    HF-SCF       INT
 CPU TIMES  *      8118.08      0.43   1392.78    190.69      0.44   6064.21    165.27    303.94
 REAL TIME  *      8897.08 SEC
 DISK USED  *         3.24 GB (local),       81.02 GB (total)
 SF USED    *         5.12 GB
 GA USED    *         4.87 MB       (max)       0.00 MB       (current)
 **********************************************************************************************************************************


 PROGRAM * RHF-SCF (CLOSED SHELL)       Authors: W. Meyer, H.-J. Werner


 NUMBER OF ELECTRONS:       5+    5-    SPACE SYMMETRY=1    SPIN SYMMETRY: Singlet 
 CONVERGENCE THRESHOLDS:    1.00E-08 (Density)    1.00E-11 (Energy)
 MAX. NUMBER OF ITERATIONS:       60
 INTERPOLATION TYPE:            DIIS
 INTERPOLATION STEPS:              2 (START)      1 (STEP)
 LEVEL SHIFTS:                  0.00 (CLOSED)  0.00 (OPEN) 



 Orbital guess generated from atomic densities. Full valence occupancy:    9

 Molecular orbital dump at record        2102.2

 Initial occupancy:   5

 ITERATION    DDIFF          GRAD             ENERGY        2-EL.EN.            DIPOLE MOMENTS         DIIS   ORB.
    1      0.000D+00      0.000D+00       -40.19609607     53.506292    0.00411   -0.00276   -0.00131    0    start
    2      0.000D+00      0.257D-02       -40.21335024     52.217621    0.00128   -0.00088   -0.00039    1    diag
    3      0.159D-02      0.998D-03       -40.21562619     52.672081    0.00182   -0.00124   -0.00056    2    diag
    4      0.445D-03      0.249D-03       -40.21594565     52.617268    0.00162   -0.00111   -0.00049    3    diag
    5      0.165D-03      0.322D-04       -40.21595114     52.619416    0.00159   -0.00109   -0.00048    4    diag
    6      0.412D-04      0.264D-05       -40.21595118     52.619552    0.00159   -0.00109   -0.00048    5    diag
    7      0.559D-05      0.212D-06       -40.21595118     52.619513    0.00159   -0.00109   -0.00048    6    diag
    8      0.212D-06      0.170D-07       -40.21595118     52.619514    0.00159   -0.00109   -0.00048    7    diag
    9      0.826D-07      0.217D-08       -40.21595118     52.619514    0.00159   -0.00109   -0.00048    8    diag
   10      0.846D-08      0.595D-09       -40.21595118     52.619514    0.00159   -0.00109   -0.00048    0    orth

 Final occupancy:   5

 !RHF STATE  1.1 Energy               -40.215951178458
 Nuclear energy                        13.68681606
 One-electron energy                  -80.21252441
 Two-electron energy                   26.30975718
 Virial quotient                       -0.99838111
 !RHF STATE  1.1 Dipole moment          0.00158523    -0.00108692    -0.00047752
 Dipole moment /Debye                   0.00402899    -0.00276250    -0.00121366

 Orbital energies:

         1.1          2.1          3.1          4.1          5.1          6.1          7.1
    -11.196224    -0.950661    -0.551889    -0.549954    -0.547776     0.024979     0.037195


 HOMO      5.1    -0.547776 =     -14.9058eV
 LUMO      6.1     0.024979 =       0.6797eV
 LUMO-HOMO         0.572755 =      15.5855eV


 **********************************************************************************************************************************
 DATASETS  * FILE   NREC   LENGTH (MB)   RECORD NAMES
              1      18       37.12       500      610      700      900      950      970     1000      129      960     1100   
                                          VAR    BASINP    GEOM    SYMINP    ZMAT    AOBASIS   BASIS     P2S    ABASIS      S 
                                         1400     1410     1200     1210     1080     1600     1650     1700   
                                           T        V       H0       H01     AOSYM     SMH    MOLCAS    OPER   

              2       9       27.51       700     1000      520     2100     7360     7350      200     2101     2102   
                                         GEOM     BASIS   MCVARS     RHF    F12ABS    EF12    OPTIONS    RHF      RHF  

 PROGRAMS   *        TOTAL    HF-SCF       INT   CCSD(T)    HF-SCF       INT   CCSD(T)    HF-SCF       INT
 CPU TIMES  *      8280.99    162.90      0.43   1392.78    190.69      0.44   6064.21    165.27    303.94
 REAL TIME  *      9112.58 SEC
 DISK USED  *         3.24 GB (local),       81.02 GB (total)
 SF USED    *         5.12 GB
 GA USED    *         4.87 MB       (max)       0.00 MB       (current)
 **********************************************************************************************************************************

 Basis set:  JKFIT                   
 Basis size:  1104
 Attributes:
 Sphericals:   T
 Basis set:  MP2FIT                  
 Basis size:  1246
 Attributes:
 Sphericals:   T
 Basis set:  RI                      
 Basis size:   730
 Attributes:
 Sphericals:   T
 Basis set:  TDDFT                   
 Basis size:  1246
 Attributes:
 Sphericals:   T

 PROGRAM * CCSD (Closed-shell coupled cluster)     Authors: C. Hampel, H.-J. Werner, 1991, M. Deegan, P.J. Knowles, 1992

                                  CCSD-F12 implementation by  H.-J. Werner, 2007

                   Density fitting integral evaluation by F.R. Manby, 2003,2007, G. Knizia, 2010



 Convergence thresholds:  THRVAR = 1.00D-08  THRDEN = 1.00D-10

 CCSD(T)     terms to be evaluated (factor= 1.000)


 Number of core orbitals:           1 (   1 )
 Number of closed-shell orbitals:   4 (   4 )
 Number of external orbitals:     431 ( 431 )

 Molecular orbitals read from record     2102.2  Type=RHF/CANONICAL (state 1.1)

 MP2-F12 correlation treatment (H.-J. Werner, 2006)
 ==================================================

 Using MP2-F12 with ansatz 3C(FIX)

 Using projected zeroth-order Hamiltonian (+Z)

 FOCKRIB=T FOCKRIC=T FOCKRIP=T CABSP=T CABSA=T CABSK=T CABSF=T GBC=F EBC=F DMAT=T NOFIK=T NOPAO=1 SOLVE=-1  USEPAO=0
 EXCH_A= T EXCH_B= F EXCH_C= F EXCH_P= F

 Geminal basis:    OPTFULL  GEM_TYPE=SLATER  BETA=1.0  NGEM=6

 Optimizing Gaussian exponents for each gem_beta

 Geminal optimization for beta= 1.0000
 Weight function:   m=0, omega= 1.4646

 Augmented Hessian optimization of geminal fit. Trust ratio= 0.40000
 Convergence reached after   2 iterations. Final gradient= 7.85D-16, Step= 4.26D-06, Delta= 1.28D-09

 Alpha:                 0.19532     0.81920     2.85917     9.50073    35.69989   197.79328
 Coeff:                 0.27070     0.30552     0.18297     0.10986     0.06810     0.04224


 All pairs explicitly correlated. Number of r12-pairs:           10

 Excluding core orbitals from MO domains

 AO(A)-basis ORBITAL           loaded. Number of functions:     436
 RI(R)-basis RI                loaded. Number of functions:     730
 DF-basis JKFIT                loaded. Number of functions:    1104

 Screening thresholds:   THRAO=  1.00D-10  THRMO=  1.00D-09  THRPROD=  1.00D-09
                         THRSW=  1.00D-05  THROV=  1.00D-12  THRAOF12= 1.00D-10

 CPU time for Fock operators                      9.60 sec

 Construction of ABS:
 Smallest eigenvalue of S          2.27E-04  (threshold= 1.00E-08)
 Ratio eigmin/eigmax               3.94E-05  (threshold= 1.00E-09)
 Smallest eigenvalue of S kept     2.27E-04  (threshold= 2.27E-04, 0 functions deleted, 730 kept)

 Construction of CABS:
 Smallest eigenvalue of S          1.52E-08  (threshold= 1.00E-08)
 Ratio eigmin/eigmax               1.52E-08  (threshold= 1.00E-09)
 Smallest eigenvalue of S kept     1.52E-08  (threshold= 1.52E-08, 0 functions deleted, 730 kept)

 CPU time for CABS singles                        2.18 sec

 CABS-singles contribution of  -0.00024465 patched into reference energy.
 New reference energy         -40.21619582

 AO(A)-basis ORBITAL           loaded. Number of functions:     436
 RI(R)-basis RI                loaded. Number of functions:     730
 DF-basis MP2FIT               loaded. Number of functions:    1246

 Screening thresholds:   THRAO=  1.00D-10  THRMO=  1.00D-09  THRPROD=  1.00D-09
                         THRSW=  1.00D-05  THROV=  1.00D-12  THRAOF12= 1.00D-10

 CPU time for 3-index integral evaluation        18.88 sec
 CPU time for first  half transformation          2.87 sec ( 2279.9 MFLOP/sec)
 CPU time for second half transformation          0.02 sec ( 1914.0 MFLOP/sec)
 CPU time for sorting                             0.10 sec
 CPU time for fitting                             1.35 sec ( 1048.8 MFLOP/sec)
 CPU time for tilde quantities                    1.40 sec ( 1956.2 MFLOP/sec)
 CPU time for assembly                            4.50 sec ( 3862.2 MFLOP/sec)
 CPU time for tranop_f12                          4.34 sec ( 4326.1 MFLOP/sec)
 CPU time for f12 integrals (total)              40.38 sec, Elapsed time:     41.36 sec
 F12-matrices built in  4 passes.
 F12-matrices built in  4 passes.
 F12-matrices built in  4 passes.
 F12-matrices built in  4 passes.
 FC-matrix built in  4 passes.
 CPU time for f12 matrices (total)                1.68 sec, Elapsed time:      1.72 sec

 Diagonal F12 approximation with fixed coefficients:  TSING= 0.500,  TTRIP= 0.250 (scaled by -1/beta)

 DF-MP2-F12 energy corrections:
 ==============================
 Approx.                                    Singlet             Triplet             Total
 DF-MP2-F12/3*C(DX,FIX)                -0.007494642861     -0.000574884229     -0.008069527090
 DF-MP2-F12/3*C(FIX)                   -0.007047630414     -0.000473541948     -0.007521172362
 DF-MP2-F12/3C(FIX)                    -0.007076399120     -0.000487053118     -0.007563452238

 DF-MP2-F12 correlation energies:
 ================================
 Approx.                                    Singlet             Triplet             Ecorr            Total Energy
 DF-MP2                                -0.154421581818     -0.056463744424     -0.210885326242    -40.427081149830
 DF-MP2-F12/3*C(DX,FIX)                -0.161916224679     -0.057038628653     -0.218954853333    -40.435150676920
 DF-MP2-F12/3*C(FIX)                   -0.161469212232     -0.056937286372     -0.218406498604    -40.434602322192
 DF-MP2-F12/3C(FIX)                    -0.161497980938     -0.056950797542     -0.218448778480    -40.434644602068

 SCS-DF-MP2 energies (F_SING= 1.20000  F_TRIP= 0.62222  F_PARALLEL= 0.33333):
 ============================================================================
 SCS-DF-MP2                            -0.220438894712    -40.436634718300
 SCS-DF-MP2-F12/3*C(DX,FIX)            -0.229790171889    -40.445985995476
 SCS-DF-MP2-F12/3*C(FIX)               -0.229190699532    -40.445386523120
 SCS-DF-MP2-F12/3C(FIX)                -0.229233628930    -40.445429452517
 Symmetry transformation completed.

 Number of N-1 electron functions:               4
 Number of N-2 electron functions:              10
 Number of singly external CSFs:              1724
 Number of doubly external CSFs:           1486950
 Total number of CSFs:                     1488675

 Pair and operator lists are different

 Length of J-op  integral file:             203.65 MB
 Length of K-op  integral file:             338.08 MB
 Length of 3-ext integral record:             0.00 MB

 Memory could be reduced to 526.20 Mwords without degradation in triples

 Integral transformation finished. Total CPU: 156.77 sec, npass=  1  Memory used: 214.75 MW

 Reference energy:                    -40.21619582

 Adding F12 terms to K(Cij), methodcc=6,  factor= 1.0

 ITER.      SQ.NORM     CORR.ENERGY   TOTAL ENERGY   ENERGY CHANGE        DEN1      VAR(S)    VAR(P)  DIIS     TIME  TIME/IT
   1      1.07024020    -0.22511941   -40.44131523    -0.01422872    -0.00847429  0.63D-03  0.94D-03  1  1   260.52    50.49
   2      1.07517083    -0.22596938   -40.44216520    -0.00084997    -0.00530352  0.15D-04  0.10D-03  2  2   307.56    49.67
   3      1.07679365    -0.22605717   -40.44225299    -0.00008779    -0.00117754  0.22D-05  0.59D-05  3  3   353.94    49.22
   4      1.07717666    -0.22606448   -40.44226030    -0.00000731    -0.00020556  0.14D-06  0.33D-06  4  4   400.85    48.99
   5      1.07722872    -0.22606610   -40.44226193    -0.00000163    -0.00000894  0.11D-07  0.21D-07  5  5   447.79    48.92
   6      1.07723731    -0.22606481   -40.44226063     0.00000129    -0.00000327  0.77D-09  0.16D-08  6  6   494.53    48.86
   7      1.07723866    -0.22606448   -40.44226031     0.00000033    -0.00000085  0.51D-10  0.12D-09  6  1   541.63    48.87
   8      1.07723863    -0.22606455   -40.44226038    -0.00000007     0.00000020  0.53D-11  0.73D-11  6  3   588.75    48.88
   9      1.07723877    -0.22606454   -40.44226036     0.00000002    -0.00000009  0.40D-12  0.59D-12  6  2   635.29    48.80
  10      1.07723877    -0.22606453   -40.44226036     0.00000000     0.00000001  0.51D-13  0.59D-13  6  4   682.36    48.80
  11      1.07723878    -0.22606453   -40.44226036     0.00000000     0.00000000  0.48D-14  0.59D-14  6  5   728.83    48.73
  12      1.07723877    -0.22606453   -40.44226036     0.00000000     0.00000000  0.11D-15  0.64D-15  6  6   775.33    48.67
  13      1.07723877    -0.22606453   -40.44226036    -0.00000000     0.00000000  0.77D-17  0.67D-16  6  1   822.53    48.66
  14      1.07723877    -0.22606453   -40.44226036    -0.00000000     0.00000000  0.11D-17  0.83D-17  6  3   868.91    48.62

 Norm of t1 vector:      0.03291674      S-energy:    -0.00000000      T1 diagnostic:  0.00822919
                                                                       D1 diagnostic:  0.01319209

 Adding energy correction from Wij-K(Fij), methodcc=6  factor= 1.0

  CCSD correlation energy              -0.226064531731
  MP2-F12 correction (uncoupled)       -0.007439439713
  C*T doubles correction               -0.000126874918
  f12b correction                       0.001937088860

 Total CPU time for triples:    427.25 sec

  Ecorr(MP2)                           -0.210890683362
  Ecorr(MP2-F12)                       -0.218454135600
  Scale factor for triples energy       1.035864326093


 RESULTS
 =======

  Reference energy                    -40.215951178458
  F12 singles correction               -0.000244645129

 F12 singles corrections added to reference energy

  New reference energy                -40.216195823588

  F12a singlet correction              -0.007076851587
  F12a triplet correction              -0.000489463044
  F12a total correction                -0.007566314631

 F12a corrections for ansatz F12/3C(FIX) added to CCSD energy

  CCSD-F12a singlet pair energy        -0.178450011806
  CCSD-F12a triplet pair energy        -0.055180834552
  CCSD-F12a correlation energy         -0.233630846362

  Triples (T) contribution (scaled)    -0.007052967615
  Total correlation energy             -0.240683813978

  CCSD-F12a total energy              -40.449826669950
  CCSD[T]-F12a energy                 -40.457116171648
  CCSD-T-F12a energy                  -40.456809780482
 !CCSD(T)-F12a total energy           -40.456879637565

 F12b corrections for ansatz F12/3C(FIX) added to CCSD(T)-F12a energy

  CCSD-F12b singlet pair energy        -0.176580517097
  CCSD-F12b triplet pair energy        -0.055113240401
  CCSD-F12b correlation energy         -0.231693757502

  Triples (T) contribution (scaled)    -0.007052967615
  Total correlation energy             -0.238746725118

  CCSD-F12b total energy              -40.447889581090
  CCSD[T]-F12b energy                 -40.455179082788
  CCSD-T-F12b energy                  -40.454872691622
 !CCSD(T)-F12b total energy           -40.454942548705

 Timing summary (sec):

 STEP                 CPU(USER)    SYS     CPU(TOT)    WALL
 Transformation        157.13      4.49    161.62    165.43
 CCSD iterations       653.08     21.57    674.65    680.88
 Triples               427.25      1.50    428.75    429.27
 MP2-F12                58.78      1.19     59.97     60.20
 F12b energy            42.91      1.24     44.15     44.22

 Program statistics:

 Available memory in ccsd:              1999999866
 Min. memory needed in ccsd:               6763924
 Max. memory used in ccsd:                 7862874
 Max. memory used in cckext:               5171974 (15 integral passes)



 **********************************************************************************************************************************
 DATASETS  * FILE   NREC   LENGTH (MB)   RECORD NAMES
              1      19     1346.98       500      610      700      900      950      970     1000      129      960     1100   
                                          VAR    BASINP    GEOM    SYMINP    ZMAT    AOBASIS   BASIS     P2S    ABASIS      S 
                                         1400     1410     1200     1210     1080     1600     1650     1700     1380   
                                           T        V       H0       H01     AOSYM     SMH    MOLCAS    OPER     JKOP   

              2       9       27.51       700     1000      520     2100     7360     7350      200     2101     2102   
                                         GEOM     BASIS   MCVARS     RHF    F12ABS    EF12    OPTIONS    RHF      RHF  

 PROGRAMS   *        TOTAL   CCSD(T)    HF-SCF       INT   CCSD(T)    HF-SCF       INT   CCSD(T)    HF-SCF       INT
 CPU TIMES  *      9620.38   1339.39    162.90      0.43   1392.78    190.69      0.44   6064.21    165.27    303.94
 REAL TIME  *     10493.44 SEC
 DISK USED  *         3.24 GB (local),       81.02 GB (total)
 SF USED    *         5.12 GB
 GA USED    *         4.87 MB       (max)       0.00 MB       (current)
 **********************************************************************************************************************************
 Molecular orbitals read from record     2102.2  Type=RHF/CANONICAL (state 1.1)
 Occupation numbers read from record     2102.2  Type=RHF/RHF (state 1.1)
 Orbital energies read from record       2102.2  Type=RHF/CANONICAL (state 1.1)
 Redundancy group numbers read from rec  2102.2  Type=RHF/RHF (state 1.1)

 CCSD(T)-F12/aug-cc-pVQZ energy=    -40.454942548705

     CCSD(T)-F12          HF-SCF     CCSD(T)-F12          HF-SCF     CCSD(T)-F12          HF-SCF
    -40.45494255    -40.21595118    -76.37120630    -76.06365314   -116.82657630   -116.27919355
 **********************************************************************************************************************************
 Molpro calculation terminated
