
 Primary working directories    : /scratch/klimes/383244/molpro.kJOX6Q3TUc
 Secondary working directories  : /scratch/klimes/383244/molpro.kJOX6Q3TUc
 Wavefunction directory         : /scratch/klimes/383244/
 Main file repository           : /scratch/klimes/383244/molpro.kJOX6Q3TUc/

 id        : karlovklimes

 Nodes                      nprocs
 nc-01.cc.karlov.mff.cuni.cz    4

 Using customized tuning parameters: mindgm=1; mindgv=20; mindgc=4; mindgr=1; noblas=0; minvec=7
 default implementation of scratch files=sf  


 Variables initialized (930), CPU time= 0.01 sec
                                                                                 !gdirect
 memory,2000,m
 gthresh,orbital=1d-10,energy=1d-10,grid=1d-8
 
 symmetry,nosym
 angstrom
 geometry={
 O12        -3.033300000000      5.280000000000      1.506600000000
 H23        -3.438200000000      5.030900000000      0.655500000000
 H24        -2.124100000000      4.895600000000      1.489400000000
 C1        -3.277200000000      1.482500000000      1.271900000000
 H41        -2.464000000000      0.899600000000      1.651000000000
 H42        -3.160800000000      2.501000000000      1.578500000000
 H43        -4.201800000000      1.099200000000      1.650100000000
 H44        -3.268500000000      1.421000000000      0.203700000000
 }
 
 nkerna=1
 nkernb=1
 
 gf=0
 sing=1
 thrdum=1d-4
 gridthr=1d-8
 
 basis={
 set,orbital
 default,avqz
 set,jkfit
 default,av5z/jkfit
 set,mp2fit
 default,av5z/mp2fit
 set,ri
 default,av5z/optri
 set,tddft
 default,av5z/mp2fit
 }
 
 proc set_monomer1
 dummy,4,5,6,7,8
 endproc
 
 proc set_monomer2
 dummy,1,2,3
 endproc
 
                                                                                 !12 energy
 {hf,accu=1.d-16}
 {ccsd(t)-f12,df_basis=mp2fit,df_basis_exch=jkfit,ri_basis=ri,scale_trip=1,THRAOF12=1d-10}
 
 set_monomer1
 {hf,accu=1.d-16}
 {ccsd(t)-f12,df_basis=mp2fit,df_basis_exch=jkfit,ri_basis=ri,scale_trip=1,THRAOF12=1d-10}
 
 set_monomer2
 {hf,accu=1.d-16}
 {ccsd(t)-f12,df_basis=mp2fit,df_basis_exch=jkfit,ri_basis=ri,scale_trip=1,THRAOF12=1d-10}
 
 Commands  initialized (760), CPU time= 0.02 sec, 617 directives.
 Default parameters read. Elapsed time= 0.20 sec

 Checking input...
 Passed
1


                                         ***  PROGRAM SYSTEM MOLPRO  ***
                                       Copyright, TTI GmbH Stuttgart, 2015
                                    Version 2019.1 linked Jan 14 2019 13:09:19


 **********************************************************************************************************************************
 LABEL *                                                                                 
  64 bit mpp version                                                                     DATE: 11-Mar-20          TIME: 16:45:52  
 **********************************************************************************************************************************

 SHA1:             d688ac825633d238f2093ded1675ba87ccd55965
 **********************************************************************************************************************************

 THRESHOLDS:

 ZERO    =  1.00D-12  ONEINT  =  1.00D-12  TWOINT  =  1.00D-11  PREFAC  =  1.00D-14  XXXXXX  =  1.00D-09  EORDER  =  1.00D-04
 ENERGY  =  1.00D-10  ETEST   =  0.00D+00  EDENS   =  0.00D+00  THRDEDEF=  1.00D-06  GRADIENT=  1.00D-02  STEP    =  1.00D-03
 ORBITAL =  1.00D-10  CIVEC   =  1.00D-05  COEFF   =  1.00D-04  PRINTCI =  5.00D-02  PUNCHCI =  9.90D+01  OPTGRAD =  3.00D-04
 OPTENERG=  1.00D-06  OPTSTEP =  3.00D-04  THRGRAD =  1.00D-10  COMPRESS=  1.00D-11  VARMIN  =  1.00D-07  VARMAX  =  1.00D-03
 THRDOUB =  0.00D+00  THRDIV  =  1.00D-05  THRRED  =  1.00D-07  THRPSP  =  1.00D+00  THRDC   =  1.00D-10  THRCS   =  1.00D-10
 THRNRM  =  1.00D-08  THREQ   =  0.00D+00  THRDE   =  1.00D+00  THRREF  =  1.00D-05  SPARFAC =  1.00D+00  THRDLP  =  1.00D-07
 THRDIA  =  1.00D-10  THRDLS  =  1.00D-07  THRGPS  =  0.00D+00  THRKEX  =  0.00D+00  THRDIS  =  2.00D-01  THRVAR  =  1.00D-10
 THRLOC  =  1.00D-06  THRGAP  =  1.00D-06  THRLOCT = -1.00D+00  THRGAPT = -1.00D+00  THRORB  =  1.00D-06  THRMLTP =  0.00D+00
 THRCPQCI=  1.00D-10  KEXTA   =  0.00D+00  THRCOARS=  0.00D+00  SYMTOL  =  1.00D-06  GRADTOL =  1.00D-06  THROVL  =  1.00D-08
 THRORTH =  1.00D-08  GRID    =  1.00D-08  GRIDMAX =  1.00D-03  DTMAX   =  0.00D+00  THROCCDE=  1.00D-01  THROCCDE=  1.00D-01
 THRPRINT=  2.50D-01


 Variable memory set to 2000000000 words,  buffer space 

 ZSYMEL=NOSYM
 ZUNIT=ANG


Geometry recognized as XYZ

 SETTING NKERNA         =         1.00000000                                  
 SETTING NKERNB         =         1.00000000                                  
 SETTING GF             =     0.00000000D+00                                  
 SETTING SING           =         1.00000000                                  
 SETTING THRDUM         =     1.00000000D-04                                  
 SETTING GRIDTHR        =     1.00000000D-08                                  
 SETTING BASIS          =    AVQZ


 Recomputing integrals since basis changed


 Using spherical harmonics

 Library entry O      S aug-cc-pVQZ          selected for orbital group  1
 Library entry O      P aug-cc-pVQZ          selected for orbital group  1
 Library entry O      D aug-cc-pVQZ          selected for orbital group  1
 Library entry O      F aug-cc-pVQZ          selected for orbital group  1
 Library entry O      G aug-cc-pVQZ          selected for orbital group  1
 Library entry H      S aug-cc-pVQZ          selected for orbital group  2
 Library entry H      P aug-cc-pVQZ          selected for orbital group  2
 Library entry H      D aug-cc-pVQZ          selected for orbital group  2
 Library entry H      F aug-cc-pVQZ          selected for orbital group  2
 Library entry C      S aug-cc-pVQZ          selected for orbital group  3
 Library entry C      P aug-cc-pVQZ          selected for orbital group  3
 Library entry C      D aug-cc-pVQZ          selected for orbital group  3
 Library entry C      F aug-cc-pVQZ          selected for orbital group  3
 Library entry C      G aug-cc-pVQZ          selected for orbital group  3


 PROGRAM * SEWARD (Integral evaluation for generally contracted gaussian basis sets)     Author: Roland Lindh, 1990

 Geometry written to block  1 of record 700


 Point group  C1  



 ATOMIC COORDINATES

 NR  ATOM    CHARGE       X              Y              Z

   1  O12     8.00   -5.732106254    9.977753938    2.847061379
   2  H23     1.00   -6.497256361    9.507023160    1.238715475
   3  H24     1.00   -4.013967261    9.251343215    2.814558090
   4  C1      6.00   -6.193010455    2.801518980    2.403542658
   5  H41     1.00   -4.656285171    1.699997622    3.119937832
   6  H42     1.00   -5.973046335    4.726205038    2.982932688
   7  H43     1.00   -7.940251230    2.077186956    3.118237078
   8  H44     1.00   -6.176569838    2.685300823    0.384937212

 Bond lengths in Bohr (Angstrom)

 1-2  1.842231989  1-3  1.865671621  4-5  2.021904040  4-6  2.022002335  4-7  2.021953343
     ( 0.974867186)     ( 0.987270905)     ( 1.069945541)     ( 1.069997556)     ( 1.069971630)

 4-8  2.022015060
     ( 1.070004290)

 Bond angles

  2-1-3  105.53314040   5-4-6  109.53398059   5-4-7  109.65604535   5-4-8  108.43490854

  6-4-7  109.49436728   6-4-8  109.86987750   7-4-8  109.83468330

 NUCLEAR CHARGE:                   20
 NUMBER OF PRIMITIVE AOS:         578
 NUMBER OF SYMMETRY AOS:          474
 NUMBER OF CONTRACTIONS:          436   (  436A   )
 NUMBER OF CORE ORBITALS:           2   (    2A   )
 NUMBER OF VALENCE ORBITALS:       14   (   14A   )


 NUCLEAR REPULSION ENERGY   36.75387538


 Basis set:  JKFIT                   
 Basis size:  1104
 Attributes:
 Sphericals:   T
 Basis set:  MP2FIT                  
 Basis size:  1246
 Attributes:
 Sphericals:   T
 Basis set:  RI                      
 Basis size:   730
 Attributes:
 Sphericals:   T
 Basis set:  TDDFT                   
 Basis size:  1246
 Attributes:
 Sphericals:   T

 **********************************************************************************************************************************


 Eigenvalues of metric

         1 0.132E-04 0.184E-04 0.292E-04 0.343E-04 0.620E-04 0.664E-04 0.923E-04 0.104E-03


 Contracted 2-electron integrals neglected if value below      1.0D-14
 AO integral compression algorithm  1   Integral accuracy      1.0D-14

     23186.637 MB (compressed) written to integral file ( 57.8%)

     Node minimum: 5599.134 MB, node maximum: 6219.366 MB


 NUMBER OF SORTED TWO-ELECTRON INTEGRALS: 1134451344.     BUFFER LENGTH:  32768
 NUMBER OF SEGMENTS:  36  SEGMENT LENGTH:   31999984      RECORD LENGTH: 524288

 Memory used in sort:      32.56 MW

 SORT1 READ  5012305700. AND WROTE   975740148. INTEGRALS IN   2811 RECORDS. CPU TIME:    98.92 SEC, REAL TIME:   111.57 SEC
 SORT2 READ  3903783013. AND WROTE  4537853011. INTEGRALS IN  86944 RECORDS. CPU TIME:    22.39 SEC, REAL TIME:    34.40 SEC

 Node minimum:  1134427528.  Node maximum:  1134498978. integrals

 OPERATOR DM      FOR CENTER  0  COORDINATES:    0.000000    0.000000    0.000000


 **********************************************************************************************************************************
 DATASETS  * FILE   NREC   LENGTH (MB)   RECORD NAMES
              1      18       37.12       500      610      700      900      950      970     1000      129      960     1100   
                                          VAR    BASINP    GEOM    SYMINP    ZMAT    AOBASIS   BASIS     P2S    ABASIS      S 
                                         1400     1410     1200     1210     1080     1600     1650     1700   
                                           T        V       H0       H01     AOSYM     SMH    MOLCAS    OPER   

 PROGRAMS   *        TOTAL       INT
 CPU TIMES  *       189.33    189.07
 REAL TIME  *       225.68 SEC
 DISK USED  *        37.64 MB (local),       69.88 GB (total)
 GA USED    *         0.00 MB       (max)       0.00 MB       (current)
 **********************************************************************************************************************************


 PROGRAM * RHF-SCF (CLOSED SHELL)       Authors: W. Meyer, H.-J. Werner


 NUMBER OF ELECTRONS:      10+   10-    SPACE SYMMETRY=1    SPIN SYMMETRY: Singlet 
 CONVERGENCE THRESHOLDS:    1.00E-08 (Density)    1.00E-11 (Energy)
 MAX. NUMBER OF ITERATIONS:       60
 INTERPOLATION TYPE:            DIIS
 INTERPOLATION STEPS:              2 (START)      1 (STEP)
 LEVEL SHIFTS:                  0.00 (CLOSED)  0.00 (OPEN) 



 Orbital guess generated from atomic densities. Full valence occupancy:   16

 Molecular orbital dump at record        2100.2

 Initial occupancy:  10

 ITERATION    DDIFF          GRAD             ENERGY        2-EL.EN.            DIPOLE MOMENTS         DIIS   ORB.
    1      0.000D+00      0.000D+00      -116.22069089    158.878355    0.49585   -0.60696   -0.83967    0    start
    2      0.000D+00      0.378D-02      -116.26453129    154.104141    0.26031   -0.35533   -0.45875    1    diag
    3      0.271D-02      0.221D-02      -116.27790070    156.110810    0.32013   -0.41686   -0.55539    2    diag
    4      0.940D-03      0.332D-03      -116.27856155    155.996776    0.31527   -0.40932   -0.54744    3    diag
    5      0.205D-03      0.976D-04      -116.27863181    155.991830    0.31459   -0.40926   -0.54668    4    diag
    6      0.821D-04      0.240D-04      -116.27863591    155.997461    0.31415   -0.40898   -0.54596    5    diag
    7      0.222D-04      0.499D-05      -116.27863617    155.995775    0.31412   -0.40903   -0.54594    6    diag
    8      0.648D-05      0.130D-05      -116.27863619    155.995962    0.31406   -0.40904   -0.54588    7    diag
    9      0.147D-05      0.294D-06      -116.27863619    155.995931    0.31405   -0.40904   -0.54587    8    diag
   10      0.437D-06      0.369D-07      -116.27863619    155.995933    0.31405   -0.40904   -0.54586    9    orth
   11      0.450D-07      0.995D-08      -116.27863619    155.995934    0.31405   -0.40904   -0.54586    9    diag
   12      0.109D-07      0.281D-08      -116.27863619    155.995934    0.31405   -0.40904   -0.54586    9    diag
   13      0.318D-08      0.741D-09      -116.27863619    155.995934    0.31405   -0.40904   -0.54586    0    orth

 Final occupancy:  10

 !RHF STATE  1.1 Energy              -116.278636192337
 Nuclear energy                        36.75387538
 One-electron energy                 -231.03047863
 Two-electron energy                   77.99796706
 Virial quotient                       -1.00076047
 !RHF STATE  1.1 Dipole moment          0.31404829    -0.40903869    -0.54586441
 Dipole moment /Debye                   0.79817886    -1.03960456    -1.38735806

 Orbital energies:

         1.1          2.1          3.1          4.1          5.1          6.1          7.1          8.1          9.1         10.1
    -20.568733   -11.198626    -1.341124    -0.953799    -0.707556    -0.580187    -0.555337    -0.553522    -0.551216    -0.507173

        11.1         12.1
      0.022393     0.037538


 HOMO     10.1    -0.507173 =     -13.8009eV
 LUMO     11.1     0.022393 =       0.6093eV
 LUMO-HOMO         0.529566 =      14.4102eV


 **********************************************************************************************************************************
 DATASETS  * FILE   NREC   LENGTH (MB)   RECORD NAMES
              1      18       37.12       500      610      700      900      950      970     1000      129      960     1100   
                                          VAR    BASINP    GEOM    SYMINP    ZMAT    AOBASIS   BASIS     P2S    ABASIS      S 
                                         1400     1410     1200     1210     1080     1600     1650     1700   
                                           T        V       H0       H01     AOSYM     SMH    MOLCAS    OPER   

              2       4        6.75       700     1000      520     2100   
                                         GEOM     BASIS   MCVARS     RHF  

 PROGRAMS   *        TOTAL    HF-SCF       INT
 CPU TIMES  *       467.76    278.42    189.07
 REAL TIME  *       534.21 SEC
 DISK USED  *        57.70 MB (local),       69.96 GB (total)
 SF USED    *         0.76 MB
 GA USED    *         0.00 MB       (max)       0.00 MB       (current)
 **********************************************************************************************************************************

 Basis set:  JKFIT                   
 Basis size:  1104
 Attributes:
 Sphericals:   T
 Basis set:  MP2FIT                  
 Basis size:  1246
 Attributes:
 Sphericals:   T
 Basis set:  RI                      
 Basis size:   730
 Attributes:
 Sphericals:   T
 Basis set:  TDDFT                   
 Basis size:  1246
 Attributes:
 Sphericals:   T

 PROGRAM * CCSD (Closed-shell coupled cluster)     Authors: C. Hampel, H.-J. Werner, 1991, M. Deegan, P.J. Knowles, 1992

                                  CCSD-F12 implementation by  H.-J. Werner, 2007

                   Density fitting integral evaluation by F.R. Manby, 2003,2007, G. Knizia, 2010



 Convergence thresholds:  THRVAR = 1.00D-08  THRDEN = 1.00D-10

 CCSD(T)     terms to be evaluated (factor= 1.000)


 Number of core orbitals:           2 (   2 )
 Number of closed-shell orbitals:   8 (   8 )
 Number of external orbitals:     426 ( 426 )

 Molecular orbitals read from record     2100.2  Type=RHF/CANONICAL (state 1.1)

 MP2-F12 correlation treatment (H.-J. Werner, 2006)
 ==================================================

 Using MP2-F12 with ansatz 3C(FIX)

 Using projected zeroth-order Hamiltonian (+Z)

 FOCKRIB=T FOCKRIC=T FOCKRIP=T CABSP=T CABSA=T CABSK=T CABSF=T GBC=F EBC=F DMAT=T NOFIK=T NOPAO=1 SOLVE=-1  USEPAO=0
 EXCH_A= T EXCH_B= F EXCH_C= F EXCH_P= F

 Geminal basis:    OPTFULL  GEM_TYPE=SLATER  BETA=1.0  NGEM=6

 Optimizing Gaussian exponents for each gem_beta

 Geminal optimization for beta= 1.0000
 Weight function:   m=0, omega= 1.4646

 Augmented Hessian optimization of geminal fit. Trust ratio= 0.40000
 Convergence reached after   2 iterations. Final gradient= 7.85D-16, Step= 4.26D-06, Delta= 1.28D-09

 Alpha:                 0.19532     0.81920     2.85917     9.50073    35.69989   197.79328
 Coeff:                 0.27070     0.30552     0.18297     0.10986     0.06810     0.04224


 All pairs explicitly correlated. Number of r12-pairs:           36

 Excluding core orbitals from MO domains

 AO(A)-basis ORBITAL           loaded. Number of functions:     436
 RI(R)-basis RI                loaded. Number of functions:     730
 DF-basis JKFIT                loaded. Number of functions:    1104

 Screening thresholds:   THRAO=  1.00D-10  THRMO=  1.00D-09  THRPROD=  1.00D-09
                         THRSW=  1.00D-05  THROV=  1.00D-12  THRAOF12= 1.00D-10

 CPU time for Fock operators                     11.84 sec

 Construction of ABS:
 Smallest eigenvalue of S          2.24E-04  (threshold= 1.00E-08)
 Ratio eigmin/eigmax               3.89E-05  (threshold= 1.00E-09)
 Smallest eigenvalue of S kept     2.24E-04  (threshold= 2.24E-04, 0 functions deleted, 730 kept)

 Construction of CABS:
 Smallest eigenvalue of S          1.43E-08  (threshold= 1.00E-08)
 Ratio eigmin/eigmax               1.43E-08  (threshold= 1.00E-09)
 Smallest eigenvalue of S kept     1.43E-08  (threshold= 1.43E-08, 0 functions deleted, 730 kept)

 CPU time for CABS singles                        2.24 sec

 CABS-singles contribution of  -0.00053397 patched into reference energy.
 New reference energy        -116.27917016

 AO(A)-basis ORBITAL           loaded. Number of functions:     436
 RI(R)-basis RI                loaded. Number of functions:     730
 DF-basis MP2FIT               loaded. Number of functions:    1246

 Screening thresholds:   THRAO=  1.00D-10  THRMO=  1.00D-09  THRPROD=  1.00D-09
                         THRSW=  1.00D-05  THROV=  1.00D-12  THRAOF12= 1.00D-10

 CPU time for 3-index integral evaluation        19.49 sec
 CPU time for first  half transformation          4.87 sec ( 2641.3 MFLOP/sec)
 CPU time for second half transformation          0.08 sec ( 1919.3 MFLOP/sec)
 CPU time for sorting                             0.17 sec
 CPU time for fitting                             1.80 sec ( 4126.2 MFLOP/sec)
 CPU time for tilde quantities                    2.31 sec ( 4360.5 MFLOP/sec)
 CPU time for assembly                           16.19 sec ( 4380.4 MFLOP/sec)
 CPU time for tranop_f12                         15.84 sec ( 4351.3 MFLOP/sec)
 CPU time for f12 integrals (total)              82.90 sec, Elapsed time:     85.73 sec
 F12-matrices built in  4 passes.
 F12-matrices built in  4 passes.
 F12-matrices built in  4 passes.
 F12-matrices built in  4 passes.
 FC-matrix built in  4 passes.
 CPU time for f12 matrices (total)                6.11 sec, Elapsed time:      6.26 sec

 Diagonal F12 approximation with fixed coefficients:  TSING= 0.500,  TTRIP= 0.250 (scaled by -1/beta)

 DF-MP2-F12 energy corrections:
 ==============================
 Approx.                                    Singlet             Triplet             Total
 DF-MP2-F12/3*C(DX,FIX)                -0.021210652259     -0.002108534232     -0.023319186491
 DF-MP2-F12/3*C(FIX)                   -0.019140876099     -0.001553954799     -0.020694830898
 DF-MP2-F12/3C(FIX)                    -0.019156772962     -0.001605418987     -0.020762191949

 DF-MP2-F12 correlation energies:
 ================================
 Approx.                                    Singlet             Triplet             Ecorr            Total Energy
 DF-MP2                                -0.340957422477     -0.158673878767     -0.499631301244   -116.778801463172
 DF-MP2-F12/3*C(DX,FIX)                -0.362168074736     -0.160782412999     -0.522950487736   -116.802120649663
 DF-MP2-F12/3*C(FIX)                   -0.360098298576     -0.160227833566     -0.520326132142   -116.799496294070
 DF-MP2-F12/3C(FIX)                    -0.360114195439     -0.160279297754     -0.520393493193   -116.799563655120

 SCS-DF-MP2 energies (F_SING= 1.20000  F_TRIP= 0.62222  F_PARALLEL= 0.33333):
 ============================================================================
 SCS-DF-MP2                            -0.507879320428   -116.787049482355
 SCS-DF-MP2-F12/3*C(DX,FIX)            -0.534644079994   -116.813814241922
 SCS-DF-MP2-F12/3*C(FIX)               -0.531815276955   -116.810985438882
 SCS-DF-MP2-F12/3C(FIX)                -0.531866375351   -116.811036537279
 Symmetry transformation completed.

 Number of N-1 electron functions:               8
 Number of N-2 electron functions:              36
 Number of singly external CSFs:              3408
 Number of doubly external CSFs:           5808936
 Total number of CSFs:                     5812345

 Pair and operator lists are different

 Length of J-op  integral file:               0.75 GB
 Length of K-op  integral file:               0.98 GB
 Length of 3-ext integral record:             0.00 MB

 Memory could be reduced to 828.63 Mwords without degradation in triples

 Integral transformation finished. Total CPU: 325.40 sec, npass=  1  Memory used: 389.45 MW

 Reference energy:                   -116.27917016

 Adding F12 terms to K(Cij), methodcc=6,  factor= 1.0

 ITER.      SQ.NORM     CORR.ENERGY   TOTAL ENERGY   ENERGY CHANGE        DEN1      VAR(S)    VAR(P)  DIIS     TIME  TIME/IT
   1      1.13421846    -0.51323442  -116.79240458    -0.01359389    -0.00164089  0.15D-02  0.20D-02  1  1   605.55   170.67
   2      1.14251931    -0.51388226  -116.79305242    -0.00064784    -0.01003167  0.30D-04  0.24D-03  2  2   776.72   172.17
   3      1.14556851    -0.51407386  -116.79324402    -0.00019160    -0.00213622  0.14D-04  0.14D-04  3  3   948.02   172.70
   4      1.14655639    -0.51409256  -116.79326273    -0.00001871    -0.00058723  0.68D-06  0.13D-05  4  4  1119.27   173.00
   5      1.14672884    -0.51409230  -116.79326246     0.00000027    -0.00004140  0.22D-06  0.93D-07  5  5  1290.49   173.17
   6      1.14677436    -0.51408936  -116.79325952     0.00000294    -0.00000645  0.23D-07  0.83D-08  6  6  1461.94   173.29
   7      1.14678669    -0.51408806  -116.79325822     0.00000130    -0.00000367  0.21D-08  0.91D-09  6  1  1632.78   173.32
   8      1.14678844    -0.51408805  -116.79325822     0.00000001     0.00000028  0.41D-09  0.12D-09  6  3  1803.84   173.37
   9      1.14678940    -0.51408800  -116.79325816     0.00000006    -0.00000016  0.39D-10  0.23D-10  6  4  1974.84   173.41
  10      1.14678982    -0.51408799  -116.79325816     0.00000000    -0.00000006  0.28D-11  0.21D-11  6  2  2146.48   173.50
  11      1.14678985    -0.51408799  -116.79325815     0.00000000     0.00000000  0.63D-12  0.29D-12  6  5  2317.58   173.49
  12      1.14678988    -0.51408799  -116.79325815     0.00000000    -0.00000001  0.12D-12  0.45D-13  6  6  2488.48   173.49
  13      1.14678986    -0.51408799  -116.79325815    -0.00000000     0.00000001  0.21D-13  0.61D-14  6  1  2658.98   173.47
  14      1.14678986    -0.51408799  -116.79325815    -0.00000000     0.00000000  0.36D-14  0.14D-14  6  3  2829.72   173.46
  15      1.14678985    -0.51408799  -116.79325815    -0.00000000     0.00000000  0.38D-15  0.20D-15  6  4  3000.16   173.44
  16      1.14678985    -0.51408799  -116.79325815    -0.00000000     0.00000000  0.71D-16  0.29D-16  6  2  3170.79   173.42
  17      1.14678985    -0.51408799  -116.79325815     0.00000000    -0.00000000  0.17D-16  0.61D-17  6  5  3341.35   173.40

 Norm of t1 vector:      0.05022926      S-energy:     0.00000000      T1 diagnostic:  0.00887936
                                                                       D1 diagnostic:  0.01972484

 Adding energy correction from Wij-K(Fij), methodcc=6  factor= 1.0

  CCSD correlation energy              -0.514087991905
  MP2-F12 correction (uncoupled)       -0.020198280852
  C*T doubles correction               -0.000545975102
  f12b correction                       0.004653203941

   CPU time for triples:   2153.35 sec for i =  1 -  7 /  8 (~  68.8 % done)
   CPU time for triples:    866.55 sec for i =  8 -  8 /  8 (  100.0 % done)

 Total CPU time for triples:   3031.99 sec

  Ecorr(MP2)                           -0.499640524865
  Ecorr(MP2-F12)                       -0.520402716814
  Scale factor for triples energy       1.041554259344


 RESULTS
 =======

  Reference energy                   -116.278636192338
  F12 singles correction               -0.000533969589

 F12 singles corrections added to reference energy

  New reference energy               -116.279170161927

  F12a singlet correction              -0.019127798594
  F12a triplet correction              -0.001616457360
  F12a total correction                -0.020744255953

 F12a corrections for ansatz F12/3C(FIX) added to CCSD energy

  CCSD-F12a singlet pair energy        -0.388033997416
  CCSD-F12a triplet pair energy        -0.146798250520
  CCSD-F12a correlation energy         -0.534832247859

  Triples (T) contribution (scaled)    -0.017206703559
  Total correlation energy             -0.552038951418

  CCSD-F12a total energy             -116.814002409786
  CCSD[T]-F12a energy                -116.831779759488
  CCSD-T-F12a energy                 -116.830993347552
 !CCSD(T)-F12a total energy          -116.831209113345

 F12b corrections for ansatz F12/3C(FIX) added to CCSD(T)-F12a energy

  CCSD-F12b singlet pair energy        -0.383595989373
  CCSD-F12b triplet pair energy        -0.146583054622
  CCSD-F12b correlation energy         -0.530179043918

  Triples (T) contribution (scaled)    -0.017206703559
  Total correlation energy             -0.547385747476

  CCSD-F12b total energy             -116.809349205845
  CCSD[T]-F12b energy                -116.827126555547
  CCSD-T-F12b energy                 -116.826340143611
 !CCSD(T)-F12b total energy          -116.826555909404

 Timing summary (sec):

 STEP                 CPU(USER)    SYS     CPU(TOT)    WALL
 Transformation        326.58     11.27    337.85    339.05
 CCSD iterations      2904.41     39.42   2943.83   2948.06
 Triples              3031.99     31.10   3063.09   3066.98
 MP2-F12               110.45      3.27    113.72    114.16
 F12b energy           146.87      1.99    148.86    149.09

 Program statistics:

 Available memory in ccsd:              1999999554
 Min. memory needed in ccsd:              16971337
 Max. memory used in ccsd:                21987113
 Max. memory used in cckext:              15122080 (18 integral passes)



 **********************************************************************************************************************************
 DATASETS  * FILE   NREC   LENGTH (MB)   RECORD NAMES
              1      19     2602.04       500      610      700      900      950      970     1000      129      960     1100   
                                          VAR    BASINP    GEOM    SYMINP    ZMAT    AOBASIS   BASIS     P2S    ABASIS      S 
                                         1400     1410     1200     1210     1080     1600     1650     1700     1380   
                                           T        V       H0       H01     AOSYM     SMH    MOLCAS    OPER     JKOP   

              2       6       10.56       700     1000      520     2100     7360     7350   
                                         GEOM     BASIS   MCVARS     RHF    F12ABS    EF12   

 PROGRAMS   *        TOTAL   CCSD(T)    HF-SCF       INT
 CPU TIMES  *      6988.33   6520.56    278.42    189.07
 REAL TIME  *      7152.97 SEC
 DISK USED  *         3.24 GB (local),       80.81 GB (total)
 SF USED    *         5.13 GB
 GA USED    *         4.87 MB       (max)       0.00 MB       (current)
 **********************************************************************************************************************************

 Running procedure: SET_MONOMER1

 Dummy atoms: C1  H41  H42  H43  H44


 Recomputing one-electron integrals since nuclear charges changed


 PROGRAM * SEWARD (Integral evaluation for generally contracted gaussian basis sets)     Author: Roland Lindh, 1990

 Geometry written to block  1 of record 700


 Point group  C1  



 ATOMIC COORDINATES

 NR  ATOM    CHARGE       X              Y              Z

   1  O12     8.00   -5.732106254    9.977753938    2.847061379
   2  H23     1.00   -6.497256361    9.507023160    1.238715475
   3  H24     1.00   -4.013967261    9.251343215    2.814558090
   4  C1      0.00   -6.193010455    2.801518980    2.403542658
   5  H41     0.00   -4.656285171    1.699997622    3.119937832
   6  H42     0.00   -5.973046335    4.726205038    2.982932688
   7  H43     0.00   -7.940251230    2.077186956    3.118237078
   8  H44     0.00   -6.176569838    2.685300823    0.384937212

 Bond lengths in Bohr (Angstrom)

 1-2  1.842231989  1-3  1.865671621  4-5  2.021904040  4-6  2.022002335  4-7  2.021953343
     ( 0.974867186)     ( 0.987270905)     ( 1.069945541)     ( 1.069997556)     ( 1.069971630)

 4-8  2.022015060
     ( 1.070004290)

 Bond angles

  2-1-3  105.53314040   5-4-6  109.53398059   5-4-7  109.65604535   5-4-8  108.43490854

  6-4-7  109.49436728   6-4-8  109.86987750   7-4-8  109.83468330

 NUCLEAR CHARGE:                   10
 NUMBER OF PRIMITIVE AOS:         578
 NUMBER OF SYMMETRY AOS:          474
 NUMBER OF CONTRACTIONS:          436   (  436A   )
 NUMBER OF CORE ORBITALS:           1   (    1A   )
 NUMBER OF VALENCE ORBITALS:        6   (    6A   )

 MOLECULE CHANGED: INITIALIZING OCCUPATION AND DUMP RECORDS


 NUCLEAR REPULSION ENERGY    8.96929098

 Basis set:  JKFIT                   
 Basis size:  1104
 Attributes:
 Sphericals:   T
 Basis set:  MP2FIT                  
 Basis size:  1246
 Attributes:
 Sphericals:   T
 Basis set:  RI                      
 Basis size:   730
 Attributes:
 Sphericals:   T
 Basis set:  TDDFT                   
 Basis size:  1246
 Attributes:
 Sphericals:   T

 Eigenvalues of metric

         1 0.132E-04 0.184E-04 0.292E-04 0.343E-04 0.620E-04 0.664E-04 0.923E-04 0.104E-03


 Contracted 2-electron integrals neglected if value below      1.0D-14

 OPERATOR DM      FOR CENTER  0  COORDINATES:    0.000000    0.000000    0.000000


 **********************************************************************************************************************************
 DATASETS  * FILE   NREC   LENGTH (MB)   RECORD NAMES
              1      18       37.12       500      610      700      900      950      970     1000      129      960     1100   
                                          VAR    BASINP    GEOM    SYMINP    ZMAT    AOBASIS   BASIS     P2S    ABASIS      S 
                                         1400     1410     1200     1210     1080     1600     1650     1700   
                                           T        V       H0       H01     AOSYM     SMH    MOLCAS    OPER   

              2       7       10.59       700     1000      520     2100     7360     7350      200   
                                         GEOM     BASIS   MCVARS     RHF    F12ABS    EF12    OPTIONS    

 PROGRAMS   *        TOTAL       INT   CCSD(T)    HF-SCF       INT
 CPU TIMES  *      6988.71      0.38   6520.56    278.42    189.07
 REAL TIME  *      7154.27 SEC
 DISK USED  *         3.24 GB (local),       80.81 GB (total)
 SF USED    *         5.13 GB
 GA USED    *         4.87 MB       (max)       0.00 MB       (current)
 **********************************************************************************************************************************


 PROGRAM * RHF-SCF (CLOSED SHELL)       Authors: W. Meyer, H.-J. Werner


 NUMBER OF ELECTRONS:       5+    5-    SPACE SYMMETRY=1    SPIN SYMMETRY: Singlet 
 CONVERGENCE THRESHOLDS:    1.00E-08 (Density)    1.00E-11 (Energy)
 MAX. NUMBER OF ITERATIONS:       60
 INTERPOLATION TYPE:            DIIS
 INTERPOLATION STEPS:              2 (START)      1 (STEP)
 LEVEL SHIFTS:                  0.00 (CLOSED)  0.00 (OPEN) 



 Orbital guess generated from atomic densities. Full valence occupancy:    7

 Molecular orbital dump at record        2101.2

 Initial occupancy:   5

 ITERATION    DDIFF          GRAD             ENERGY        2-EL.EN.            DIPOLE MOMENTS         DIIS   ORB.
    1      0.000D+00      0.000D+00       -76.02461214     77.370816    0.49241   -0.61454   -0.83951    0    start
    2      0.000D+00      0.467D-02       -76.05136228     73.707100    0.28199   -0.35573   -0.48835    1    diag
    3      0.222D-02      0.298D-02       -76.06299632     75.334839    0.33375   -0.42016   -0.57630    2    diag
    4      0.843D-03      0.279D-03       -76.06319211     75.243432    0.33097   -0.41742   -0.57305    3    diag
    5      0.105D-03      0.783D-04       -76.06321344     75.257810    0.32990   -0.41639   -0.57185    4    diag
    6      0.332D-04      0.156D-04       -76.06321484     75.256760    0.32963   -0.41616   -0.57160    5    diag
    7      0.856D-05      0.318D-05       -76.06321491     75.256909    0.32955   -0.41608   -0.57151    6    diag
    8      0.235D-05      0.598D-06       -76.06321491     75.256893    0.32953   -0.41606   -0.57148    7    diag
    9      0.427D-06      0.811D-07       -76.06321491     75.256884    0.32953   -0.41605   -0.57148    8    diag
   10      0.553D-07      0.185D-07       -76.06321491     75.256888    0.32953   -0.41605   -0.57148    9    orth
   11      0.132D-07      0.332D-08       -76.06321491     75.256887    0.32953   -0.41605   -0.57148    9    diag
   12      0.249D-08      0.600D-09       -76.06321491     75.256887    0.32953   -0.41605   -0.57148    0    orth

 Final occupancy:   5

 !RHF STATE  1.1 Energy               -76.063214907645
 Nuclear energy                         8.96929098
 One-electron energy                 -122.66094935
 Two-electron energy                   37.62844346
 Virial quotient                       -1.00212517
 !RHF STATE  1.1 Dipole moment          0.32952566    -0.41605433    -0.57147960
 Dipole moment /Debye                   0.83751582    -1.05743536    -1.45246113

 Orbital energies:

         1.1          2.1          3.1          4.1          5.1          6.1          7.1
    -20.568354    -1.340203    -0.706796    -0.578413    -0.508265     0.016770     0.035641


 HOMO      5.1    -0.508265 =     -13.8306eV
 LUMO      6.1     0.016770 =       0.4563eV
 LUMO-HOMO         0.525035 =      14.2869eV


 **********************************************************************************************************************************
 DATASETS  * FILE   NREC   LENGTH (MB)   RECORD NAMES
              1      18       37.12       500      610      700      900      950      970     1000      129      960     1100   
                                          VAR    BASINP    GEOM    SYMINP    ZMAT    AOBASIS   BASIS     P2S    ABASIS      S 
                                         1400     1410     1200     1210     1080     1600     1650     1700   
                                           T        V       H0       H01     AOSYM     SMH    MOLCAS    OPER   

              2       8       17.39       700     1000      520     2100     7360     7350      200     2101   
                                         GEOM     BASIS   MCVARS     RHF    F12ABS    EF12    OPTIONS    RHF  

 PROGRAMS   *        TOTAL    HF-SCF       INT   CCSD(T)    HF-SCF       INT
 CPU TIMES  *      7247.91    259.20      0.38   6520.56    278.42    189.07
 REAL TIME  *      7436.58 SEC
 DISK USED  *         3.24 GB (local),       80.81 GB (total)
 SF USED    *         5.13 GB
 GA USED    *         4.87 MB       (max)       0.00 MB       (current)
 **********************************************************************************************************************************

 Basis set:  JKFIT                   
 Basis size:  1104
 Attributes:
 Sphericals:   T
 Basis set:  MP2FIT                  
 Basis size:  1246
 Attributes:
 Sphericals:   T
 Basis set:  RI                      
 Basis size:   730
 Attributes:
 Sphericals:   T
 Basis set:  TDDFT                   
 Basis size:  1246
 Attributes:
 Sphericals:   T

 PROGRAM * CCSD (Closed-shell coupled cluster)     Authors: C. Hampel, H.-J. Werner, 1991, M. Deegan, P.J. Knowles, 1992

                                  CCSD-F12 implementation by  H.-J. Werner, 2007

                   Density fitting integral evaluation by F.R. Manby, 2003,2007, G. Knizia, 2010



 Convergence thresholds:  THRVAR = 1.00D-08  THRDEN = 1.00D-10

 CCSD(T)     terms to be evaluated (factor= 1.000)


 Number of core orbitals:           1 (   1 )
 Number of closed-shell orbitals:   4 (   4 )
 Number of external orbitals:     431 ( 431 )

 Molecular orbitals read from record     2101.2  Type=RHF/CANONICAL (state 1.1)

 MP2-F12 correlation treatment (H.-J. Werner, 2006)
 ==================================================

 Using MP2-F12 with ansatz 3C(FIX)

 Using projected zeroth-order Hamiltonian (+Z)

 FOCKRIB=T FOCKRIC=T FOCKRIP=T CABSP=T CABSA=T CABSK=T CABSF=T GBC=F EBC=F DMAT=T NOFIK=T NOPAO=1 SOLVE=-1  USEPAO=0
 EXCH_A= T EXCH_B= F EXCH_C= F EXCH_P= F

 Geminal basis:    OPTFULL  GEM_TYPE=SLATER  BETA=1.0  NGEM=6

 Optimizing Gaussian exponents for each gem_beta

 Geminal optimization for beta= 1.0000
 Weight function:   m=0, omega= 1.4646

 Augmented Hessian optimization of geminal fit. Trust ratio= 0.40000
 Convergence reached after   2 iterations. Final gradient= 8.31D-16, Step= 4.24D-06, Delta= 1.28D-09

 Alpha:                 0.19532     0.81920     2.85917     9.50073    35.69989   197.79328
 Coeff:                 0.27070     0.30552     0.18297     0.10986     0.06810     0.04224


 All pairs explicitly correlated. Number of r12-pairs:           10

 Excluding core orbitals from MO domains

 AO(A)-basis ORBITAL           loaded. Number of functions:     436
 RI(R)-basis RI                loaded. Number of functions:     730
 DF-basis JKFIT                loaded. Number of functions:    1104

 Screening thresholds:   THRAO=  1.00D-10  THRMO=  1.00D-09  THRPROD=  1.00D-09
                         THRSW=  1.00D-05  THROV=  1.00D-12  THRAOF12= 1.00D-10

 CPU time for Fock operators                      9.85 sec

 Construction of ABS:
 Smallest eigenvalue of S          2.24E-04  (threshold= 1.00E-08)
 Ratio eigmin/eigmax               3.89E-05  (threshold= 1.00E-09)
 Smallest eigenvalue of S kept     2.24E-04  (threshold= 2.24E-04, 0 functions deleted, 730 kept)

 Construction of CABS:
 Smallest eigenvalue of S          1.43E-08  (threshold= 1.00E-08)
 Ratio eigmin/eigmax               1.43E-08  (threshold= 1.00E-09)
 Smallest eigenvalue of S kept     1.43E-08  (threshold= 1.43E-08, 0 functions deleted, 730 kept)

 CPU time for CABS singles                        2.26 sec

 CABS-singles contribution of  -0.00028860 patched into reference energy.
 New reference energy         -76.06350350

 AO(A)-basis ORBITAL           loaded. Number of functions:     436
 RI(R)-basis RI                loaded. Number of functions:     730
 DF-basis MP2FIT               loaded. Number of functions:    1246

 Screening thresholds:   THRAO=  1.00D-10  THRMO=  1.00D-09  THRPROD=  1.00D-09
                         THRSW=  1.00D-05  THROV=  1.00D-12  THRAOF12= 1.00D-10

 CPU time for 3-index integral evaluation        19.17 sec
 CPU time for first  half transformation          3.45 sec ( 1873.7 MFLOP/sec)
 CPU time for second half transformation          0.03 sec ( 1276.6 MFLOP/sec)
 CPU time for sorting                             0.08 sec
 CPU time for fitting                             1.38 sec ( 5280.8 MFLOP/sec)
 CPU time for tilde quantities                    1.55 sec ( 3798.2 MFLOP/sec)
 CPU time for assembly                            4.58 sec ( 4478.1 MFLOP/sec)
 CPU time for tranop_f12                          4.65 sec ( 3857.1 MFLOP/sec)
 CPU time for f12 integrals (total)              41.94 sec, Elapsed time:     43.02 sec
 F12-matrices built in  4 passes.
 F12-matrices built in  4 passes.
 F12-matrices built in  4 passes.
 F12-matrices built in  4 passes.
 FC-matrix built in  4 passes.
 CPU time for f12 matrices (total)                1.69 sec, Elapsed time:      1.77 sec

 Diagonal F12 approximation with fixed coefficients:  TSING= 0.500,  TTRIP= 0.250 (scaled by -1/beta)

 DF-MP2-F12 energy corrections:
 ==============================
 Approx.                                    Singlet             Triplet             Total
 DF-MP2-F12/3*C(DX,FIX)                -0.013700988765     -0.001528723854     -0.015229712619
 DF-MP2-F12/3*C(FIX)                   -0.012079078663     -0.001074847389     -0.013153926052
 DF-MP2-F12/3C(FIX)                    -0.012065464776     -0.001112063045     -0.013177527821

 DF-MP2-F12 correlation energies:
 ================================
 Approx.                                    Singlet             Triplet             Ecorr            Total Energy
 DF-MP2                                -0.186305132534     -0.101431350116     -0.287736482650    -76.351239986956
 DF-MP2-F12/3*C(DX,FIX)                -0.200006121299     -0.102960073971     -0.302966195269    -76.366469699575
 DF-MP2-F12/3*C(FIX)                   -0.198384211197     -0.102506197505     -0.300890408702    -76.364393913008
 DF-MP2-F12/3C(FIX)                    -0.198370597310     -0.102543413161     -0.300914010471    -76.364417514777

 SCS-DF-MP2 energies (F_SING= 1.20000  F_TRIP= 0.62222  F_PARALLEL= 0.33333):
 ============================================================================
 SCS-DF-MP2                            -0.286678999113    -76.350182503419
 SCS-DF-MP2-F12/3*C(DX,FIX)            -0.304071391585    -76.367574895891
 SCS-DF-MP2-F12/3*C(FIX)               -0.301842687440    -76.365346191746
 SCS-DF-MP2-F12/3C(FIX)                -0.301849507183    -76.365353011489
 Symmetry transformation completed.

 Number of N-1 electron functions:               4
 Number of N-2 electron functions:              10
 Number of singly external CSFs:              1724
 Number of doubly external CSFs:           1486950
 Total number of CSFs:                     1488675

 Pair and operator lists are different

 Length of J-op  integral file:             203.65 MB
 Length of K-op  integral file:             338.08 MB
 Length of 3-ext integral record:             0.00 MB

 Memory could be reduced to 526.20 Mwords without degradation in triples

 Integral transformation finished. Total CPU: 178.89 sec, npass=  1  Memory used: 214.75 MW

 Reference energy:                    -76.06350350

 Adding F12 terms to K(Cij), methodcc=6,  factor= 1.0

 ITER.      SQ.NORM     CORR.ENERGY   TOTAL ENERGY   ENERGY CHANGE        DEN1      VAR(S)    VAR(P)  DIIS     TIME  TIME/IT
   1      1.06366461    -0.28714165   -76.35064515     0.00059880     0.00679126  0.79D-03  0.11D-02  1  1   294.91    56.63
   2      1.06721981    -0.28694475   -76.35044826     0.00019689    -0.00490073  0.13D-04  0.12D-03  2  2   355.94    59.93
   3      1.06845849    -0.28704216   -76.35054567    -0.00009741    -0.00082426  0.99D-05  0.76D-05  3  3   411.32    59.02
   4      1.06901709    -0.28705724   -76.35056074    -0.00001508    -0.00034211  0.54D-06  0.74D-06  4  4   466.42    58.47
   5      1.06912411    -0.28705564   -76.35055914     0.00000160    -0.00003051  0.17D-06  0.58D-07  5  5   523.01    58.49
   6      1.06915772    -0.28705349   -76.35055700     0.00000215    -0.00000407  0.21D-07  0.48D-08  6  6   579.57    58.51
   7      1.06916722    -0.28705288   -76.35055639     0.00000061    -0.00000193  0.15D-08  0.76D-09  6  1   636.19    58.53
   8      1.06916865    -0.28705286   -76.35055636     0.00000002     0.00000020  0.32D-09  0.98D-10  6  3   692.74    58.55
   9      1.06916968    -0.28705280   -76.35055631     0.00000006    -0.00000026  0.23D-10  0.11D-10  6  2   749.64    58.56
  10      1.06916987    -0.28705279   -76.35055630     0.00000001     0.00000001  0.22D-11  0.12D-11  6  4   805.93    58.54
  11      1.06916986    -0.28705279   -76.35055630    -0.00000000     0.00000003  0.54D-12  0.18D-12  6  5   862.59    58.55
  12      1.06916986    -0.28705279   -76.35055630    -0.00000000     0.00000001  0.93D-13  0.27D-13  6  6   919.17    58.56
  13      1.06916985    -0.28705280   -76.35055630    -0.00000000     0.00000000  0.16D-13  0.47D-14  6  1   975.94    58.57
  14      1.06916985    -0.28705280   -76.35055630    -0.00000000     0.00000000  0.22D-14  0.85D-15  6  3  1032.74    58.58
  15      1.06916985    -0.28705280   -76.35055630    -0.00000000    -0.00000000  0.19D-15  0.12D-15  6  2  1089.41    58.59
  16      1.06916985    -0.28705280   -76.35055630     0.00000000    -0.00000000  0.39D-16  0.18D-16  6  4  1146.13    58.60

 Norm of t1 vector:      0.03693078      S-energy:    -0.00000000      T1 diagnostic:  0.00923270
                                                                       D1 diagnostic:  0.01874727

 Adding energy correction from Wij-K(Fij), methodcc=6  factor= 1.0

  CCSD correlation energy              -0.287052796061
  MP2-F12 correction (uncoupled)       -0.012739405963
  C*T doubles correction               -0.000418365885
  f12b correction                       0.002710899033


 Total CPU time for triples:    448.71 sec

  Ecorr(MP2)                           -0.287740442383
  Ecorr(MP2-F12)                       -0.300917970204
  Scale factor for triples energy       1.045796578721


 RESULTS
 =======

  Reference energy                    -76.063214907644
  F12 singles correction               -0.000288596662

 F12 singles corrections added to reference energy

  New reference energy                -76.063503504306

  F12a singlet correction              -0.012036554947
  F12a triplet correction              -0.001121216900
  F12a total correction                -0.013157771847

 F12a corrections for ansatz F12/3C(FIX) added to CCSD energy

  CCSD-F12a singlet pair energy        -0.209455295143
  CCSD-F12a triplet pair energy        -0.090755272695
  CCSD-F12a correlation energy         -0.300210567908

  Triples (T) contribution (scaled)    -0.009955914759
  Total correlation energy             -0.310166482668

  CCSD-F12a total energy              -76.363714072214
  CCSD[T]-F12a energy                 -76.373998743014
  CCSD-T-F12a energy                  -76.373527228682
 !CCSD(T)-F12a total energy           -76.373669986974

 F12b corrections for ansatz F12/3C(FIX) added to CCSD(T)-F12a energy

  CCSD-F12b singlet pair energy        -0.206890932286
  CCSD-F12b triplet pair energy        -0.090608736519
  CCSD-F12b correlation energy         -0.297499668875

  Triples (T) contribution (scaled)    -0.009955914759
  Total correlation energy             -0.307455583634

  CCSD-F12b total energy              -76.361003173181
  CCSD[T]-F12b energy                 -76.371287843981
  CCSD-T-F12b energy                  -76.370816329648
 !CCSD(T)-F12b total energy           -76.370959087940

 Timing summary (sec):

 STEP                 CPU(USER)    SYS     CPU(TOT)    WALL
 Transformation        179.27      7.06    186.33    187.65
 CCSD iterations       905.98     30.32    936.30    937.82
 Triples               448.71      5.24    453.95    454.52
 MP2-F12                60.97      1.29     62.26     62.49
 F12b energy            52.18      1.69     53.87     53.93

 Program statistics:

 Available memory in ccsd:              1999999871
 Min. memory needed in ccsd:               6763924
 Max. memory used in ccsd:                 7862874
 Max. memory used in cckext:               5171974 (17 integral passes)



 **********************************************************************************************************************************
 DATASETS  * FILE   NREC   LENGTH (MB)   RECORD NAMES
              1      19     1346.98       500      610      700      900      950      970     1000      129      960     1100   
                                          VAR    BASINP    GEOM    SYMINP    ZMAT    AOBASIS   BASIS     P2S    ABASIS      S 
                                         1400     1410     1200     1210     1080     1600     1650     1700     1380   
                                           T        V       H0       H01     AOSYM     SMH    MOLCAS    OPER     JKOP   

              2       8       17.39       700     1000      520     2100     7360     7350      200     2101   
                                         GEOM     BASIS   MCVARS     RHF    F12ABS    EF12    OPTIONS    RHF  

 PROGRAMS   *        TOTAL   CCSD(T)    HF-SCF       INT   CCSD(T)    HF-SCF       INT
 CPU TIMES  *      8895.27   1647.35    259.20      0.38   6520.56    278.42    189.07
 REAL TIME  *      9134.02 SEC
 DISK USED  *         3.24 GB (local),       80.81 GB (total)
 SF USED    *         5.13 GB
 GA USED    *         4.87 MB       (max)       0.00 MB       (current)
 **********************************************************************************************************************************

 Running procedure: SET_MONOMER2

 Dummy atoms: O12  H23  H24


 Recomputing one-electron integrals since nuclear charges changed


 PROGRAM * SEWARD (Integral evaluation for generally contracted gaussian basis sets)     Author: Roland Lindh, 1990

 Geometry written to block  1 of record 700


 Point group  C1  



 ATOMIC COORDINATES

 NR  ATOM    CHARGE       X              Y              Z

   1  O12     0.00   -5.732106254    9.977753938    2.847061379
   2  H23     0.00   -6.497256361    9.507023160    1.238715475
   3  H24     0.00   -4.013967261    9.251343215    2.814558090
   4  C1      6.00   -6.193010455    2.801518980    2.403542658
   5  H41     1.00   -4.656285171    1.699997622    3.119937832
   6  H42     1.00   -5.973046335    4.726205038    2.982932688
   7  H43     1.00   -7.940251230    2.077186956    3.118237078
   8  H44     1.00   -6.176569838    2.685300823    0.384937212

 Bond lengths in Bohr (Angstrom)

 1-2  1.842231989  1-3  1.865671621  4-5  2.021904040  4-6  2.022002335  4-7  2.021953343
     ( 0.974867186)     ( 0.987270905)     ( 1.069945541)     ( 1.069997556)     ( 1.069971630)

 4-8  2.022015060
     ( 1.070004290)

 Bond angles

  2-1-3  105.53314040   5-4-6  109.53398059   5-4-7  109.65604535   5-4-8  108.43490854

  6-4-7  109.49436728   6-4-8  109.86987750   7-4-8  109.83468330

 NUCLEAR CHARGE:                   10
 NUMBER OF PRIMITIVE AOS:         578
 NUMBER OF SYMMETRY AOS:          474
 NUMBER OF CONTRACTIONS:          436   (  436A   )
 NUMBER OF CORE ORBITALS:           1   (    1A   )
 NUMBER OF VALENCE ORBITALS:        8   (    8A   )

 MOLECULE CHANGED: INITIALIZING OCCUPATION AND DUMP RECORDS


 NUCLEAR REPULSION ENERGY   13.68681606

 Basis set:  JKFIT                   
 Basis size:  1104
 Attributes:
 Sphericals:   T
 Basis set:  MP2FIT                  
 Basis size:  1246
 Attributes:
 Sphericals:   T
 Basis set:  RI                      
 Basis size:   730
 Attributes:
 Sphericals:   T
 Basis set:  TDDFT                   
 Basis size:  1246
 Attributes:
 Sphericals:   T

 Eigenvalues of metric

         1 0.132E-04 0.184E-04 0.292E-04 0.343E-04 0.620E-04 0.664E-04 0.923E-04 0.104E-03


 Contracted 2-electron integrals neglected if value below      1.0D-14

 OPERATOR DM      FOR CENTER  0  COORDINATES:    0.000000    0.000000    0.000000


 **********************************************************************************************************************************
 DATASETS  * FILE   NREC   LENGTH (MB)   RECORD NAMES
              1      18       37.12       500      610      700      900      950      970     1000      129      960     1100   
                                          VAR    BASINP    GEOM    SYMINP    ZMAT    AOBASIS   BASIS     P2S    ABASIS      S 
                                         1400     1410     1200     1210     1080     1600     1650     1700   
                                           T        V       H0       H01     AOSYM     SMH    MOLCAS    OPER   

              2       8       17.39       700     1000      520     2100     7360     7350      200     2101   
                                         GEOM     BASIS   MCVARS     RHF    F12ABS    EF12    OPTIONS    RHF  

 PROGRAMS   *        TOTAL       INT   CCSD(T)    HF-SCF       INT   CCSD(T)    HF-SCF       INT
 CPU TIMES  *      8895.68      0.41   1647.35    259.20      0.38   6520.56    278.42    189.07
 REAL TIME  *      9135.19 SEC
 DISK USED  *         3.24 GB (local),       80.81 GB (total)
 SF USED    *         5.13 GB
 GA USED    *         4.87 MB       (max)       0.00 MB       (current)
 **********************************************************************************************************************************


 PROGRAM * RHF-SCF (CLOSED SHELL)       Authors: W. Meyer, H.-J. Werner


 NUMBER OF ELECTRONS:       5+    5-    SPACE SYMMETRY=1    SPIN SYMMETRY: Singlet 
 CONVERGENCE THRESHOLDS:    1.00E-08 (Density)    1.00E-11 (Energy)
 MAX. NUMBER OF ITERATIONS:       60
 INTERPOLATION TYPE:            DIIS
 INTERPOLATION STEPS:              2 (START)      1 (STEP)
 LEVEL SHIFTS:                  0.00 (CLOSED)  0.00 (OPEN) 



 Orbital guess generated from atomic densities. Full valence occupancy:    9

 Molecular orbital dump at record        2102.2

 Initial occupancy:   5

 ITERATION    DDIFF          GRAD             ENERGY        2-EL.EN.            DIPOLE MOMENTS         DIIS   ORB.
    1      0.000D+00      0.000D+00       -40.19609609     53.506297    0.00411   -0.00276   -0.00130    0    start
    2      0.000D+00      0.257D-02       -40.21335025     52.217629    0.00129   -0.00088   -0.00038    1    diag
    3      0.158D-02      0.998D-03       -40.21562619     52.672088    0.00182   -0.00124   -0.00055    2    diag
    4      0.442D-03      0.249D-03       -40.21594564     52.617276    0.00162   -0.00111   -0.00048    3    diag
    5      0.167D-03      0.322D-04       -40.21595113     52.619423    0.00159   -0.00109   -0.00048    4    diag
    6      0.409D-04      0.264D-05       -40.21595118     52.619560    0.00159   -0.00109   -0.00048    5    diag
    7      0.537D-05      0.212D-06       -40.21595118     52.619521    0.00159   -0.00109   -0.00047    6    diag
    8      0.243D-06      0.170D-07       -40.21595118     52.619522    0.00159   -0.00109   -0.00047    7    diag
    9      0.835D-07      0.217D-08       -40.21595118     52.619522    0.00159   -0.00109   -0.00047    8    diag
   10      0.827D-08      0.594D-09       -40.21595118     52.619522    0.00159   -0.00109   -0.00047    0    orth

 Final occupancy:   5

 !RHF STATE  1.1 Energy               -40.215951177352
 Nuclear energy                        13.68681606
 One-electron energy                  -80.21252811
 Two-electron energy                   26.30976088
 Virial quotient                       -0.99838103
 !RHF STATE  1.1 Dipole moment          0.00158814    -0.00108684    -0.00047455
 Dipole moment /Debye                   0.00403638    -0.00276229    -0.00120610

 Orbital energies:

         1.1          2.1          3.1          4.1          5.1          6.1          7.1
    -11.196223    -0.950661    -0.551889    -0.549954    -0.547776     0.024439     0.039028


 HOMO      5.1    -0.547776 =     -14.9057eV
 LUMO      6.1     0.024439 =       0.6650eV
 LUMO-HOMO         0.572215 =      15.5708eV


 **********************************************************************************************************************************
 DATASETS  * FILE   NREC   LENGTH (MB)   RECORD NAMES
              1      18       37.12       500      610      700      900      950      970     1000      129      960     1100   
                                          VAR    BASINP    GEOM    SYMINP    ZMAT    AOBASIS   BASIS     P2S    ABASIS      S 
                                         1400     1410     1200     1210     1080     1600     1650     1700   
                                           T        V       H0       H01     AOSYM     SMH    MOLCAS    OPER   

              2       9       27.51       700     1000      520     2100     7360     7350      200     2101     2102   
                                         GEOM     BASIS   MCVARS     RHF    F12ABS    EF12    OPTIONS    RHF      RHF  

 PROGRAMS   *        TOTAL    HF-SCF       INT   CCSD(T)    HF-SCF       INT   CCSD(T)    HF-SCF       INT
 CPU TIMES  *      9107.76    212.08      0.41   1647.35    259.20      0.38   6520.56    278.42    189.07
 REAL TIME  *      9366.53 SEC
 DISK USED  *         3.24 GB (local),       80.81 GB (total)
 SF USED    *         5.13 GB
 GA USED    *         4.87 MB       (max)       0.00 MB       (current)
 **********************************************************************************************************************************

 Basis set:  JKFIT                   
 Basis size:  1104
 Attributes:
 Sphericals:   T
 Basis set:  MP2FIT                  
 Basis size:  1246
 Attributes:
 Sphericals:   T
 Basis set:  RI                      
 Basis size:   730
 Attributes:
 Sphericals:   T
 Basis set:  TDDFT                   
 Basis size:  1246
 Attributes:
 Sphericals:   T

 PROGRAM * CCSD (Closed-shell coupled cluster)     Authors: C. Hampel, H.-J. Werner, 1991, M. Deegan, P.J. Knowles, 1992

                                  CCSD-F12 implementation by  H.-J. Werner, 2007

                   Density fitting integral evaluation by F.R. Manby, 2003,2007, G. Knizia, 2010



 Convergence thresholds:  THRVAR = 1.00D-08  THRDEN = 1.00D-10

 CCSD(T)     terms to be evaluated (factor= 1.000)


 Number of core orbitals:           1 (   1 )
 Number of closed-shell orbitals:   4 (   4 )
 Number of external orbitals:     431 ( 431 )

 Molecular orbitals read from record     2102.2  Type=RHF/CANONICAL (state 1.1)

 MP2-F12 correlation treatment (H.-J. Werner, 2006)
 ==================================================

 Using MP2-F12 with ansatz 3C(FIX)

 Using projected zeroth-order Hamiltonian (+Z)

 FOCKRIB=T FOCKRIC=T FOCKRIP=T CABSP=T CABSA=T CABSK=T CABSF=T GBC=F EBC=F DMAT=T NOFIK=T NOPAO=1 SOLVE=-1  USEPAO=0
 EXCH_A= T EXCH_B= F EXCH_C= F EXCH_P= F

 Geminal basis:    OPTFULL  GEM_TYPE=SLATER  BETA=1.0  NGEM=6

 Optimizing Gaussian exponents for each gem_beta

 Geminal optimization for beta= 1.0000
 Weight function:   m=0, omega= 1.4646

 Augmented Hessian optimization of geminal fit. Trust ratio= 0.40000
 Convergence reached after   2 iterations. Final gradient= 7.85D-16, Step= 4.26D-06, Delta= 1.28D-09

 Alpha:                 0.19532     0.81920     2.85917     9.50073    35.69989   197.79328
 Coeff:                 0.27070     0.30552     0.18297     0.10986     0.06810     0.04224


 All pairs explicitly correlated. Number of r12-pairs:           10

 Excluding core orbitals from MO domains

 AO(A)-basis ORBITAL           loaded. Number of functions:     436
 RI(R)-basis RI                loaded. Number of functions:     730
 DF-basis JKFIT                loaded. Number of functions:    1104

 Screening thresholds:   THRAO=  1.00D-10  THRMO=  1.00D-09  THRPROD=  1.00D-09
                         THRSW=  1.00D-05  THROV=  1.00D-12  THRAOF12= 1.00D-10

 CPU time for Fock operators                      9.78 sec

 Construction of ABS:
 Smallest eigenvalue of S          2.24E-04  (threshold= 1.00E-08)
 Ratio eigmin/eigmax               3.89E-05  (threshold= 1.00E-09)
 Smallest eigenvalue of S kept     2.24E-04  (threshold= 2.24E-04, 0 functions deleted, 730 kept)

 Construction of CABS:
 Smallest eigenvalue of S          1.43E-08  (threshold= 1.00E-08)
 Ratio eigmin/eigmax               1.43E-08  (threshold= 1.00E-09)
 Smallest eigenvalue of S kept     1.43E-08  (threshold= 1.43E-08, 0 functions deleted, 730 kept)

 CPU time for CABS singles                        2.26 sec

 CABS-singles contribution of  -0.00024526 patched into reference energy.
 New reference energy         -40.21619644

 AO(A)-basis ORBITAL           loaded. Number of functions:     436
 RI(R)-basis RI                loaded. Number of functions:     730
 DF-basis MP2FIT               loaded. Number of functions:    1246

 Screening thresholds:   THRAO=  1.00D-10  THRMO=  1.00D-09  THRPROD=  1.00D-09
                         THRSW=  1.00D-05  THROV=  1.00D-12  THRAOF12= 1.00D-10

 CPU time for 3-index integral evaluation        19.10 sec
 CPU time for first  half transformation          3.47 sec ( 1872.3 MFLOP/sec)
 CPU time for second half transformation          0.04 sec (  958.3 MFLOP/sec)
 CPU time for sorting                             0.07 sec
 CPU time for fitting                             1.16 sec ( 2360.9 MFLOP/sec)
 CPU time for tilde quantities                    1.50 sec ( 5760.9 MFLOP/sec)
 CPU time for assembly                            4.85 sec ( 3583.5 MFLOP/sec)
 CPU time for tranop_f12                          4.46 sec ( 3437.0 MFLOP/sec)
 CPU time for f12 integrals (total)              41.43 sec, Elapsed time:     42.54 sec
 F12-matrices built in  4 passes.
 F12-matrices built in  4 passes.
 F12-matrices built in  4 passes.
 F12-matrices built in  4 passes.
 FC-matrix built in  4 passes.
 CPU time for f12 matrices (total)                1.59 sec, Elapsed time:      1.60 sec

 Diagonal F12 approximation with fixed coefficients:  TSING= 0.500,  TTRIP= 0.250 (scaled by -1/beta)

 DF-MP2-F12 energy corrections:
 ==============================
 Approx.                                    Singlet             Triplet             Total
 DF-MP2-F12/3*C(DX,FIX)                -0.007487759369     -0.000574197908     -0.008061957277
 DF-MP2-F12/3*C(FIX)                   -0.007040457351     -0.000472767595     -0.007513224946
 DF-MP2-F12/3C(FIX)                    -0.007069546669     -0.000486308994     -0.007555855662

 DF-MP2-F12 correlation energies:
 ================================
 Approx.                                    Singlet             Triplet             Ecorr            Total Energy
 DF-MP2                                -0.154429405212     -0.056464851019     -0.210894256231    -40.427090691293
 DF-MP2-F12/3*C(DX,FIX)                -0.161917164580     -0.057039048928     -0.218956213508    -40.435152648570
 DF-MP2-F12/3*C(FIX)                   -0.161469862562     -0.056937618615     -0.218407481177    -40.434603916239
 DF-MP2-F12/3C(FIX)                    -0.161498951880     -0.056951160013     -0.218450111894    -40.434646546956

 SCS-DF-MP2 energies (F_SING= 1.20000  F_TRIP= 0.62222  F_PARALLEL= 0.33333):
 ============================================================================
 SCS-DF-MP2                            -0.220448971333    -40.436645406395
 SCS-DF-MP2-F12/3*C(DX,FIX)            -0.229791561274    -40.445987996336
 SCS-DF-MP2-F12/3*C(FIX)               -0.229191686657    -40.445388121720
 SCS-DF-MP2-F12/3C(FIX)                -0.229235019598    -40.445431454660
 Symmetry transformation completed.

 Number of N-1 electron functions:               4
 Number of N-2 electron functions:              10
 Number of singly external CSFs:              1724
 Number of doubly external CSFs:           1486950
 Total number of CSFs:                     1488675

 Pair and operator lists are different

 Length of J-op  integral file:             203.65 MB
 Length of K-op  integral file:             338.08 MB
 Length of 3-ext integral record:             0.00 MB

 Memory could be reduced to 526.20 Mwords without degradation in triples

 Integral transformation finished. Total CPU: 170.12 sec, npass=  1  Memory used: 214.75 MW

 Reference energy:                    -40.21619644

 Adding F12 terms to K(Cij), methodcc=6,  factor= 1.0

 ITER.      SQ.NORM     CORR.ENERGY   TOTAL ENERGY   ENERGY CHANGE        DEN1      VAR(S)    VAR(P)  DIIS     TIME  TIME/IT
   1      1.07024150    -0.22512675   -40.44132318    -0.01422717    -0.00847266  0.63D-03  0.94D-03  1  1   283.62    54.93
   2      1.07517199    -0.22597724   -40.44217367    -0.00085049    -0.00530359  0.15D-04  0.10D-03  2  2   337.58    55.43
   3      1.07679522    -0.22606503   -40.44226146    -0.00008779    -0.00117799  0.22D-05  0.60D-05  3  3   391.33    55.45
   4      1.07717826    -0.22607230   -40.44226873    -0.00000727    -0.00020558  0.14D-06  0.33D-06  4  4   445.29    55.55
   5      1.07723036    -0.22607393   -40.44227037    -0.00000163    -0.00000897  0.11D-07  0.21D-07  5  5   499.38    55.60
   6      1.07723895    -0.22607265   -40.44226908     0.00000128    -0.00000325  0.79D-09  0.16D-08  6  6   552.97    55.57
   7      1.07724032    -0.22607231   -40.44226875     0.00000033    -0.00000086  0.52D-10  0.12D-09  6  1   607.03    55.62
   8      1.07724030    -0.22607238   -40.44226882    -0.00000007     0.00000020  0.55D-11  0.75D-11  6  3   661.20    55.66
   9      1.07724044    -0.22607236   -40.44226880     0.00000002    -0.00000009  0.42D-12  0.61D-12  6  2   715.21    55.68
  10      1.07724044    -0.22607236   -40.44226880     0.00000000     0.00000001  0.52D-13  0.60D-13  6  4   769.23    55.70
  11      1.07724044    -0.22607236   -40.44226880     0.00000000     0.00000000  0.48D-14  0.60D-14  6  5   822.94    55.72
  12      1.07724044    -0.22607236   -40.44226880     0.00000000     0.00000000  0.12D-15  0.65D-15  6  6   876.93    55.72
  13      1.07724044    -0.22607236   -40.44226880    -0.00000000     0.00000000  0.80D-17  0.69D-16  6  1   931.34    55.74
  14      1.07724044    -0.22607236   -40.44226880    -0.00000000     0.00000000  0.11D-17  0.84D-17  6  3   985.24    55.75

 Norm of t1 vector:      0.03291656      S-energy:    -0.00000000      T1 diagnostic:  0.00822914
                                                                       D1 diagnostic:  0.01319209

 Adding energy correction from Wij-K(Fij), methodcc=6  factor= 1.0

  CCSD correlation energy              -0.226072360796
  MP2-F12 correction (uncoupled)       -0.007432760777
  C*T doubles correction               -0.000126105917
  f12b correction                       0.001935232979

 Total CPU time for triples:    443.44 sec

  Ecorr(MP2)                           -0.210899573118
  Ecorr(MP2-F12)                       -0.218455428781
  Scale factor for triples energy       1.035826794482


 RESULTS
 =======

  Reference energy                    -40.215951177353
  F12 singles correction               -0.000245257710

 F12 singles corrections added to reference energy

  New reference energy                -40.216196435062

  F12a singlet correction              -0.007070143693
  F12a triplet correction              -0.000488723002
  F12a total correction                -0.007558866695

 F12a corrections for ansatz F12/3C(FIX) added to CCSD energy

  CCSD-F12a singlet pair energy        -0.178450112250
  CCSD-F12a triplet pair energy        -0.055181115236
  CCSD-F12a correlation energy         -0.233631227491

  Triples (T) contribution (scaled)    -0.007053426622
  Total correlation energy             -0.240684654113

  CCSD-F12a total energy              -40.449827662553
  CCSD[T]-F12a energy                 -40.457117603763
  CCSD-T-F12a energy                  -40.456811245817
 !CCSD(T)-F12a total energy           -40.456881089175

 F12b corrections for ansatz F12/3C(FIX) added to CCSD(T)-F12a energy

  CCSD-F12b singlet pair energy        -0.176582360154
  CCSD-F12b triplet pair energy        -0.055113634353
  CCSD-F12b correlation energy         -0.231695994511

  Triples (T) contribution (scaled)    -0.007053426622
  Total correlation energy             -0.238749421133

  CCSD-F12b total energy              -40.447892429574
  CCSD[T]-F12b energy                 -40.455182370784
  CCSD-T-F12b energy                  -40.454876012838
 !CCSD(T)-F12b total energy           -40.454945856196

 Timing summary (sec):

 STEP                 CPU(USER)    SYS     CPU(TOT)    WALL
 Transformation        170.49      5.79    176.28    176.82
 CCSD iterations       754.67     25.04    779.71    780.78
 Triples               443.44      5.43    448.87    449.45
 MP2-F12                60.17      1.41     61.58     61.68
 F12b energy            49.99      1.65     51.64     51.69

 Program statistics:

 Available memory in ccsd:              1999999866
 Min. memory needed in ccsd:               6763924
 Max. memory used in ccsd:                 7862874
 Max. memory used in cckext:               5171974 (15 integral passes)



 **********************************************************************************************************************************
 DATASETS  * FILE   NREC   LENGTH (MB)   RECORD NAMES
              1      19     1346.98       500      610      700      900      950      970     1000      129      960     1100   
                                          VAR    BASINP    GEOM    SYMINP    ZMAT    AOBASIS   BASIS     P2S    ABASIS      S 
                                         1400     1410     1200     1210     1080     1600     1650     1700     1380   
                                           T        V       H0       H01     AOSYM     SMH    MOLCAS    OPER     JKOP   

              2       9       27.51       700     1000      520     2100     7360     7350      200     2101     2102   
                                         GEOM     BASIS   MCVARS     RHF    F12ABS    EF12    OPTIONS    RHF      RHF  

 PROGRAMS   *        TOTAL   CCSD(T)    HF-SCF       INT   CCSD(T)    HF-SCF       INT   CCSD(T)    HF-SCF       INT
 CPU TIMES  *     10586.77   1478.99    212.08      0.41   1647.35    259.20      0.38   6520.56    278.42    189.07
 REAL TIME  *     10888.03 SEC
 DISK USED  *         3.24 GB (local),       80.81 GB (total)
 SF USED    *         5.13 GB
 GA USED    *         4.87 MB       (max)       0.00 MB       (current)
 **********************************************************************************************************************************
 Molecular orbitals read from record     2102.2  Type=RHF/CANONICAL (state 1.1)
 Occupation numbers read from record     2102.2  Type=RHF/RHF (state 1.1)
 Orbital energies read from record       2102.2  Type=RHF/CANONICAL (state 1.1)
 Redundancy group numbers read from rec  2102.2  Type=RHF/RHF (state 1.1)

 CCSD(T)-F12/aug-cc-pVQZ energy=    -40.454945856196

     CCSD(T)-F12          HF-SCF     CCSD(T)-F12          HF-SCF     CCSD(T)-F12          HF-SCF
    -40.45494586    -40.21595118    -76.37095909    -76.06321491   -116.82655591   -116.27863619
 **********************************************************************************************************************************
 Molpro calculation terminated
