
 Primary working directories    : /scratch/klimes/383246/molpro.DgMkJOkPuM
 Secondary working directories  : /scratch/klimes/383246/molpro.DgMkJOkPuM
 Wavefunction directory         : /scratch/klimes/383246/
 Main file repository           : /scratch/klimes/383246/molpro.DgMkJOkPuM/

 id        : karlovklimes

 Nodes                      nprocs
 nc-07.cc.karlov.mff.cuni.cz    4

 Using customized tuning parameters: mindgm=1; mindgv=20; mindgc=4; mindgr=1; noblas=0; minvec=7
 default implementation of scratch files=sf  


 Variables initialized (930), CPU time= 0.00 sec
                                                                                 !gdirect
 memory,2000,m
 gthresh,orbital=1d-10,energy=1d-10,grid=1d-8
 
 symmetry,nosym
 angstrom
 geometry={
 O13        -4.053700000000      0.094100000000      4.862800000000
 H25        -3.635600000000      1.001800000000      4.895500000000
 H26        -4.213700000000     -0.141300000000      5.785400000000
 C1        -3.277200000000      1.482500000000      1.271900000000
 H41        -2.464000000000      0.899600000000      1.651000000000
 H42        -3.160800000000      2.501000000000      1.578500000000
 H43        -4.201800000000      1.099200000000      1.650100000000
 H44        -3.268500000000      1.421000000000      0.203700000000
 }
 
 nkerna=1
 nkernb=1
 
 gf=0
 sing=1
 thrdum=1d-4
 gridthr=1d-8
 
 basis={
 set,orbital
 default,avqz
 set,jkfit
 default,av5z/jkfit
 set,mp2fit
 default,av5z/mp2fit
 set,ri
 default,av5z/optri
 set,tddft
 default,av5z/mp2fit
 }
 
 proc set_monomer1
 dummy,4,5,6,7,8
 endproc
 
 proc set_monomer2
 dummy,1,2,3
 endproc
 
                                                                                 !12 energy
 {hf,accu=1.d-16}
 {ccsd(t)-f12,df_basis=mp2fit,df_basis_exch=jkfit,ri_basis=ri,scale_trip=1,THRAOF12=1d-10}
 
 set_monomer1
 {hf,accu=1.d-16}
 {ccsd(t)-f12,df_basis=mp2fit,df_basis_exch=jkfit,ri_basis=ri,scale_trip=1,THRAOF12=1d-10}
 
 set_monomer2
 {hf,accu=1.d-16}
 {ccsd(t)-f12,df_basis=mp2fit,df_basis_exch=jkfit,ri_basis=ri,scale_trip=1,THRAOF12=1d-10}
 
 Commands  initialized (760), CPU time= 0.01 sec, 617 directives.
 Default parameters read. Elapsed time= 0.18 sec

 Checking input...
 Passed
1


                                         ***  PROGRAM SYSTEM MOLPRO  ***
                                       Copyright, TTI GmbH Stuttgart, 2015
                                    Version 2019.1 linked Jan 14 2019 13:09:19


 **********************************************************************************************************************************
 LABEL *                                                                                 
  64 bit mpp version                                                                     DATE: 11-Mar-20          TIME: 18:08:25  
 **********************************************************************************************************************************

 SHA1:             d688ac825633d238f2093ded1675ba87ccd55965
 **********************************************************************************************************************************

 THRESHOLDS:

 ZERO    =  1.00D-12  ONEINT  =  1.00D-12  TWOINT  =  1.00D-11  PREFAC  =  1.00D-14  XXXXXX  =  1.00D-09  EORDER  =  1.00D-04
 ENERGY  =  1.00D-10  ETEST   =  0.00D+00  EDENS   =  0.00D+00  THRDEDEF=  1.00D-06  GRADIENT=  1.00D-02  STEP    =  1.00D-03
 ORBITAL =  1.00D-10  CIVEC   =  1.00D-05  COEFF   =  1.00D-04  PRINTCI =  5.00D-02  PUNCHCI =  9.90D+01  OPTGRAD =  3.00D-04
 OPTENERG=  1.00D-06  OPTSTEP =  3.00D-04  THRGRAD =  1.00D-10  COMPRESS=  1.00D-11  VARMIN  =  1.00D-07  VARMAX  =  1.00D-03
 THRDOUB =  0.00D+00  THRDIV  =  1.00D-05  THRRED  =  1.00D-07  THRPSP  =  1.00D+00  THRDC   =  1.00D-10  THRCS   =  1.00D-10
 THRNRM  =  1.00D-08  THREQ   =  0.00D+00  THRDE   =  1.00D+00  THRREF  =  1.00D-05  SPARFAC =  1.00D+00  THRDLP  =  1.00D-07
 THRDIA  =  1.00D-10  THRDLS  =  1.00D-07  THRGPS  =  0.00D+00  THRKEX  =  0.00D+00  THRDIS  =  2.00D-01  THRVAR  =  1.00D-10
 THRLOC  =  1.00D-06  THRGAP  =  1.00D-06  THRLOCT = -1.00D+00  THRGAPT = -1.00D+00  THRORB  =  1.00D-06  THRMLTP =  0.00D+00
 THRCPQCI=  1.00D-10  KEXTA   =  0.00D+00  THRCOARS=  0.00D+00  SYMTOL  =  1.00D-06  GRADTOL =  1.00D-06  THROVL  =  1.00D-08
 THRORTH =  1.00D-08  GRID    =  1.00D-08  GRIDMAX =  1.00D-03  DTMAX   =  0.00D+00  THROCCDE=  1.00D-01  THROCCDE=  1.00D-01
 THRPRINT=  2.50D-01


 Variable memory set to 2000000000 words,  buffer space 

 ZSYMEL=NOSYM
 ZUNIT=ANG


Geometry recognized as XYZ

 SETTING NKERNA         =         1.00000000                                  
 SETTING NKERNB         =         1.00000000                                  
 SETTING GF             =     0.00000000D+00                                  
 SETTING SING           =         1.00000000                                  
 SETTING THRDUM         =     1.00000000D-04                                  
 SETTING GRIDTHR        =     1.00000000D-08                                  
 SETTING BASIS          =    AVQZ


 Recomputing integrals since basis changed


 Using spherical harmonics

 Library entry O      S aug-cc-pVQZ          selected for orbital group  1
 Library entry O      P aug-cc-pVQZ          selected for orbital group  1
 Library entry O      D aug-cc-pVQZ          selected for orbital group  1
 Library entry O      F aug-cc-pVQZ          selected for orbital group  1
 Library entry O      G aug-cc-pVQZ          selected for orbital group  1
 Library entry H      S aug-cc-pVQZ          selected for orbital group  2
 Library entry H      P aug-cc-pVQZ          selected for orbital group  2
 Library entry H      D aug-cc-pVQZ          selected for orbital group  2
 Library entry H      F aug-cc-pVQZ          selected for orbital group  2
 Library entry C      S aug-cc-pVQZ          selected for orbital group  3
 Library entry C      P aug-cc-pVQZ          selected for orbital group  3
 Library entry C      D aug-cc-pVQZ          selected for orbital group  3
 Library entry C      F aug-cc-pVQZ          selected for orbital group  3
 Library entry C      G aug-cc-pVQZ          selected for orbital group  3


 PROGRAM * SEWARD (Integral evaluation for generally contracted gaussian basis sets)     Author: Roland Lindh, 1990

 Geometry written to block  1 of record 700


 Point group  C1  



 ATOMIC COORDINATES

 NR  ATOM    CHARGE       X              Y              Z

   1  O13     8.00   -7.660382791    0.177823228    9.189360199
   2  H25     1.00   -6.870288298    1.893127632    9.251154243
   3  H26     1.00   -7.962738971   -0.267018301   10.932821521
   4  C1      6.00   -6.193010455    2.801518980    2.403542658
   5  H41     1.00   -4.656285171    1.699997622    3.119937832
   6  H42     1.00   -5.973046335    4.726205038    2.982932688
   7  H43     1.00   -7.940251230    2.077186956    3.118237078
   8  H44     1.00   -6.176569838    2.685300823    0.384937212

 Bond lengths in Bohr (Angstrom)

 1-2  1.889533542  1-3  1.824543951  4-5  2.021904040  4-6  2.022002335  4-7  2.021953343
     ( 0.999898090)     ( 0.965507079)     ( 1.069945541)     ( 1.069997556)     ( 1.069971630)

 4-8  2.022015060
     ( 1.070004290)

 Bond angles

  2-1-3  105.03277623   5-4-6  109.53398059   5-4-7  109.65604535   5-4-8  108.43490854

  6-4-7  109.49436728   6-4-8  109.86987750   7-4-8  109.83468330

 NUCLEAR CHARGE:                   20
 NUMBER OF PRIMITIVE AOS:         578
 NUMBER OF SYMMETRY AOS:          474
 NUMBER OF CONTRACTIONS:          436   (  436A   )
 NUMBER OF CORE ORBITALS:           2   (    2A   )
 NUMBER OF VALENCE ORBITALS:       14   (   14A   )


 NUCLEAR REPULSION ENERGY   35.91495842


 Basis set:  JKFIT                   
 Basis size:  1104
 Attributes:
 Sphericals:   T
 Basis set:  MP2FIT                  
 Basis size:  1246
 Attributes:
 Sphericals:   T
 Basis set:  RI                      
 Basis size:   730
 Attributes:
 Sphericals:   T
 Basis set:  TDDFT                   
 Basis size:  1246
 Attributes:
 Sphericals:   T

 **********************************************************************************************************************************


 Eigenvalues of metric

         1 0.152E-04 0.219E-04 0.349E-04 0.379E-04 0.621E-04 0.864E-04 0.963E-04 0.991E-04


 Contracted 2-electron integrals neglected if value below      1.0D-14
 AO integral compression algorithm  1   Integral accuracy      1.0D-14

     21140.603 MB (compressed) written to integral file ( 52.7%)

     Node minimum: 4972.872 MB, node maximum: 5637.145 MB


 NUMBER OF SORTED TWO-ELECTRON INTEGRALS: 1134451344.     BUFFER LENGTH:  32768
 NUMBER OF SEGMENTS:  36  SEGMENT LENGTH:   31999984      RECORD LENGTH: 524288

 Memory used in sort:      32.56 MW

 SORT1 READ  5012305700. AND WROTE   914360605. INTEGRALS IN   2632 RECORDS. CPU TIME:   258.69 SEC, REAL TIME:   306.15 SEC
 SORT2 READ  3655606397. AND WROTE  4537853011. INTEGRALS IN  86016 RECORDS. CPU TIME:    17.69 SEC, REAL TIME:   113.19 SEC

 Node minimum:  1134427528.  Node maximum:  1134498978. integrals

 OPERATOR DM      FOR CENTER  0  COORDINATES:    0.000000    0.000000    0.000000


 **********************************************************************************************************************************
 DATASETS  * FILE   NREC   LENGTH (MB)   RECORD NAMES
              1      18       37.12       500      610      700      900      950      970     1000      129      960     1100   
                                          VAR    BASINP    GEOM    SYMINP    ZMAT    AOBASIS   BASIS     P2S    ABASIS      S 
                                         1400     1410     1200     1210     1080     1600     1650     1700   
                                           T        V       H0       H01     AOSYM     SMH    MOLCAS    OPER   

 PROGRAMS   *        TOTAL       INT
 CPU TIMES  *       340.90    340.64
 REAL TIME  *       523.49 SEC
 DISK USED  *        37.64 MB (local),       64.84 GB (total)
 GA USED    *         0.00 MB       (max)       0.00 MB       (current)
 **********************************************************************************************************************************


 PROGRAM * RHF-SCF (CLOSED SHELL)       Authors: W. Meyer, H.-J. Werner


 NUMBER OF ELECTRONS:      10+   10-    SPACE SYMMETRY=1    SPIN SYMMETRY: Singlet 
 CONVERGENCE THRESHOLDS:    1.00E-08 (Density)    1.00E-11 (Energy)
 MAX. NUMBER OF ITERATIONS:       60
 INTERPOLATION TYPE:            DIIS
 INTERPOLATION STEPS:              2 (START)      1 (STEP)
 LEVEL SHIFTS:                  0.00 (CLOSED)  0.00 (OPEN) 



 Orbital guess generated from atomic densities. Full valence occupancy:   16

 Molecular orbital dump at record        2100.2

 Initial occupancy:  10

 ITERATION    DDIFF          GRAD             ENERGY        2-EL.EN.            DIPOLE MOMENTS         DIIS   ORB.
    1      0.000D+00      0.000D+00      -116.21991037    157.573478    0.25817    0.65629    0.91830    0    start
    2      0.000D+00      0.379D-02      -116.26396680    152.521035    0.12488    0.33167    0.54643    1    diag
    3      0.273D-02      0.224D-02      -116.27777281    154.614902    0.15715    0.41275    0.64324    2    diag
    4      0.949D-03      0.331D-03      -116.27843239    154.501543    0.15379    0.40498    0.63542    3    diag
    5      0.202D-03      0.974D-04      -116.27850224    154.496224    0.15307    0.40388    0.63569    4    diag
    6      0.829D-04      0.237D-04      -116.27850619    154.501864    0.15272    0.40314    0.63522    5    diag
    7      0.225D-04      0.483D-05      -116.27850643    154.500218    0.15268    0.40308    0.63527    6    diag
    8      0.673D-05      0.125D-05      -116.27850645    154.500392    0.15265    0.40301    0.63524    7    diag
    9      0.146D-05      0.287D-06      -116.27850645    154.500365    0.15264    0.40299    0.63522    8    diag
   10      0.419D-06      0.334D-07      -116.27850645    154.500366    0.15264    0.40299    0.63522    9    orth
   11      0.434D-07      0.782D-08      -116.27850645    154.500368    0.15264    0.40299    0.63522    9    diag
   12      0.919D-08      0.199D-08      -116.27850645    154.500367    0.15264    0.40299    0.63522    0    orth

 Final occupancy:  10

 !RHF STATE  1.1 Energy              -116.278506452453
 Nuclear energy                        35.91495842
 One-electron energy                 -229.44364857
 Two-electron energy                   77.25018370
 Virial quotient                       -1.00083939
 !RHF STATE  1.1 Dipole moment          0.15263764     0.40298863     0.63521893
 Dipole moment /Debye                   0.38794079     1.02422785     1.61445972

 Orbital energies:

         1.1          2.1          3.1          4.1          5.1          6.1          7.1          8.1          9.1         10.1
    -20.568701   -11.190924    -1.339937    -0.945588    -0.705070    -0.579161    -0.547208    -0.544300    -0.542520    -0.508231

        11.1         12.1
      0.023985     0.035722


 HOMO     10.1    -0.508231 =     -13.8297eV
 LUMO     11.1     0.023985 =       0.6527eV
 LUMO-HOMO         0.532216 =      14.4823eV


 **********************************************************************************************************************************
 DATASETS  * FILE   NREC   LENGTH (MB)   RECORD NAMES
              1      18       37.12       500      610      700      900      950      970     1000      129      960     1100   
                                          VAR    BASINP    GEOM    SYMINP    ZMAT    AOBASIS   BASIS     P2S    ABASIS      S 
                                         1400     1410     1200     1210     1080     1600     1650     1700   
                                           T        V       H0       H01     AOSYM     SMH    MOLCAS    OPER   

              2       4        6.75       700     1000      520     2100   
                                         GEOM     BASIS   MCVARS     RHF  

 PROGRAMS   *        TOTAL    HF-SCF       INT
 CPU TIMES  *       555.92    215.02    340.64
 REAL TIME  *       757.93 SEC
 DISK USED  *        57.70 MB (local),       64.92 GB (total)
 SF USED    *         0.76 MB
 GA USED    *         0.00 MB       (max)       0.00 MB       (current)
 **********************************************************************************************************************************

 Basis set:  JKFIT                   
 Basis size:  1104
 Attributes:
 Sphericals:   T
 Basis set:  MP2FIT                  
 Basis size:  1246
 Attributes:
 Sphericals:   T
 Basis set:  RI                      
 Basis size:   730
 Attributes:
 Sphericals:   T
 Basis set:  TDDFT                   
 Basis size:  1246
 Attributes:
 Sphericals:   T

 PROGRAM * CCSD (Closed-shell coupled cluster)     Authors: C. Hampel, H.-J. Werner, 1991, M. Deegan, P.J. Knowles, 1992

                                  CCSD-F12 implementation by  H.-J. Werner, 2007

                   Density fitting integral evaluation by F.R. Manby, 2003,2007, G. Knizia, 2010



 Convergence thresholds:  THRVAR = 1.00D-08  THRDEN = 1.00D-10

 CCSD(T)     terms to be evaluated (factor= 1.000)


 Number of core orbitals:           2 (   2 )
 Number of closed-shell orbitals:   8 (   8 )
 Number of external orbitals:     426 ( 426 )

 Molecular orbitals read from record     2100.2  Type=RHF/CANONICAL (state 1.1)

 MP2-F12 correlation treatment (H.-J. Werner, 2006)
 ==================================================

 Using MP2-F12 with ansatz 3C(FIX)

 Using projected zeroth-order Hamiltonian (+Z)

 FOCKRIB=T FOCKRIC=T FOCKRIP=T CABSP=T CABSA=T CABSK=T CABSF=T GBC=F EBC=F DMAT=T NOFIK=T NOPAO=1 SOLVE=-1  USEPAO=0
 EXCH_A= T EXCH_B= F EXCH_C= F EXCH_P= F

 Geminal basis:    OPTFULL  GEM_TYPE=SLATER  BETA=1.0  NGEM=6

 Optimizing Gaussian exponents for each gem_beta

 Geminal optimization for beta= 1.0000
 Weight function:   m=0, omega= 1.4646

 Augmented Hessian optimization of geminal fit. Trust ratio= 0.40000
 Convergence reached after   2 iterations. Final gradient= 7.85D-16, Step= 4.26D-06, Delta= 1.28D-09

 Alpha:                 0.19532     0.81920     2.85917     9.50073    35.69989   197.79328
 Coeff:                 0.27070     0.30552     0.18297     0.10986     0.06810     0.04224


 All pairs explicitly correlated. Number of r12-pairs:           36

 Excluding core orbitals from MO domains

 AO(A)-basis ORBITAL           loaded. Number of functions:     436
 RI(R)-basis RI                loaded. Number of functions:     730
 DF-basis JKFIT                loaded. Number of functions:    1104

 Screening thresholds:   THRAO=  1.00D-10  THRMO=  1.00D-09  THRPROD=  1.00D-09
                         THRSW=  1.00D-05  THROV=  1.00D-12  THRAOF12= 1.00D-10

 CPU time for Fock operators                     12.16 sec

 Construction of ABS:
 Smallest eigenvalue of S          2.27E-04  (threshold= 1.00E-08)
 Ratio eigmin/eigmax               3.94E-05  (threshold= 1.00E-09)
 Smallest eigenvalue of S kept     2.27E-04  (threshold= 2.27E-04, 0 functions deleted, 730 kept)

 Construction of CABS:
 Smallest eigenvalue of S          1.54E-08  (threshold= 1.00E-08)
 Ratio eigmin/eigmax               1.54E-08  (threshold= 1.00E-09)
 Smallest eigenvalue of S kept     1.54E-08  (threshold= 1.54E-08, 0 functions deleted, 730 kept)

 CPU time for CABS singles                        2.19 sec

 CABS-singles contribution of  -0.00052394 patched into reference energy.
 New reference energy        -116.27903040

 AO(A)-basis ORBITAL           loaded. Number of functions:     436
 RI(R)-basis RI                loaded. Number of functions:     730
 DF-basis MP2FIT               loaded. Number of functions:    1246

 Screening thresholds:   THRAO=  1.00D-10  THRMO=  1.00D-09  THRPROD=  1.00D-09
                         THRSW=  1.00D-05  THROV=  1.00D-12  THRAOF12= 1.00D-10

 CPU time for 3-index integral evaluation        18.96 sec
 CPU time for first  half transformation          4.34 sec ( 2959.2 MFLOP/sec)
 CPU time for second half transformation          0.09 sec ( 1706.8 MFLOP/sec)
 CPU time for sorting                             0.22 sec
 CPU time for fitting                             1.74 sec ( 4268.5 MFLOP/sec)
 CPU time for tilde quantities                    2.34 sec ( 4304.6 MFLOP/sec)
 CPU time for assembly                           16.30 sec ( 4350.8 MFLOP/sec)
 CPU time for tranop_f12                         16.02 sec ( 4302.4 MFLOP/sec)
 CPU time for f12 integrals (total)              82.37 sec, Elapsed time:     84.65 sec
 F12-matrices built in  4 passes.
 F12-matrices built in  4 passes.
 F12-matrices built in  4 passes.
 F12-matrices built in  4 passes.
 FC-matrix built in  4 passes.
 CPU time for f12 matrices (total)                5.88 sec, Elapsed time:      6.00 sec

 Diagonal F12 approximation with fixed coefficients:  TSING= 0.500,  TTRIP= 0.250 (scaled by -1/beta)

 DF-MP2-F12 energy corrections:
 ==============================
 Approx.                                    Singlet             Triplet             Total
 DF-MP2-F12/3*C(DX,FIX)                -0.021231743530     -0.002109111741     -0.023340855271
 DF-MP2-F12/3*C(FIX)                   -0.019166898746     -0.001555235370     -0.020722134116
 DF-MP2-F12/3C(FIX)                    -0.019184412676     -0.001606243499     -0.020790656174

 DF-MP2-F12 correlation energies:
 ================================
 Approx.                                    Singlet             Triplet             Ecorr            Total Energy
 DF-MP2                                -0.340926182579     -0.158364562302     -0.499290744881   -116.778321141237
 DF-MP2-F12/3*C(DX,FIX)                -0.362157926109     -0.160473674043     -0.522631600152   -116.801661996508
 DF-MP2-F12/3*C(FIX)                   -0.360093081325     -0.159919797672     -0.520012878997   -116.799043275353
 DF-MP2-F12/3C(FIX)                    -0.360110595255     -0.159970805801     -0.520081401055   -116.799111797411

 SCS-DF-MP2 energies (F_SING= 1.20000  F_TRIP= 0.62222  F_PARALLEL= 0.33333):
 ============================================================================
 SCS-DF-MP2                            -0.507649368972   -116.786679765328
 SCS-DF-MP2-F12/3*C(DX,FIX)            -0.534439797402   -116.813470193758
 SCS-DF-MP2-F12/3*C(FIX)               -0.531617349475   -116.810647745831
 SCS-DF-MP2-F12/3C(FIX)                -0.531670104582   -116.810700500938
 Symmetry transformation completed.

 Number of N-1 electron functions:               8
 Number of N-2 electron functions:              36
 Number of singly external CSFs:              3408
 Number of doubly external CSFs:           5808936
 Total number of CSFs:                     5812345

 Pair and operator lists are different

 Length of J-op  integral file:               0.75 GB
 Length of K-op  integral file:               0.98 GB
 Length of 3-ext integral record:             0.00 MB

 Memory could be reduced to 828.63 Mwords without degradation in triples

 Integral transformation finished. Total CPU: 337.99 sec, npass=  1  Memory used: 389.45 MW

 Reference energy:                   -116.27903040

 Adding F12 terms to K(Cij), methodcc=6,  factor= 1.0

 ITER.      SQ.NORM     CORR.ENERGY   TOTAL ENERGY   ENERGY CHANGE        DEN1      VAR(S)    VAR(P)  DIIS     TIME  TIME/IT
   1      1.13422355    -0.51287174  -116.79190213    -0.01357154    -0.00159482  0.14D-02  0.20D-02  1  1   607.61   160.02
   2      1.14252545    -0.51351208  -116.79254247    -0.00064034    -0.01003454  0.30D-04  0.24D-03  2  2   765.14   160.49
   3      1.14558608    -0.51370721  -116.79273761    -0.00019514    -0.00215327  0.13D-04  0.14D-04  3  3   923.43   160.57
   4      1.14657918    -0.51372745  -116.79275784    -0.00002023    -0.00059058  0.69D-06  0.13D-05  4  4  1082.03   160.63
   5      1.14674989    -0.51372717  -116.79275757     0.00000028    -0.00004000  0.20D-06  0.90D-07  5  5  1240.70   160.72
   6      1.14679370    -0.51372434  -116.79275473     0.00000283    -0.00000630  0.22D-07  0.77D-08  6  6  1399.23   160.69
   7      1.14680549    -0.51372306  -116.79275346     0.00000127    -0.00000358  0.18D-08  0.74D-09  6  1  1557.62   160.66
   8      1.14680725    -0.51372312  -116.79275352    -0.00000006     0.00000042  0.26D-09  0.82D-10  6  3  1715.60   160.64
   9      1.14680829    -0.51372305  -116.79275345     0.00000007    -0.00000031  0.17D-10  0.14D-10  6  2  1873.78   160.59
  10      1.14680840    -0.51372305  -116.79275345     0.00000000     0.00000006  0.23D-11  0.15D-11  6  4  2032.78   160.64
  11      1.14680841    -0.51372305  -116.79275344     0.00000000     0.00000003  0.38D-12  0.21D-12  6  5  2191.01   160.65
  12      1.14680839    -0.51372305  -116.79275344    -0.00000000     0.00000001  0.78D-13  0.28D-13  6  6  2348.84   160.59
  13      1.14680837    -0.51372305  -116.79275345    -0.00000000     0.00000001  0.14D-13  0.38D-14  6  1  2507.09   160.61
  14      1.14680836    -0.51372305  -116.79275345    -0.00000000     0.00000000  0.20D-14  0.89D-15  6  3  2664.90   160.59
  15      1.14680836    -0.51372305  -116.79275345    -0.00000000     0.00000000  0.23D-15  0.13D-15  6  2  2823.00   160.55
  16      1.14680836    -0.51372305  -116.79275345    -0.00000000    -0.00000000  0.22D-16  0.16D-16  6  4  2981.23   160.53
  17      1.14680836    -0.51372305  -116.79275345     0.00000000    -0.00000000  0.34D-17  0.24D-17  6  5  3139.34   160.50

 Norm of t1 vector:      0.04991671      S-energy:    -0.00000000      T1 diagnostic:  0.00882411
                                                                       D1 diagnostic:  0.01907282

 Adding energy correction from Wij-K(Fij), methodcc=6  factor= 1.0

  CCSD correlation energy              -0.513723050729
  MP2-F12 correction (uncoupled)       -0.020204017069
  C*T doubles correction               -0.000560633576
  f12b correction                       0.004658162814

   CPU time for triples:   2033.65 sec for i =  1 -  7 /  8 (~  68.8 % done)
   CPU time for triples:    816.12 sec for i =  8 -  8 /  8 (  100.0 % done)

 Total CPU time for triples:   2854.93 sec

  Ecorr(MP2)                           -0.499300196268
  Ecorr(MP2-F12)                       -0.520090852443
  Scale factor for triples energy       1.041639591432


 RESULTS
 =======

  Reference energy                   -116.278506452452
  F12 singles correction               -0.000523943904

 F12 singles corrections added to reference energy

  New reference energy               -116.279030396356

  F12a singlet correction              -0.019147714782
  F12a triplet correction              -0.001616935863
  F12a total correction                -0.020764650645

 F12a corrections for ansatz F12/3C(FIX) added to CCSD energy

  CCSD-F12a singlet pair energy        -0.388112298708
  CCSD-F12a triplet pair energy        -0.146375402447
  CCSD-F12a correlation energy         -0.534487701374

  Triples (T) contribution (scaled)    -0.017119849520
  Total correlation energy             -0.551607550894

  CCSD-F12a total energy             -116.813518097730
  CCSD[T]-F12a energy                -116.831207664157
  CCSD-T-F12a energy                 -116.830423125224
 !CCSD(T)-F12a total energy          -116.830637947250

 F12b corrections for ansatz F12/3C(FIX) added to CCSD(T)-F12a energy

  CCSD-F12b singlet pair energy        -0.383669154376
  CCSD-F12b triplet pair energy        -0.146160383965
  CCSD-F12b correlation energy         -0.529829538561

  Triples (T) contribution (scaled)    -0.017119849520
  Total correlation energy             -0.546949388080

  CCSD-F12b total energy             -116.808859934917
  CCSD[T]-F12b energy                -116.826549501343
  CCSD-T-F12b energy                 -116.825764962410
 !CCSD(T)-F12b total energy          -116.825979784436

 Timing summary (sec):

 STEP                 CPU(USER)    SYS     CPU(TOT)    WALL
 Transformation        339.21      8.88    348.09    349.76
 CCSD iterations      2690.24     29.06   2719.30   2728.76
 Triples              2854.93      5.92   2860.85   2865.20
 MP2-F12               110.00      2.74    112.74    112.97
 F12b energy           134.92      1.07    135.99    136.16

 Program statistics:

 Available memory in ccsd:              1999999554
 Min. memory needed in ccsd:              16971337
 Max. memory used in ccsd:                21987113
 Max. memory used in cckext:              15122080 (18 integral passes)



 **********************************************************************************************************************************
 DATASETS  * FILE   NREC   LENGTH (MB)   RECORD NAMES
              1      19     2602.04       500      610      700      900      950      970     1000      129      960     1100   
                                          VAR    BASINP    GEOM    SYMINP    ZMAT    AOBASIS   BASIS     P2S    ABASIS      S 
                                         1400     1410     1200     1210     1080     1600     1650     1700     1380   
                                           T        V       H0       H01     AOSYM     SMH    MOLCAS    OPER     JKOP   

              2       6       10.56       700     1000      520     2100     7360     7350   
                                         GEOM     BASIS   MCVARS     RHF    F12ABS    EF12   

 PROGRAMS   *        TOTAL   CCSD(T)    HF-SCF       INT
 CPU TIMES  *      6685.49   6129.56    215.02    340.64
 REAL TIME  *      6951.56 SEC
 DISK USED  *         3.24 GB (local),       75.77 GB (total)
 SF USED    *         5.12 GB
 GA USED    *         4.87 MB       (max)       0.00 MB       (current)
 **********************************************************************************************************************************

 Running procedure: SET_MONOMER1

 Dummy atoms: C1  H41  H42  H43  H44


 Recomputing one-electron integrals since nuclear charges changed


 PROGRAM * SEWARD (Integral evaluation for generally contracted gaussian basis sets)     Author: Roland Lindh, 1990

 Geometry written to block  1 of record 700


 Point group  C1  



 ATOMIC COORDINATES

 NR  ATOM    CHARGE       X              Y              Z

   1  O13     8.00   -7.660382791    0.177823228    9.189360199
   2  H25     1.00   -6.870288298    1.893127632    9.251154243
   3  H26     1.00   -7.962738971   -0.267018301   10.932821521
   4  C1      0.00   -6.193010455    2.801518980    2.403542658
   5  H41     0.00   -4.656285171    1.699997622    3.119937832
   6  H42     0.00   -5.973046335    4.726205038    2.982932688
   7  H43     0.00   -7.940251230    2.077186956    3.118237078
   8  H44     0.00   -6.176569838    2.685300823    0.384937212

 Bond lengths in Bohr (Angstrom)

 1-2  1.889533542  1-3  1.824543951  4-5  2.021904040  4-6  2.022002335  4-7  2.021953343
     ( 0.999898090)     ( 0.965507079)     ( 1.069945541)     ( 1.069997556)     ( 1.069971630)

 4-8  2.022015060
     ( 1.070004290)

 Bond angles

  2-1-3  105.03277623   5-4-6  109.53398059   5-4-7  109.65604535   5-4-8  108.43490854

  6-4-7  109.49436728   6-4-8  109.86987750   7-4-8  109.83468330

 NUCLEAR CHARGE:                   10
 NUMBER OF PRIMITIVE AOS:         578
 NUMBER OF SYMMETRY AOS:          474
 NUMBER OF CONTRACTIONS:          436   (  436A   )
 NUMBER OF CORE ORBITALS:           1   (    1A   )
 NUMBER OF VALENCE ORBITALS:        6   (    6A   )

 MOLECULE CHANGED: INITIALIZING OCCUPATION AND DUMP RECORDS


 NUCLEAR REPULSION ENERGY    8.95777847

 Basis set:  JKFIT                   
 Basis size:  1104
 Attributes:
 Sphericals:   T
 Basis set:  MP2FIT                  
 Basis size:  1246
 Attributes:
 Sphericals:   T
 Basis set:  RI                      
 Basis size:   730
 Attributes:
 Sphericals:   T
 Basis set:  TDDFT                   
 Basis size:  1246
 Attributes:
 Sphericals:   T

 Eigenvalues of metric

         1 0.152E-04 0.219E-04 0.349E-04 0.379E-04 0.621E-04 0.864E-04 0.963E-04 0.991E-04


 Contracted 2-electron integrals neglected if value below      1.0D-14

 OPERATOR DM      FOR CENTER  0  COORDINATES:    0.000000    0.000000    0.000000


 **********************************************************************************************************************************
 DATASETS  * FILE   NREC   LENGTH (MB)   RECORD NAMES
              1      18       37.12       500      610      700      900      950      970     1000      129      960     1100   
                                          VAR    BASINP    GEOM    SYMINP    ZMAT    AOBASIS   BASIS     P2S    ABASIS      S 
                                         1400     1410     1200     1210     1080     1600     1650     1700   
                                           T        V       H0       H01     AOSYM     SMH    MOLCAS    OPER   

              2       7       10.59       700     1000      520     2100     7360     7350      200   
                                         GEOM     BASIS   MCVARS     RHF    F12ABS    EF12    OPTIONS    

 PROGRAMS   *        TOTAL       INT   CCSD(T)    HF-SCF       INT
 CPU TIMES  *      6685.92      0.42   6129.56    215.02    340.64
 REAL TIME  *      6952.53 SEC
 DISK USED  *         3.24 GB (local),       75.77 GB (total)
 SF USED    *         5.12 GB
 GA USED    *         4.87 MB       (max)       0.00 MB       (current)
 **********************************************************************************************************************************


 PROGRAM * RHF-SCF (CLOSED SHELL)       Authors: W. Meyer, H.-J. Werner


 NUMBER OF ELECTRONS:       5+    5-    SPACE SYMMETRY=1    SPIN SYMMETRY: Singlet 
 CONVERGENCE THRESHOLDS:    1.00E-08 (Density)    1.00E-11 (Energy)
 MAX. NUMBER OF ITERATIONS:       60
 INTERPOLATION TYPE:            DIIS
 INTERPOLATION STEPS:              2 (START)      1 (STEP)
 LEVEL SHIFTS:                  0.00 (CLOSED)  0.00 (OPEN) 



 Orbital guess generated from atomic densities. Full valence occupancy:    7

 Molecular orbital dump at record        2101.2

 Initial occupancy:   5

 ITERATION    DDIFF          GRAD             ENERGY        2-EL.EN.            DIPOLE MOMENTS         DIIS   ORB.
    1      0.000D+00      0.000D+00       -76.02371796     77.353677    0.25442    0.65997    0.91910    0    start
    2      0.000D+00      0.467D-02       -76.05055720     73.679190    0.14297    0.37326    0.53690    1    diag
    3      0.222D-02      0.299D-02       -76.06229819     75.313472    0.16998    0.44325    0.63370    2    diag
    4      0.844D-03      0.280D-03       -76.06249652     75.221944    0.16807    0.43878    0.63081    3    diag
    5      0.106D-03      0.792D-04       -76.06251854     75.236494    0.16732    0.43703    0.62979    4    diag
    6      0.340D-04      0.160D-04       -76.06252000     75.235411    0.16712    0.43656    0.62961    5    diag
    7      0.886D-05      0.327D-05       -76.06252008     75.235558    0.16706    0.43643    0.62955    6    diag
    8      0.242D-05      0.606D-06       -76.06252008     75.235542    0.16704    0.43640    0.62952    7    diag
    9      0.439D-06      0.825D-07       -76.06252008     75.235533    0.16704    0.43639    0.62951    8    diag
   10      0.505D-07      0.197D-07       -76.06252008     75.235535    0.16704    0.43639    0.62951    9    orth
   11      0.123D-07      0.457D-08       -76.06252008     75.235535    0.16704    0.43639    0.62951    9    diag
   12      0.311D-08      0.897D-09       -76.06252008     75.235535    0.16704    0.43639    0.62951    0    orth

 Final occupancy:   5

 !RHF STATE  1.1 Energy               -76.062520080854
 Nuclear energy                         8.95777847
 One-electron energy                 -122.63806614
 Two-electron energy                   37.61776759
 Virial quotient                       -1.00216007
 !RHF STATE  1.1 Dipole moment          0.16704154     0.43639302     0.62951383
 Dipole moment /Debye                   0.42454945     1.10912777     1.59995975

 Orbital energies:

         1.1          2.1          3.1          4.1          5.1          6.1          7.1
    -20.568824    -1.340005    -0.705128    -0.578990    -0.508318     0.020622     0.032657


 HOMO      5.1    -0.508318 =     -13.8320eV
 LUMO      6.1     0.020622 =       0.5612eV
 LUMO-HOMO         0.528941 =      14.3932eV


 **********************************************************************************************************************************
 DATASETS  * FILE   NREC   LENGTH (MB)   RECORD NAMES
              1      18       37.12       500      610      700      900      950      970     1000      129      960     1100   
                                          VAR    BASINP    GEOM    SYMINP    ZMAT    AOBASIS   BASIS     P2S    ABASIS      S 
                                         1400     1410     1200     1210     1080     1600     1650     1700   
                                           T        V       H0       H01     AOSYM     SMH    MOLCAS    OPER   

              2       8       17.39       700     1000      520     2100     7360     7350      200     2101   
                                         GEOM     BASIS   MCVARS     RHF    F12ABS    EF12    OPTIONS    RHF  

 PROGRAMS   *        TOTAL    HF-SCF       INT   CCSD(T)    HF-SCF       INT
 CPU TIMES  *      6903.77    217.85      0.42   6129.56    215.02    340.64
 REAL TIME  *      7189.28 SEC
 DISK USED  *         3.24 GB (local),       75.77 GB (total)
 SF USED    *         5.12 GB
 GA USED    *         4.87 MB       (max)       0.00 MB       (current)
 **********************************************************************************************************************************

 Basis set:  JKFIT                   
 Basis size:  1104
 Attributes:
 Sphericals:   T
 Basis set:  MP2FIT                  
 Basis size:  1246
 Attributes:
 Sphericals:   T
 Basis set:  RI                      
 Basis size:   730
 Attributes:
 Sphericals:   T
 Basis set:  TDDFT                   
 Basis size:  1246
 Attributes:
 Sphericals:   T

 PROGRAM * CCSD (Closed-shell coupled cluster)     Authors: C. Hampel, H.-J. Werner, 1991, M. Deegan, P.J. Knowles, 1992

                                  CCSD-F12 implementation by  H.-J. Werner, 2007

                   Density fitting integral evaluation by F.R. Manby, 2003,2007, G. Knizia, 2010



 Convergence thresholds:  THRVAR = 1.00D-08  THRDEN = 1.00D-10

 CCSD(T)     terms to be evaluated (factor= 1.000)


 Number of core orbitals:           1 (   1 )
 Number of closed-shell orbitals:   4 (   4 )
 Number of external orbitals:     431 ( 431 )

 Molecular orbitals read from record     2101.2  Type=RHF/CANONICAL (state 1.1)

 MP2-F12 correlation treatment (H.-J. Werner, 2006)
 ==================================================

 Using MP2-F12 with ansatz 3C(FIX)

 Using projected zeroth-order Hamiltonian (+Z)

 FOCKRIB=T FOCKRIC=T FOCKRIP=T CABSP=T CABSA=T CABSK=T CABSF=T GBC=F EBC=F DMAT=T NOFIK=T NOPAO=1 SOLVE=-1  USEPAO=0
 EXCH_A= T EXCH_B= F EXCH_C= F EXCH_P= F

 Geminal basis:    OPTFULL  GEM_TYPE=SLATER  BETA=1.0  NGEM=6

 Optimizing Gaussian exponents for each gem_beta

 Geminal optimization for beta= 1.0000
 Weight function:   m=0, omega= 1.4646

 Augmented Hessian optimization of geminal fit. Trust ratio= 0.40000
 Convergence reached after   2 iterations. Final gradient= 8.31D-16, Step= 4.24D-06, Delta= 1.28D-09

 Alpha:                 0.19532     0.81920     2.85917     9.50073    35.69989   197.79328
 Coeff:                 0.27070     0.30552     0.18297     0.10986     0.06810     0.04224


 All pairs explicitly correlated. Number of r12-pairs:           10

 Excluding core orbitals from MO domains

 AO(A)-basis ORBITAL           loaded. Number of functions:     436
 RI(R)-basis RI                loaded. Number of functions:     730
 DF-basis JKFIT                loaded. Number of functions:    1104

 Screening thresholds:   THRAO=  1.00D-10  THRMO=  1.00D-09  THRPROD=  1.00D-09
                         THRSW=  1.00D-05  THROV=  1.00D-12  THRAOF12= 1.00D-10

 CPU time for Fock operators                     10.09 sec

 Construction of ABS:
 Smallest eigenvalue of S          2.27E-04  (threshold= 1.00E-08)
 Ratio eigmin/eigmax               3.94E-05  (threshold= 1.00E-09)
 Smallest eigenvalue of S kept     2.27E-04  (threshold= 2.27E-04, 0 functions deleted, 730 kept)

 Construction of CABS:
 Smallest eigenvalue of S          1.54E-08  (threshold= 1.00E-08)
 Ratio eigmin/eigmax               1.54E-08  (threshold= 1.00E-09)
 Smallest eigenvalue of S kept     1.54E-08  (threshold= 1.54E-08, 0 functions deleted, 730 kept)

 CPU time for CABS singles                        2.32 sec

 CABS-singles contribution of  -0.00028015 patched into reference energy.
 New reference energy         -76.06280023

 AO(A)-basis ORBITAL           loaded. Number of functions:     436
 RI(R)-basis RI                loaded. Number of functions:     730
 DF-basis MP2FIT               loaded. Number of functions:    1246

 Screening thresholds:   THRAO=  1.00D-10  THRMO=  1.00D-09  THRPROD=  1.00D-09
                         THRSW=  1.00D-05  THROV=  1.00D-12  THRAOF12= 1.00D-10

 CPU time for 3-index integral evaluation        18.71 sec
 CPU time for first  half transformation          3.50 sec ( 1847.0 MFLOP/sec)
 CPU time for second half transformation          0.05 sec (  745.8 MFLOP/sec)
 CPU time for sorting                             0.05 sec
 CPU time for fitting                             1.41 sec ( 4186.3 MFLOP/sec)
 CPU time for tilde quantities                    1.91 sec ( 4499.9 MFLOP/sec)
 CPU time for assembly                            4.96 sec ( 4230.5 MFLOP/sec)
 CPU time for tranop_f12                          4.92 sec ( 3446.8 MFLOP/sec)
 CPU time for f12 integrals (total)              42.83 sec, Elapsed time:     44.73 sec
 F12-matrices built in  4 passes.
 F12-matrices built in  4 passes.
 F12-matrices built in  4 passes.
 F12-matrices built in  4 passes.
 FC-matrix built in  4 passes.
 CPU time for f12 matrices (total)                1.72 sec, Elapsed time:      1.74 sec

 Diagonal F12 approximation with fixed coefficients:  TSING= 0.500,  TTRIP= 0.250 (scaled by -1/beta)

 DF-MP2-F12 energy corrections:
 ==============================
 Approx.                                    Singlet             Triplet             Total
 DF-MP2-F12/3*C(DX,FIX)                -0.013727912988     -0.001531207177     -0.015259120165
 DF-MP2-F12/3*C(FIX)                   -0.012110240343     -0.001077964538     -0.013188204881
 DF-MP2-F12/3C(FIX)                    -0.012098677583     -0.001115008998     -0.013213686580

 DF-MP2-F12 correlation energies:
 ================================
 Approx.                                    Singlet             Triplet             Ecorr            Total Energy
 DF-MP2                                -0.186372891369     -0.101481556534     -0.287854447903    -76.350654674468
 DF-MP2-F12/3*C(DX,FIX)                -0.200100804357     -0.103012763710     -0.303113568068    -76.365913794633
 DF-MP2-F12/3*C(FIX)                   -0.198483131713     -0.102559521072     -0.301042652784    -76.363842879350
 DF-MP2-F12/3C(FIX)                    -0.198471568952     -0.102596565531     -0.301068134483    -76.363868361049

 SCS-DF-MP2 energies (F_SING= 1.20000  F_TRIP= 0.62222  F_PARALLEL= 0.33333):
 ============================================================================
 SCS-DF-MP2                            -0.286791549264    -76.349591775830
 SCS-DF-MP2-F12/3*C(DX,FIX)            -0.304217795982    -76.367018022548
 SCS-DF-MP2-F12/3*C(FIX)               -0.301994571166    -76.364794797732
 SCS-DF-MP2-F12/3C(FIX)                -0.302003745740    -76.364803972305
 Symmetry transformation completed.

 Number of N-1 electron functions:               4
 Number of N-2 electron functions:              10
 Number of singly external CSFs:              1724
 Number of doubly external CSFs:           1486950
 Total number of CSFs:                     1488675

 Pair and operator lists are different

 Length of J-op  integral file:             203.65 MB
 Length of K-op  integral file:             338.08 MB
 Length of 3-ext integral record:             0.00 MB

 Memory could be reduced to 526.20 Mwords without degradation in triples

 Integral transformation finished. Total CPU: 165.99 sec, npass=  1  Memory used: 214.75 MW

 Reference energy:                    -76.06280023

 Adding F12 terms to K(Cij), methodcc=6,  factor= 1.0

 ITER.      SQ.NORM     CORR.ENERGY   TOTAL ENERGY   ENERGY CHANGE        DEN1      VAR(S)    VAR(P)  DIIS     TIME  TIME/IT
   1      1.06379072    -0.28725622   -76.35005645     0.00060233     0.00682391  0.80D-03  0.11D-02  1  1   275.94    49.34
   2      1.06736798    -0.28705445   -76.34985467     0.00020177    -0.00491804  0.13D-04  0.12D-03  2  2   323.13    49.45
   3      1.06862070    -0.28715349   -76.34995372    -0.00009905    -0.00082916  0.10D-04  0.77D-05  3  3   370.38    49.30
   4      1.06918912    -0.28716874   -76.34996897    -0.00001525    -0.00034710  0.53D-06  0.73D-06  4  4   418.67    49.42
   5      1.06929660    -0.28716707   -76.34996730     0.00000167    -0.00002919  0.17D-06  0.54D-07  5  5   467.08    49.51
   6      1.06933006    -0.28716489   -76.34996512     0.00000218    -0.00000428  0.18D-07  0.43D-08  6  6   515.22    49.53
   7      1.06933924    -0.28716427   -76.34996449     0.00000062    -0.00000195  0.11D-08  0.53D-09  6  1   563.46    49.56
   8      1.06934077    -0.28716426   -76.34996448     0.00000001     0.00000006  0.15D-09  0.59D-10  6  2   611.67    49.57
   9      1.06934130    -0.28716424   -76.34996447     0.00000002     0.00000002  0.13D-10  0.89D-11  6  3   659.78    49.57
  10      1.06934140    -0.28716424   -76.34996446     0.00000000     0.00000002  0.19D-11  0.82D-12  6  4   707.92    49.57
  11      1.06934139    -0.28716424   -76.34996446    -0.00000000     0.00000002  0.39D-12  0.14D-12  6  5   756.11    49.57
  12      1.06934139    -0.28716424   -76.34996446    -0.00000000     0.00000000  0.77D-13  0.20D-13  6  6   804.12    49.58
  13      1.06934138    -0.28716424   -76.34996447    -0.00000000     0.00000000  0.11D-13  0.32D-14  6  1   852.25    49.58
  14      1.06934138    -0.28716424   -76.34996447    -0.00000000     0.00000000  0.13D-14  0.74D-15  6  2   900.40    49.59
  15      1.06934137    -0.28716424   -76.34996447    -0.00000000     0.00000000  0.15D-15  0.95D-16  6  3   948.62    49.59
  16      1.06934137    -0.28716424   -76.34996447    -0.00000000     0.00000000  0.17D-16  0.12D-16  6  4   996.41    49.58

 Norm of t1 vector:      0.03711790      S-energy:    -0.00000000      T1 diagnostic:  0.00927947
                                                                       D1 diagnostic:  0.01885586

 Adding energy correction from Wij-K(Fij), methodcc=6  factor= 1.0

  CCSD correlation energy              -0.287164239624
  MP2-F12 correction (uncoupled)       -0.012752772256
  C*T doubles correction               -0.000432764885
  f12b correction                       0.002717360760


 Total CPU time for triples:    431.04 sec

  Ecorr(MP2)                           -0.287858552692
  Ecorr(MP2-F12)                       -0.301072239272
  Scale factor for triples energy       1.045903401017


 RESULTS
 =======

  Reference energy                    -76.062520080854
  F12 singles correction               -0.000280145711

 F12 singles corrections added to reference energy

  New reference energy                -76.062800226566

  F12a singlet correction              -0.012061933275
  F12a triplet correction              -0.001123603866
  F12a total correction                -0.013185537142

 F12a corrections for ansatz F12/3C(FIX) added to CCSD energy

  CCSD-F12a singlet pair energy        -0.209582117463
  CCSD-F12a triplet pair energy        -0.090767659259
  CCSD-F12a correlation energy         -0.300349776765

  Triples (T) contribution (scaled)    -0.009974832169
  Total correlation energy             -0.310324608934

  CCSD-F12a total energy              -76.363150003331
  CCSD[T]-F12a energy                 -76.373455684457
  CCSD-T-F12a energy                  -76.372980955181
 !CCSD(T)-F12a total energy           -76.373124835500

 F12b corrections for ansatz F12/3C(FIX) added to CCSD(T)-F12a energy

  CCSD-F12b singlet pair energy        -0.207011609498
  CCSD-F12b triplet pair energy        -0.090620806464
  CCSD-F12b correlation energy         -0.297632416005

  Triples (T) contribution (scaled)    -0.009974832169
  Total correlation energy             -0.307607248174

  CCSD-F12b total energy              -76.360432642570
  CCSD[T]-F12b energy                 -76.370738323697
  CCSD-T-F12b energy                  -76.370263594420
 !CCSD(T)-F12b total energy           -76.370407474739

 Timing summary (sec):

 STEP                 CPU(USER)    SYS     CPU(TOT)    WALL
 Transformation        166.38      4.74    171.12    173.33
 CCSD iterations       767.86     22.88    790.74    793.42
 Triples               431.04      0.90    431.94    432.57
 MP2-F12                62.26      1.62     63.88     64.53
 F12b energy            44.11      1.18     45.29     45.35

 Program statistics:

 Available memory in ccsd:              1999999871
 Min. memory needed in ccsd:               6763924
 Max. memory used in ccsd:                 7862874
 Max. memory used in cckext:               5171974 (17 integral passes)



 **********************************************************************************************************************************
 DATASETS  * FILE   NREC   LENGTH (MB)   RECORD NAMES
              1      19     1346.98       500      610      700      900      950      970     1000      129      960     1100   
                                          VAR    BASINP    GEOM    SYMINP    ZMAT    AOBASIS   BASIS     P2S    ABASIS      S 
                                         1400     1410     1200     1210     1080     1600     1650     1700     1380   
                                           T        V       H0       H01     AOSYM     SMH    MOLCAS    OPER     JKOP   

              2       8       17.39       700     1000      520     2100     7360     7350      200     2101   
                                         GEOM     BASIS   MCVARS     RHF    F12ABS    EF12    OPTIONS    RHF  

 PROGRAMS   *        TOTAL   CCSD(T)    HF-SCF       INT   CCSD(T)    HF-SCF       INT
 CPU TIMES  *      8375.70   1471.92    217.85      0.42   6129.56    215.02    340.64
 REAL TIME  *      8699.23 SEC
 DISK USED  *         3.24 GB (local),       75.77 GB (total)
 SF USED    *         5.12 GB
 GA USED    *         4.87 MB       (max)       0.00 MB       (current)
 **********************************************************************************************************************************

 Running procedure: SET_MONOMER2

 Dummy atoms: O13  H25  H26


 Recomputing one-electron integrals since nuclear charges changed


 PROGRAM * SEWARD (Integral evaluation for generally contracted gaussian basis sets)     Author: Roland Lindh, 1990

 Geometry written to block  1 of record 700


 Point group  C1  



 ATOMIC COORDINATES

 NR  ATOM    CHARGE       X              Y              Z

   1  O13     0.00   -7.660382791    0.177823228    9.189360199
   2  H25     0.00   -6.870288298    1.893127632    9.251154243
   3  H26     0.00   -7.962738971   -0.267018301   10.932821521
   4  C1      6.00   -6.193010455    2.801518980    2.403542658
   5  H41     1.00   -4.656285171    1.699997622    3.119937832
   6  H42     1.00   -5.973046335    4.726205038    2.982932688
   7  H43     1.00   -7.940251230    2.077186956    3.118237078
   8  H44     1.00   -6.176569838    2.685300823    0.384937212

 Bond lengths in Bohr (Angstrom)

 1-2  1.889533542  1-3  1.824543951  4-5  2.021904040  4-6  2.022002335  4-7  2.021953343
     ( 0.999898090)     ( 0.965507079)     ( 1.069945541)     ( 1.069997556)     ( 1.069971630)

 4-8  2.022015060
     ( 1.070004290)

 Bond angles

  2-1-3  105.03277623   5-4-6  109.53398059   5-4-7  109.65604535   5-4-8  108.43490854

  6-4-7  109.49436728   6-4-8  109.86987750   7-4-8  109.83468330

 NUCLEAR CHARGE:                   10
 NUMBER OF PRIMITIVE AOS:         578
 NUMBER OF SYMMETRY AOS:          474
 NUMBER OF CONTRACTIONS:          436   (  436A   )
 NUMBER OF CORE ORBITALS:           1   (    1A   )
 NUMBER OF VALENCE ORBITALS:        8   (    8A   )

 MOLECULE CHANGED: INITIALIZING OCCUPATION AND DUMP RECORDS


 NUCLEAR REPULSION ENERGY   13.68681606

 Basis set:  JKFIT                   
 Basis size:  1104
 Attributes:
 Sphericals:   T
 Basis set:  MP2FIT                  
 Basis size:  1246
 Attributes:
 Sphericals:   T
 Basis set:  RI                      
 Basis size:   730
 Attributes:
 Sphericals:   T
 Basis set:  TDDFT                   
 Basis size:  1246
 Attributes:
 Sphericals:   T

 Eigenvalues of metric

         1 0.152E-04 0.219E-04 0.349E-04 0.379E-04 0.621E-04 0.864E-04 0.963E-04 0.991E-04


 Contracted 2-electron integrals neglected if value below      1.0D-14

 OPERATOR DM      FOR CENTER  0  COORDINATES:    0.000000    0.000000    0.000000


 **********************************************************************************************************************************
 DATASETS  * FILE   NREC   LENGTH (MB)   RECORD NAMES
              1      18       37.12       500      610      700      900      950      970     1000      129      960     1100   
                                          VAR    BASINP    GEOM    SYMINP    ZMAT    AOBASIS   BASIS     P2S    ABASIS      S 
                                         1400     1410     1200     1210     1080     1600     1650     1700   
                                           T        V       H0       H01     AOSYM     SMH    MOLCAS    OPER   

              2       8       17.39       700     1000      520     2100     7360     7350      200     2101   
                                         GEOM     BASIS   MCVARS     RHF    F12ABS    EF12    OPTIONS    RHF  

 PROGRAMS   *        TOTAL       INT   CCSD(T)    HF-SCF       INT   CCSD(T)    HF-SCF       INT
 CPU TIMES  *      8376.09      0.39   1471.92    217.85      0.42   6129.56    215.02    340.64
 REAL TIME  *      8700.04 SEC
 DISK USED  *         3.24 GB (local),       75.77 GB (total)
 SF USED    *         5.12 GB
 GA USED    *         4.87 MB       (max)       0.00 MB       (current)
 **********************************************************************************************************************************


 PROGRAM * RHF-SCF (CLOSED SHELL)       Authors: W. Meyer, H.-J. Werner


 NUMBER OF ELECTRONS:       5+    5-    SPACE SYMMETRY=1    SPIN SYMMETRY: Singlet 
 CONVERGENCE THRESHOLDS:    1.00E-08 (Density)    1.00E-11 (Energy)
 MAX. NUMBER OF ITERATIONS:       60
 INTERPOLATION TYPE:            DIIS
 INTERPOLATION STEPS:              2 (START)      1 (STEP)
 LEVEL SHIFTS:                  0.00 (CLOSED)  0.00 (OPEN) 



 Orbital guess generated from atomic densities. Full valence occupancy:    9

 Molecular orbital dump at record        2102.2

 Initial occupancy:   5

 ITERATION    DDIFF          GRAD             ENERGY        2-EL.EN.            DIPOLE MOMENTS         DIIS   ORB.
    1      0.000D+00      0.000D+00       -40.19609590     53.506289    0.00410   -0.00276   -0.00131    0    start
    2      0.000D+00      0.257D-02       -40.21335004     52.217618    0.00129   -0.00087   -0.00038    1    diag
    3      0.159D-02      0.998D-03       -40.21562598     52.672078    0.00182   -0.00123   -0.00055    2    diag
    4      0.445D-03      0.249D-03       -40.21594543     52.617265    0.00162   -0.00110   -0.00048    3    diag
    5      0.165D-03      0.322D-04       -40.21595092     52.619413    0.00159   -0.00108   -0.00047    4    diag
    6      0.416D-04      0.264D-05       -40.21595097     52.619549    0.00159   -0.00108   -0.00047    5    diag
    7      0.567D-05      0.212D-06       -40.21595097     52.619510    0.00159   -0.00108   -0.00047    6    diag
    8      0.210D-06      0.170D-07       -40.21595097     52.619511    0.00159   -0.00108   -0.00047    7    diag
    9      0.828D-07      0.217D-08       -40.21595097     52.619511    0.00159   -0.00108   -0.00047    8    diag
   10      0.850D-08      0.595D-09       -40.21595097     52.619511    0.00159   -0.00108   -0.00047    0    orth

 Final occupancy:   5

 !RHF STATE  1.1 Energy               -40.215950967143
 Nuclear energy                        13.68681606
 One-electron energy                  -80.21252269
 Two-electron energy                   26.30975567
 Virial quotient                       -0.99838110
 !RHF STATE  1.1 Dipole moment          0.00158818    -0.00107821    -0.00046994
 Dipole moment /Debye                   0.00403648    -0.00274035    -0.00119438

 Orbital energies:

         1.1          2.1          3.1          4.1          5.1          6.1          7.1
    -11.196224    -0.950661    -0.551889    -0.549954    -0.547776     0.023763     0.035552


 HOMO      5.1    -0.547776 =     -14.9058eV
 LUMO      6.1     0.023763 =       0.6466eV
 LUMO-HOMO         0.571540 =      15.5524eV


 **********************************************************************************************************************************
 DATASETS  * FILE   NREC   LENGTH (MB)   RECORD NAMES
              1      18       37.12       500      610      700      900      950      970     1000      129      960     1100   
                                          VAR    BASINP    GEOM    SYMINP    ZMAT    AOBASIS   BASIS     P2S    ABASIS      S 
                                         1400     1410     1200     1210     1080     1600     1650     1700   
                                           T        V       H0       H01     AOSYM     SMH    MOLCAS    OPER   

              2       9       27.51       700     1000      520     2100     7360     7350      200     2101     2102   
                                         GEOM     BASIS   MCVARS     RHF    F12ABS    EF12    OPTIONS    RHF      RHF  

 PROGRAMS   *        TOTAL    HF-SCF       INT   CCSD(T)    HF-SCF       INT   CCSD(T)    HF-SCF       INT
 CPU TIMES  *      8557.61    181.52      0.39   1471.92    217.85      0.42   6129.56    215.02    340.64
 REAL TIME  *      8896.82 SEC
 DISK USED  *         3.24 GB (local),       75.77 GB (total)
 SF USED    *         5.12 GB
 GA USED    *         4.87 MB       (max)       0.00 MB       (current)
 **********************************************************************************************************************************

 Basis set:  JKFIT                   
 Basis size:  1104
 Attributes:
 Sphericals:   T
 Basis set:  MP2FIT                  
 Basis size:  1246
 Attributes:
 Sphericals:   T
 Basis set:  RI                      
 Basis size:   730
 Attributes:
 Sphericals:   T
 Basis set:  TDDFT                   
 Basis size:  1246
 Attributes:
 Sphericals:   T

 PROGRAM * CCSD (Closed-shell coupled cluster)     Authors: C. Hampel, H.-J. Werner, 1991, M. Deegan, P.J. Knowles, 1992

                                  CCSD-F12 implementation by  H.-J. Werner, 2007

                   Density fitting integral evaluation by F.R. Manby, 2003,2007, G. Knizia, 2010



 Convergence thresholds:  THRVAR = 1.00D-08  THRDEN = 1.00D-10

 CCSD(T)     terms to be evaluated (factor= 1.000)


 Number of core orbitals:           1 (   1 )
 Number of closed-shell orbitals:   4 (   4 )
 Number of external orbitals:     431 ( 431 )

 Molecular orbitals read from record     2102.2  Type=RHF/CANONICAL (state 1.1)

 MP2-F12 correlation treatment (H.-J. Werner, 2006)
 ==================================================

 Using MP2-F12 with ansatz 3C(FIX)

 Using projected zeroth-order Hamiltonian (+Z)

 FOCKRIB=T FOCKRIC=T FOCKRIP=T CABSP=T CABSA=T CABSK=T CABSF=T GBC=F EBC=F DMAT=T NOFIK=T NOPAO=1 SOLVE=-1  USEPAO=0
 EXCH_A= T EXCH_B= F EXCH_C= F EXCH_P= F

 Geminal basis:    OPTFULL  GEM_TYPE=SLATER  BETA=1.0  NGEM=6

 Optimizing Gaussian exponents for each gem_beta

 Geminal optimization for beta= 1.0000
 Weight function:   m=0, omega= 1.4646

 Augmented Hessian optimization of geminal fit. Trust ratio= 0.40000
 Convergence reached after   2 iterations. Final gradient= 7.85D-16, Step= 4.26D-06, Delta= 1.28D-09

 Alpha:                 0.19532     0.81920     2.85917     9.50073    35.69989   197.79328
 Coeff:                 0.27070     0.30552     0.18297     0.10986     0.06810     0.04224


 All pairs explicitly correlated. Number of r12-pairs:           10

 Excluding core orbitals from MO domains

 AO(A)-basis ORBITAL           loaded. Number of functions:     436
 RI(R)-basis RI                loaded. Number of functions:     730
 DF-basis JKFIT                loaded. Number of functions:    1104

 Screening thresholds:   THRAO=  1.00D-10  THRMO=  1.00D-09  THRPROD=  1.00D-09
                         THRSW=  1.00D-05  THROV=  1.00D-12  THRAOF12= 1.00D-10

 CPU time for Fock operators                     10.13 sec

 Construction of ABS:
 Smallest eigenvalue of S          2.27E-04  (threshold= 1.00E-08)
 Ratio eigmin/eigmax               3.94E-05  (threshold= 1.00E-09)
 Smallest eigenvalue of S kept     2.27E-04  (threshold= 2.27E-04, 0 functions deleted, 730 kept)

 Construction of CABS:
 Smallest eigenvalue of S          1.54E-08  (threshold= 1.00E-08)
 Ratio eigmin/eigmax               1.54E-08  (threshold= 1.00E-09)
 Smallest eigenvalue of S kept     1.54E-08  (threshold= 1.54E-08, 0 functions deleted, 730 kept)

 CPU time for CABS singles                        2.30 sec

 CABS-singles contribution of  -0.00024455 patched into reference energy.
 New reference energy         -40.21619552

 AO(A)-basis ORBITAL           loaded. Number of functions:     436
 RI(R)-basis RI                loaded. Number of functions:     730
 DF-basis MP2FIT               loaded. Number of functions:    1246

 Screening thresholds:   THRAO=  1.00D-10  THRMO=  1.00D-09  THRPROD=  1.00D-09
                         THRSW=  1.00D-05  THROV=  1.00D-12  THRAOF12= 1.00D-10

 CPU time for 3-index integral evaluation        19.96 sec
 CPU time for first  half transformation          3.70 sec ( 1750.8 MFLOP/sec)
 CPU time for second half transformation          0.05 sec (  774.1 MFLOP/sec)
 CPU time for sorting                             0.11 sec
 CPU time for fitting                             1.35 sec ( 3392.5 MFLOP/sec)
 CPU time for tilde quantities                    1.79 sec ( 4810.2 MFLOP/sec)
 CPU time for assembly                            5.14 sec ( 3197.0 MFLOP/sec)
 CPU time for tranop_f12                          4.78 sec ( 3742.4 MFLOP/sec)
 CPU time for f12 integrals (total)              44.24 sec, Elapsed time:     45.23 sec
 F12-matrices built in  4 passes.
 F12-matrices built in  4 passes.
 F12-matrices built in  4 passes.
 F12-matrices built in  4 passes.
 FC-matrix built in  4 passes.
 CPU time for f12 matrices (total)                1.67 sec, Elapsed time:      1.69 sec

 Diagonal F12 approximation with fixed coefficients:  TSING= 0.500,  TTRIP= 0.250 (scaled by -1/beta)

 DF-MP2-F12 energy corrections:
 ==============================
 Approx.                                    Singlet             Triplet             Total
 DF-MP2-F12/3*C(DX,FIX)                -0.007498171590     -0.000575272529     -0.008073444119
 DF-MP2-F12/3*C(FIX)                   -0.007051142774     -0.000473921319     -0.007525064093
 DF-MP2-F12/3C(FIX)                    -0.007079996100     -0.000487435843     -0.007567431943

 DF-MP2-F12 correlation energies:
 ================================
 Approx.                                    Singlet             Triplet             Ecorr            Total Energy
 DF-MP2                                -0.154417663954     -0.056463290447     -0.210880954402    -40.427076475797
 DF-MP2-F12/3*C(DX,FIX)                -0.161915835544     -0.057038562977     -0.218954398521    -40.435149919916
 DF-MP2-F12/3*C(FIX)                   -0.161468806728     -0.056937211766     -0.218406018495    -40.434601539890
 DF-MP2-F12/3C(FIX)                    -0.161497660055     -0.056950726290     -0.218448386345    -40.434643907740

 SCS-DF-MP2 energies (F_SING= 1.20000  F_TRIP= 0.62222  F_PARALLEL= 0.33333):
 ============================================================================
 SCS-DF-MP2                            -0.220433910801    -40.436629432196
 SCS-DF-MP2-F12/3*C(DX,FIX)            -0.229789664061    -40.445985185456
 SCS-DF-MP2-F12/3*C(FIX)               -0.229190166506    -40.445385687901
 SCS-DF-MP2-F12/3C(FIX)                -0.229233199535    -40.445428720930
 Symmetry transformation completed.

 Number of N-1 electron functions:               4
 Number of N-2 electron functions:              10
 Number of singly external CSFs:              1724
 Number of doubly external CSFs:           1486950
 Total number of CSFs:                     1488675

 Pair and operator lists are different

 Length of J-op  integral file:             203.65 MB
 Length of K-op  integral file:             338.08 MB
 Length of 3-ext integral record:             0.00 MB

 Memory could be reduced to 526.20 Mwords without degradation in triples

 Integral transformation finished. Total CPU: 167.87 sec, npass=  1  Memory used: 214.75 MW

 Reference energy:                    -40.21619552

 Adding F12 terms to K(Cij), methodcc=6,  factor= 1.0

 ITER.      SQ.NORM     CORR.ENERGY   TOTAL ENERGY   ENERGY CHANGE        DEN1      VAR(S)    VAR(P)  DIIS     TIME  TIME/IT
   1      1.07023980    -0.22511589   -40.44131141    -0.01422957    -0.00847536  0.63D-03  0.94D-03  1  1   277.49    49.85
   2      1.07517049    -0.22596576   -40.44216128    -0.00084987    -0.00530347  0.15D-04  0.10D-03  2  2   324.47    49.64
   3      1.07679312    -0.22605357   -40.44224909    -0.00008781    -0.00117734  0.22D-05  0.59D-05  3  3   371.44    49.44
   4      1.07717610    -0.22606088   -40.44225640    -0.00000731    -0.00020553  0.14D-06  0.33D-06  4  4   419.06    49.44
   5      1.07722813    -0.22606251   -40.44225803    -0.00000163    -0.00000892  0.11D-07  0.20D-07  5  5   466.55    49.56
   6      1.07723672    -0.22606121   -40.44225673     0.00000130    -0.00000328  0.75D-09  0.16D-08  6  6   514.01    49.57
   7      1.07723805    -0.22606089   -40.44225641     0.00000032    -0.00000083  0.50D-10  0.11D-09  6  1   562.06    49.56
   8      1.07723802    -0.22606096   -40.44225648    -0.00000007     0.00000020  0.51D-11  0.67D-11  6  3   609.82    49.53
   9      1.07723816    -0.22606094   -40.44225646     0.00000002    -0.00000009  0.36D-12  0.53D-12  6  2   657.70    49.53
  10      1.07723816    -0.22606094   -40.44225646     0.00000000     0.00000001  0.49D-13  0.56D-13  6  4   705.26    49.51
  11      1.07723816    -0.22606094   -40.44225646     0.00000000     0.00000000  0.46D-14  0.57D-14  6  5   752.92    49.50
  12      1.07723816    -0.22606094   -40.44225646     0.00000000     0.00000000  0.10D-15  0.61D-15  6  6   800.81    49.49
  13      1.07723816    -0.22606094   -40.44225646    -0.00000000     0.00000000  0.72D-17  0.66D-16  6  1   848.19    49.44
  14      1.07723816    -0.22606094   -40.44225646    -0.00000000     0.00000000  0.12D-17  0.86D-17  6  3   895.72    49.39

 Norm of t1 vector:      0.03291685      S-energy:    -0.00000000      T1 diagnostic:  0.00822921
                                                                       D1 diagnostic:  0.01319201

 Adding energy correction from Wij-K(Fij), methodcc=6  factor= 1.0

  CCSD correlation energy              -0.226060936112
  MP2-F12 correction (uncoupled)       -0.007443087442
  C*T doubles correction               -0.000127097989
  f12b correction                       0.001937985513

 Total CPU time for triples:    429.64 sec

  Ecorr(MP2)                           -0.210886326081
  Ecorr(MP2-F12)                       -0.218453758024
  Scale factor for triples energy       1.035883938440


 RESULTS
 =======

  Reference energy                    -40.215950967144
  F12 singles correction               -0.000244554251

 F12 singles corrections added to reference energy

  New reference energy                -40.216195521395

  F12a singlet correction              -0.007080336197
  F12a triplet correction              -0.000489849235
  F12a total correction                -0.007570185432

 F12a corrections for ansatz F12/3C(FIX) added to CCSD energy

  CCSD-F12a singlet pair energy        -0.178450286495
  CCSD-F12a triplet pair energy        -0.055180835046
  CCSD-F12a correlation energy         -0.233631121544

  Triples (T) contribution (scaled)    -0.007052778339
  Total correlation energy             -0.240683899883

  CCSD-F12a total energy              -40.449826642939
  CCSD[T]-F12a energy                 -40.457115962214
  CCSD-T-F12a energy                  -40.456809561485
 !CCSD(T)-F12a total energy           -40.456879421278

 F12b corrections for ansatz F12/3C(FIX) added to CCSD(T)-F12a energy

  CCSD-F12b singlet pair energy        -0.176579948424
  CCSD-F12b triplet pair energy        -0.055113187603
  CCSD-F12b correlation energy         -0.231693136031

  Triples (T) contribution (scaled)    -0.007052778339
  Total correlation energy             -0.238745914370

  CCSD-F12b total energy              -40.447888657426
  CCSD[T]-F12b energy                 -40.455177976700
  CCSD-T-F12b energy                  -40.454871575972
 !CCSD(T)-F12b total energy           -40.454941435765

 Timing summary (sec):

 STEP                 CPU(USER)    SYS     CPU(TOT)    WALL
 Transformation        168.18      4.29    172.47    173.24
 CCSD iterations       663.98     21.14    685.12    691.68
 Triples               429.64      0.92    430.56    431.26
 MP2-F12                63.66      1.29     64.95     65.02
 F12b energy            43.07      1.30     44.37     44.44

 Program statistics:

 Available memory in ccsd:              1999999866
 Min. memory needed in ccsd:               6763924
 Max. memory used in ccsd:                 7862874
 Max. memory used in cckext:               5171974 (15 integral passes)



 **********************************************************************************************************************************
 DATASETS  * FILE   NREC   LENGTH (MB)   RECORD NAMES
              1      19     1346.98       500      610      700      900      950      970     1000      129      960     1100   
                                          VAR    BASINP    GEOM    SYMINP    ZMAT    AOBASIS   BASIS     P2S    ABASIS      S 
                                         1400     1410     1200     1210     1080     1600     1650     1700     1380   
                                           T        V       H0       H01     AOSYM     SMH    MOLCAS    OPER     JKOP   

              2       9       27.51       700     1000      520     2100     7360     7350      200     2101     2102   
                                         GEOM     BASIS   MCVARS     RHF    F12ABS    EF12    OPTIONS    RHF      RHF  

 PROGRAMS   *        TOTAL   CCSD(T)    HF-SCF       INT   CCSD(T)    HF-SCF       INT   CCSD(T)    HF-SCF       INT
 CPU TIMES  *      9926.41   1368.78    181.52      0.39   1471.92    217.85      0.42   6129.56    215.02    340.64
 REAL TIME  *     10303.19 SEC
 DISK USED  *         3.24 GB (local),       75.77 GB (total)
 SF USED    *         5.12 GB
 GA USED    *         4.87 MB       (max)       0.00 MB       (current)
 **********************************************************************************************************************************
 Molecular orbitals read from record     2102.2  Type=RHF/CANONICAL (state 1.1)
 Occupation numbers read from record     2102.2  Type=RHF/RHF (state 1.1)
 Orbital energies read from record       2102.2  Type=RHF/CANONICAL (state 1.1)
 Redundancy group numbers read from rec  2102.2  Type=RHF/RHF (state 1.1)

 CCSD(T)-F12/aug-cc-pVQZ energy=    -40.454941435765

     CCSD(T)-F12          HF-SCF     CCSD(T)-F12          HF-SCF     CCSD(T)-F12          HF-SCF
    -40.45494144    -40.21595097    -76.37040747    -76.06252008   -116.82597978   -116.27850645
 **********************************************************************************************************************************
 Molpro calculation terminated
