
 Primary working directories    : /scratch/klimes/383247/molpro.TS3e6vaSvQ
 Secondary working directories  : /scratch/klimes/383247/molpro.TS3e6vaSvQ
 Wavefunction directory         : /scratch/klimes/383247/
 Main file repository           : /scratch/klimes/383247/molpro.TS3e6vaSvQ/

 id        : karlovklimes

 Nodes                      nprocs
 nc-07.cc.karlov.mff.cuni.cz    4

 Using customized tuning parameters: mindgm=1; mindgv=20; mindgc=4; mindgr=1; noblas=0; minvec=7
 default implementation of scratch files=sf  


 Variables initialized (930), CPU time= 0.01 sec
                                                                                 !gdirect
 memory,2000,m
 gthresh,orbital=1d-10,energy=1d-10,grid=1d-8
 
 symmetry,nosym
 angstrom
 geometry={
 O14        -4.369600000000      4.555200000000     -0.937800000000
 H27        -4.635300000000      5.332600000000     -1.445500000000
 H28        -5.213600000000      4.102600000000     -0.695700000000
 C1        -3.277200000000      1.482500000000      1.271900000000
 H41        -2.464000000000      0.899600000000      1.651000000000
 H42        -3.160800000000      2.501000000000      1.578500000000
 H43        -4.201800000000      1.099200000000      1.650100000000
 H44        -3.268500000000      1.421000000000      0.203700000000
 }
 
 nkerna=1
 nkernb=1
 
 gf=0
 sing=1
 thrdum=1d-4
 gridthr=1d-8
 
 basis={
 set,orbital
 default,avqz
 set,jkfit
 default,av5z/jkfit
 set,mp2fit
 default,av5z/mp2fit
 set,ri
 default,av5z/optri
 set,tddft
 default,av5z/mp2fit
 }
 
 proc set_monomer1
 dummy,4,5,6,7,8
 endproc
 
 proc set_monomer2
 dummy,1,2,3
 endproc
 
                                                                                 !12 energy
 {hf,accu=1.d-16}
 {ccsd(t)-f12,df_basis=mp2fit,df_basis_exch=jkfit,ri_basis=ri,scale_trip=1,THRAOF12=1d-10}
 
 set_monomer1
 {hf,accu=1.d-16}
 {ccsd(t)-f12,df_basis=mp2fit,df_basis_exch=jkfit,ri_basis=ri,scale_trip=1,THRAOF12=1d-10}
 
 set_monomer2
 {hf,accu=1.d-16}
 {ccsd(t)-f12,df_basis=mp2fit,df_basis_exch=jkfit,ri_basis=ri,scale_trip=1,THRAOF12=1d-10}
 
 Commands  initialized (760), CPU time= 0.02 sec, 617 directives.
 Default parameters read. Elapsed time= 0.16 sec

 Checking input...
 Passed
1


                                         ***  PROGRAM SYSTEM MOLPRO  ***
                                       Copyright, TTI GmbH Stuttgart, 2015
                                    Version 2019.1 linked Jan 14 2019 13:09:19


 **********************************************************************************************************************************
 LABEL *                                                                                 
  64 bit mpp version                                                                     DATE: 11-Mar-20          TIME: 18:08:25  
 **********************************************************************************************************************************

 SHA1:             d688ac825633d238f2093ded1675ba87ccd55965
 **********************************************************************************************************************************

 THRESHOLDS:

 ZERO    =  1.00D-12  ONEINT  =  1.00D-12  TWOINT  =  1.00D-11  PREFAC  =  1.00D-14  XXXXXX  =  1.00D-09  EORDER  =  1.00D-04
 ENERGY  =  1.00D-10  ETEST   =  0.00D+00  EDENS   =  0.00D+00  THRDEDEF=  1.00D-06  GRADIENT=  1.00D-02  STEP    =  1.00D-03
 ORBITAL =  1.00D-10  CIVEC   =  1.00D-05  COEFF   =  1.00D-04  PRINTCI =  5.00D-02  PUNCHCI =  9.90D+01  OPTGRAD =  3.00D-04
 OPTENERG=  1.00D-06  OPTSTEP =  3.00D-04  THRGRAD =  1.00D-10  COMPRESS=  1.00D-11  VARMIN  =  1.00D-07  VARMAX  =  1.00D-03
 THRDOUB =  0.00D+00  THRDIV  =  1.00D-05  THRRED  =  1.00D-07  THRPSP  =  1.00D+00  THRDC   =  1.00D-10  THRCS   =  1.00D-10
 THRNRM  =  1.00D-08  THREQ   =  0.00D+00  THRDE   =  1.00D+00  THRREF  =  1.00D-05  SPARFAC =  1.00D+00  THRDLP  =  1.00D-07
 THRDIA  =  1.00D-10  THRDLS  =  1.00D-07  THRGPS  =  0.00D+00  THRKEX  =  0.00D+00  THRDIS  =  2.00D-01  THRVAR  =  1.00D-10
 THRLOC  =  1.00D-06  THRGAP  =  1.00D-06  THRLOCT = -1.00D+00  THRGAPT = -1.00D+00  THRORB  =  1.00D-06  THRMLTP =  0.00D+00
 THRCPQCI=  1.00D-10  KEXTA   =  0.00D+00  THRCOARS=  0.00D+00  SYMTOL  =  1.00D-06  GRADTOL =  1.00D-06  THROVL  =  1.00D-08
 THRORTH =  1.00D-08  GRID    =  1.00D-08  GRIDMAX =  1.00D-03  DTMAX   =  0.00D+00  THROCCDE=  1.00D-01  THROCCDE=  1.00D-01
 THRPRINT=  2.50D-01


 Variable memory set to 2000000000 words,  buffer space 

 ZSYMEL=NOSYM
 ZUNIT=ANG


Geometry recognized as XYZ

 SETTING NKERNA         =         1.00000000                                  
 SETTING NKERNB         =         1.00000000                                  
 SETTING GF             =     0.00000000D+00                                  
 SETTING SING           =         1.00000000                                  
 SETTING THRDUM         =     1.00000000D-04                                  
 SETTING GRIDTHR        =     1.00000000D-08                                  
 SETTING BASIS          =    AVQZ


 Recomputing integrals since basis changed


 Using spherical harmonics

 Library entry O      S aug-cc-pVQZ          selected for orbital group  1
 Library entry O      P aug-cc-pVQZ          selected for orbital group  1
 Library entry O      D aug-cc-pVQZ          selected for orbital group  1
 Library entry O      F aug-cc-pVQZ          selected for orbital group  1
 Library entry O      G aug-cc-pVQZ          selected for orbital group  1
 Library entry H      S aug-cc-pVQZ          selected for orbital group  2
 Library entry H      P aug-cc-pVQZ          selected for orbital group  2
 Library entry H      D aug-cc-pVQZ          selected for orbital group  2
 Library entry H      F aug-cc-pVQZ          selected for orbital group  2
 Library entry C      S aug-cc-pVQZ          selected for orbital group  3
 Library entry C      P aug-cc-pVQZ          selected for orbital group  3
 Library entry C      D aug-cc-pVQZ          selected for orbital group  3
 Library entry C      F aug-cc-pVQZ          selected for orbital group  3
 Library entry C      G aug-cc-pVQZ          selected for orbital group  3


 PROGRAM * SEWARD (Integral evaluation for generally contracted gaussian basis sets)     Author: Roland Lindh, 1990

 Geometry written to block  1 of record 700


 Point group  C1  



 ATOMIC COORDINATES

 NR  ATOM    CHARGE       X              Y              Z

   1  O14     8.00   -8.257347274    8.608080443   -1.772185160
   2  H27     1.00   -8.759447505   10.077153532   -2.731599113
   3  H28     1.00   -9.852276123    7.752790399   -1.314682465
   4  C1      6.00   -6.193010455    2.801518980    2.403542658
   5  H41     1.00   -4.656285171    1.699997622    3.119937832
   6  H42     1.00   -5.973046335    4.726205038    2.982932688
   7  H43     1.00   -7.940251230    2.077186956    3.118237078
   8  H44     1.00   -6.176569838    2.685300823    0.384937212

 Bond lengths in Bohr (Angstrom)

 1-2  1.825035758  1-3  1.866715781  4-5  2.021904040  4-6  2.022002335  4-7  2.021953343
     ( 0.965767332)     ( 0.987823451)     ( 1.069945541)     ( 1.069997556)     ( 1.069971630)

 4-8  2.022015060
     ( 1.070004290)

 Bond angles

  2-1-3  105.22390814   5-4-6  109.53398059   5-4-7  109.65604535   5-4-8  108.43490854

  6-4-7  109.49436728   6-4-8  109.86987750   7-4-8  109.83468330

 NUCLEAR CHARGE:                   20
 NUMBER OF PRIMITIVE AOS:         578
 NUMBER OF SYMMETRY AOS:          474
 NUMBER OF CONTRACTIONS:          436   (  436A   )
 NUMBER OF CORE ORBITALS:           2   (    2A   )
 NUMBER OF VALENCE ORBITALS:       14   (   14A   )


 NUCLEAR REPULSION ENERGY   35.88393783


 Basis set:  JKFIT                   
 Basis size:  1104
 Attributes:
 Sphericals:   T
 Basis set:  MP2FIT                  
 Basis size:  1246
 Attributes:
 Sphericals:   T
 Basis set:  RI                      
 Basis size:   730
 Attributes:
 Sphericals:   T
 Basis set:  TDDFT                   
 Basis size:  1246
 Attributes:
 Sphericals:   T

 **********************************************************************************************************************************


 Eigenvalues of metric

         1 0.158E-04 0.278E-04 0.357E-04 0.375E-04 0.634E-04 0.855E-04 0.965E-04 0.113E-03


 Contracted 2-electron integrals neglected if value below      1.0D-14
 AO integral compression algorithm  1   Integral accuracy      1.0D-14

     21932.540 MB (compressed) written to integral file ( 54.7%)

     Node minimum: 5193.597 MB, node maximum: 5865.996 MB


 NUMBER OF SORTED TWO-ELECTRON INTEGRALS: 1134451344.     BUFFER LENGTH:  32768
 NUMBER OF SEGMENTS:  36  SEGMENT LENGTH:   31999984      RECORD LENGTH: 524288

 Memory used in sort:      32.56 MW

 SORT1 READ  5012305700. AND WROTE   924942037. INTEGRALS IN   2663 RECORDS. CPU TIME:   221.88 SEC, REAL TIME:   307.55 SEC
 SORT2 READ  3698794462. AND WROTE  4537853011. INTEGRALS IN  89508 RECORDS. CPU TIME:    17.60 SEC, REAL TIME:   116.90 SEC

 Node minimum:  1134427528.  Node maximum:  1134498978. integrals

 OPERATOR DM      FOR CENTER  0  COORDINATES:    0.000000    0.000000    0.000000


 **********************************************************************************************************************************
 DATASETS  * FILE   NREC   LENGTH (MB)   RECORD NAMES
              1      18       37.12       500      610      700      900      950      970     1000      129      960     1100   
                                          VAR    BASINP    GEOM    SYMINP    ZMAT    AOBASIS   BASIS     P2S    ABASIS      S 
                                         1400     1410     1200     1210     1080     1600     1650     1700   
                                           T        V       H0       H01     AOSYM     SMH    MOLCAS    OPER   

 PROGRAMS   *        TOTAL       INT
 CPU TIMES  *       302.89    302.64
 REAL TIME  *       531.20 SEC
 DISK USED  *        37.64 MB (local),       66.18 GB (total)
 GA USED    *         0.00 MB       (max)       0.00 MB       (current)
 **********************************************************************************************************************************


 PROGRAM * RHF-SCF (CLOSED SHELL)       Authors: W. Meyer, H.-J. Werner


 NUMBER OF ELECTRONS:      10+   10-    SPACE SYMMETRY=1    SPIN SYMMETRY: Singlet 
 CONVERGENCE THRESHOLDS:    1.00E-08 (Density)    1.00E-11 (Energy)
 MAX. NUMBER OF ITERATIONS:       60
 INTERPOLATION TYPE:            DIIS
 INTERPOLATION STEPS:              2 (START)      1 (STEP)
 LEVEL SHIFTS:                  0.00 (CLOSED)  0.00 (OPEN) 



 Orbital guess generated from atomic densities. Full valence occupancy:   16

 Molecular orbital dump at record        2100.2

 Initial occupancy:  10

 ITERATION    DDIFF          GRAD             ENERGY        2-EL.EN.            DIPOLE MOMENTS         DIIS   ORB.
    1      0.000D+00      0.000D+00      -116.22124530    157.529968   -1.07355    0.30741   -0.25601    0    start
    2      0.000D+00      0.379D-02      -116.26530509    152.477818   -0.60138    0.22045   -0.17464    1    diag
    3      0.273D-02      0.223D-02      -116.27892166    154.562823   -0.72145    0.24516   -0.19637    2    diag
    4      0.942D-03      0.329D-03      -116.27957385    154.449461   -0.71090    0.24306   -0.19433    3    diag
    5      0.201D-03      0.964D-04      -116.27964194    154.444152   -0.71031    0.24377   -0.19464    4    diag
    6      0.820D-04      0.234D-04      -116.27964574    154.449726   -0.70946    0.24375   -0.19458    5    diag
    7      0.221D-04      0.467D-05      -116.27964597    154.448109   -0.70945    0.24379   -0.19459    6    diag
    8      0.651D-05      0.118D-05      -116.27964599    154.448269   -0.70937    0.24379   -0.19459    7    diag
    9      0.136D-05      0.277D-06      -116.27964599    154.448243   -0.70935    0.24378   -0.19459    8    diag
   10      0.391D-06      0.325D-07      -116.27964599    154.448244   -0.70935    0.24378   -0.19459    9    orth
   11      0.428D-07      0.747D-08      -116.27964599    154.448245   -0.70935    0.24378   -0.19459    9    diag
   12      0.892D-08      0.193D-08      -116.27964599    154.448245   -0.70935    0.24378   -0.19459    0    orth

 Final occupancy:  10

 !RHF STATE  1.1 Energy              -116.279645986162
 Nuclear energy                        35.88393783
 One-electron energy                 -229.38770632
 Two-electron energy                   77.22412250
 Virial quotient                       -1.00067732
 !RHF STATE  1.1 Dipole moment         -0.70934765     0.24378177    -0.19458575
 Dipole moment /Debye                  -1.80286381     0.61959088    -0.49455524

 Orbital energies:

         1.1          2.1          3.1          4.1          5.1          6.1          7.1          8.1          9.1         10.1
    -20.567763   -11.189232    -1.342643    -0.943838    -0.708609    -0.580102    -0.545399    -0.542846    -0.540580    -0.508719

        11.1         12.1
      0.024263     0.036031


 HOMO     10.1    -0.508719 =     -13.8430eV
 LUMO     11.1     0.024263 =       0.6602eV
 LUMO-HOMO         0.532983 =      14.5032eV


 **********************************************************************************************************************************
 DATASETS  * FILE   NREC   LENGTH (MB)   RECORD NAMES
              1      18       37.12       500      610      700      900      950      970     1000      129      960     1100   
                                          VAR    BASINP    GEOM    SYMINP    ZMAT    AOBASIS   BASIS     P2S    ABASIS      S 
                                         1400     1410     1200     1210     1080     1600     1650     1700   
                                           T        V       H0       H01     AOSYM     SMH    MOLCAS    OPER   

              2       4        6.75       700     1000      520     2100   
                                         GEOM     BASIS   MCVARS     RHF  

 PROGRAMS   *        TOTAL    HF-SCF       INT
 CPU TIMES  *       517.52    214.64    302.64
 REAL TIME  *       767.03 SEC
 DISK USED  *        57.70 MB (local),       66.26 GB (total)
 SF USED    *         0.76 MB
 GA USED    *         0.00 MB       (max)       0.00 MB       (current)
 **********************************************************************************************************************************

 Basis set:  JKFIT                   
 Basis size:  1104
 Attributes:
 Sphericals:   T
 Basis set:  MP2FIT                  
 Basis size:  1246
 Attributes:
 Sphericals:   T
 Basis set:  RI                      
 Basis size:   730
 Attributes:
 Sphericals:   T
 Basis set:  TDDFT                   
 Basis size:  1246
 Attributes:
 Sphericals:   T

 PROGRAM * CCSD (Closed-shell coupled cluster)     Authors: C. Hampel, H.-J. Werner, 1991, M. Deegan, P.J. Knowles, 1992

                                  CCSD-F12 implementation by  H.-J. Werner, 2007

                   Density fitting integral evaluation by F.R. Manby, 2003,2007, G. Knizia, 2010



 Convergence thresholds:  THRVAR = 1.00D-08  THRDEN = 1.00D-10

 CCSD(T)     terms to be evaluated (factor= 1.000)


 Number of core orbitals:           2 (   2 )
 Number of closed-shell orbitals:   8 (   8 )
 Number of external orbitals:     426 ( 426 )

 Molecular orbitals read from record     2100.2  Type=RHF/CANONICAL (state 1.1)

 MP2-F12 correlation treatment (H.-J. Werner, 2006)
 ==================================================

 Using MP2-F12 with ansatz 3C(FIX)

 Using projected zeroth-order Hamiltonian (+Z)

 FOCKRIB=T FOCKRIC=T FOCKRIP=T CABSP=T CABSA=T CABSK=T CABSF=T GBC=F EBC=F DMAT=T NOFIK=T NOPAO=1 SOLVE=-1  USEPAO=0
 EXCH_A= T EXCH_B= F EXCH_C= F EXCH_P= F

 Geminal basis:    OPTFULL  GEM_TYPE=SLATER  BETA=1.0  NGEM=6

 Optimizing Gaussian exponents for each gem_beta

 Geminal optimization for beta= 1.0000
 Weight function:   m=0, omega= 1.4646

 Augmented Hessian optimization of geminal fit. Trust ratio= 0.40000
 Convergence reached after   2 iterations. Final gradient= 7.85D-16, Step= 4.26D-06, Delta= 1.28D-09

 Alpha:                 0.19532     0.81920     2.85917     9.50073    35.69989   197.79328
 Coeff:                 0.27070     0.30552     0.18297     0.10986     0.06810     0.04224


 All pairs explicitly correlated. Number of r12-pairs:           36

 Excluding core orbitals from MO domains

 AO(A)-basis ORBITAL           loaded. Number of functions:     436
 RI(R)-basis RI                loaded. Number of functions:     730
 DF-basis JKFIT                loaded. Number of functions:    1104

 Screening thresholds:   THRAO=  1.00D-10  THRMO=  1.00D-09  THRPROD=  1.00D-09
                         THRSW=  1.00D-05  THROV=  1.00D-12  THRAOF12= 1.00D-10

 CPU time for Fock operators                     11.75 sec

 Construction of ABS:
 Smallest eigenvalue of S          2.27E-04  (threshold= 1.00E-08)
 Ratio eigmin/eigmax               3.95E-05  (threshold= 1.00E-09)
 Smallest eigenvalue of S kept     2.27E-04  (threshold= 2.27E-04, 0 functions deleted, 730 kept)

 Construction of CABS:
 Smallest eigenvalue of S          1.61E-08  (threshold= 1.00E-08)
 Ratio eigmin/eigmax               1.61E-08  (threshold= 1.00E-09)
 Smallest eigenvalue of S kept     1.61E-08  (threshold= 1.61E-08, 0 functions deleted, 730 kept)

 CPU time for CABS singles                        2.17 sec

 CABS-singles contribution of  -0.00052829 patched into reference energy.
 New reference energy        -116.28017428

 AO(A)-basis ORBITAL           loaded. Number of functions:     436
 RI(R)-basis RI                loaded. Number of functions:     730
 DF-basis MP2FIT               loaded. Number of functions:    1246

 Screening thresholds:   THRAO=  1.00D-10  THRMO=  1.00D-09  THRPROD=  1.00D-09
                         THRSW=  1.00D-05  THROV=  1.00D-12  THRAOF12= 1.00D-10

 CPU time for 3-index integral evaluation        18.81 sec
 CPU time for first  half transformation          4.54 sec ( 2869.1 MFLOP/sec)
 CPU time for second half transformation          0.09 sec ( 1696.7 MFLOP/sec)
 CPU time for sorting                             0.18 sec
 CPU time for fitting                             1.81 sec ( 4103.4 MFLOP/sec)
 CPU time for tilde quantities                    2.32 sec ( 4341.7 MFLOP/sec)
 CPU time for assembly                           16.34 sec ( 4340.1 MFLOP/sec)
 CPU time for tranop_f12                         15.89 sec ( 4337.6 MFLOP/sec)
 CPU time for f12 integrals (total)              82.40 sec, Elapsed time:     84.71 sec
 F12-matrices built in  4 passes.
 F12-matrices built in  4 passes.
 F12-matrices built in  4 passes.
 F12-matrices built in  4 passes.
 FC-matrix built in  4 passes.
 CPU time for f12 matrices (total)                6.40 sec, Elapsed time:      6.56 sec

 Diagonal F12 approximation with fixed coefficients:  TSING= 0.500,  TTRIP= 0.250 (scaled by -1/beta)

 DF-MP2-F12 energy corrections:
 ==============================
 Approx.                                    Singlet             Triplet             Total
 DF-MP2-F12/3*C(DX,FIX)                -0.021239620921     -0.002110112712     -0.023349733633
 DF-MP2-F12/3*C(FIX)                   -0.019173165388     -0.001555575111     -0.020728740500
 DF-MP2-F12/3C(FIX)                    -0.019189345932     -0.001606702241     -0.020796048173

 DF-MP2-F12 correlation energies:
 ================================
 Approx.                                    Singlet             Triplet             Ecorr            Total Energy
 DF-MP2                                -0.340613633574     -0.158180824078     -0.498794457652   -116.778968738789
 DF-MP2-F12/3*C(DX,FIX)                -0.361853254495     -0.160290936790     -0.522144191285   -116.802318472422
 DF-MP2-F12/3*C(FIX)                   -0.359786798963     -0.159736399189     -0.519523198152   -116.799697479289
 DF-MP2-F12/3C(FIX)                    -0.359802979506     -0.159787526319     -0.519590505825   -116.799764786962

 SCS-DF-MP2 energies (F_SING= 1.20000  F_TRIP= 0.62222  F_PARALLEL= 0.33333):
 ============================================================================
 SCS-DF-MP2                            -0.507159984160   -116.787334265297
 SCS-DF-MP2-F12/3*C(DX,FIX)            -0.533960488285   -116.814134769422
 SCS-DF-MP2-F12/3*C(FIX)               -0.531135696028   -116.811309977165
 SCS-DF-MP2-F12/3C(FIX)                -0.531186925117   -116.811361206254
 Symmetry transformation completed.

 Number of N-1 electron functions:               8
 Number of N-2 electron functions:              36
 Number of singly external CSFs:              3408
 Number of doubly external CSFs:           5808936
 Total number of CSFs:                     5812345

 Pair and operator lists are different

 Length of J-op  integral file:               0.75 GB
 Length of K-op  integral file:               0.98 GB
 Length of 3-ext integral record:             0.00 MB

 Memory could be reduced to 828.63 Mwords without degradation in triples

 Integral transformation finished. Total CPU: 339.83 sec, npass=  1  Memory used: 389.45 MW

 Reference energy:                   -116.28017428

 Adding F12 terms to K(Cij), methodcc=6,  factor= 1.0

 ITER.      SQ.NORM     CORR.ENERGY   TOTAL ENERGY   ENERGY CHANGE        DEN1      VAR(S)    VAR(P)  DIIS     TIME  TIME/IT
   1      1.13382952    -0.51244404  -116.79261832    -0.01364015    -0.00173992  0.14D-02  0.20D-02  1  1   610.62   163.43
   2      1.14206320    -0.51308297  -116.79325725    -0.00063893    -0.00997476  0.29D-04  0.24D-03  2  2   771.54   163.58
   3      1.14509033    -0.51327509  -116.79344937    -0.00019212    -0.00214052  0.13D-04  0.14D-04  3  3   932.55   163.60
   4      1.14606704    -0.51329490  -116.79346918    -0.00001980    -0.00058302  0.67D-06  0.12D-05  4  4  1093.87   163.59
   5      1.14623425    -0.51329462  -116.79346890     0.00000028    -0.00003917  0.20D-06  0.88D-07  5  5  1255.05   163.55
   6      1.14627685    -0.51329184  -116.79346612     0.00000278    -0.00000608  0.21D-07  0.75D-08  6  6  1415.71   163.46
   7      1.14628820    -0.51329059  -116.79346487     0.00000125    -0.00000345  0.17D-08  0.70D-09  6  1  1576.31   163.39
   8      1.14628989    -0.51329065  -116.79346493    -0.00000006     0.00000042  0.24D-09  0.77D-10  6  3  1736.58   163.30
   9      1.14629090    -0.51329058  -116.79346486     0.00000007    -0.00000030  0.16D-10  0.13D-10  6  2  1897.40   163.25
  10      1.14629101    -0.51329058  -116.79346486     0.00000000     0.00000006  0.21D-11  0.14D-11  6  4  2057.92   163.18
  11      1.14629101    -0.51329058  -116.79346486     0.00000000     0.00000003  0.33D-12  0.20D-12  6  5  2218.91   163.17
  12      1.14629100    -0.51329058  -116.79346486    -0.00000000     0.00000001  0.66D-13  0.25D-13  6  6  2379.95   163.15
  13      1.14629098    -0.51329058  -116.79346486    -0.00000000     0.00000001  0.12D-13  0.33D-14  6  1  2540.21   163.09
  14      1.14629097    -0.51329058  -116.79346486    -0.00000000     0.00000000  0.18D-14  0.77D-15  6  3  2700.82   163.05
  15      1.14629097    -0.51329058  -116.79346486    -0.00000000     0.00000000  0.21D-15  0.11D-15  6  2  2860.89   162.99
  16      1.14629097    -0.51329058  -116.79346486    -0.00000000    -0.00000000  0.19D-16  0.14D-16  6  4  3020.84   162.95
  17      1.14629097    -0.51329058  -116.79346486     0.00000000    -0.00000000  0.26D-17  0.21D-17  6  5  3180.43   162.88

 Norm of t1 vector:      0.04958350      S-energy:    -0.00000000      T1 diagnostic:  0.00876521
                                                                       D1 diagnostic:  0.01883298

 Adding energy correction from Wij-K(Fij), methodcc=6  factor= 1.0

  CCSD correlation energy              -0.513290579616
  MP2-F12 correction (uncoupled)       -0.020213479408
  C*T doubles correction               -0.000558631050
  f12b correction                       0.004655783478

   CPU time for triples:   2030.12 sec for i =  1 -  7 /  8 (~  68.8 % done)
   CPU time for triples:    814.91 sec for i =  8 -  8 /  8 (  100.0 % done)

 Total CPU time for triples:   2854.15 sec

  Ecorr(MP2)                           -0.498803886312
  Ecorr(MP2-F12)                       -0.519599934485
  Scale factor for triples energy       1.041691832690


 RESULTS
 =======

  Reference energy                   -116.279645986160
  F12 singles correction               -0.000528294977

 F12 singles corrections added to reference energy

  New reference energy               -116.280174281137

  F12a singlet correction              -0.019154770874
  F12a triplet correction              -0.001617339584
  F12a total correction                -0.020772110458

 F12a corrections for ansatz F12/3C(FIX) added to CCSD energy

  CCSD-F12a singlet pair energy        -0.387745349113
  CCSD-F12a triplet pair energy        -0.146317340766
  CCSD-F12a correlation energy         -0.534062690074

  Triples (T) contribution (scaled)    -0.017049818590
  Total correlation energy             -0.551112508664

  CCSD-F12a total energy             -116.814236971211
  CCSD[T]-F12a energy                -116.831850732173
  CCSD-T-F12a energy                 -116.831074824004
 !CCSD(T)-F12a total energy          -116.831286789801

 F12b corrections for ansatz F12/3C(FIX) added to CCSD(T)-F12a energy

  CCSD-F12b singlet pair energy        -0.383304610727
  CCSD-F12b triplet pair energy        -0.146102295674
  CCSD-F12b correlation energy         -0.529406906596

  Triples (T) contribution (scaled)    -0.017049818590
  Total correlation energy             -0.546456725186

  CCSD-F12b total energy             -116.809581187733
  CCSD[T]-F12b energy                -116.827194948695
  CCSD-T-F12b energy                 -116.826419040525
 !CCSD(T)-F12b total energy          -116.826631006323

 Timing summary (sec):

 STEP                 CPU(USER)    SYS     CPU(TOT)    WALL
 Transformation        340.92      7.22    348.14    352.19
 CCSD iterations      2729.31     29.37   2758.68   2769.13
 Triples              2854.15      6.02   2860.17   2864.35
 MP2-F12               110.30      2.90    113.20    113.34
 F12b energy           136.06      1.26    137.32    137.48

 Program statistics:

 Available memory in ccsd:              1999999554
 Min. memory needed in ccsd:              16971337
 Max. memory used in ccsd:                21987113
 Max. memory used in cckext:              15122080 (18 integral passes)



 **********************************************************************************************************************************
 DATASETS  * FILE   NREC   LENGTH (MB)   RECORD NAMES
              1      19     2602.04       500      610      700      900      950      970     1000      129      960     1100   
                                          VAR    BASINP    GEOM    SYMINP    ZMAT    AOBASIS   BASIS     P2S    ABASIS      S 
                                         1400     1410     1200     1210     1080     1600     1650     1700     1380   
                                           T        V       H0       H01     AOSYM     SMH    MOLCAS    OPER     JKOP   

              2       6       10.56       700     1000      520     2100     7360     7350   
                                         GEOM     BASIS   MCVARS     RHF    F12ABS    EF12   

 PROGRAMS   *        TOTAL   CCSD(T)    HF-SCF       INT
 CPU TIMES  *      6688.51   6170.98    214.64    302.64
 REAL TIME  *      7004.32 SEC
 DISK USED  *         3.24 GB (local),       77.11 GB (total)
 SF USED    *         5.12 GB
 GA USED    *         4.87 MB       (max)       0.00 MB       (current)
 **********************************************************************************************************************************

 Running procedure: SET_MONOMER1

 Dummy atoms: C1  H41  H42  H43  H44


 Recomputing one-electron integrals since nuclear charges changed


 PROGRAM * SEWARD (Integral evaluation for generally contracted gaussian basis sets)     Author: Roland Lindh, 1990

 Geometry written to block  1 of record 700


 Point group  C1  



 ATOMIC COORDINATES

 NR  ATOM    CHARGE       X              Y              Z

   1  O14     8.00   -8.257347274    8.608080443   -1.772185160
   2  H27     1.00   -8.759447505   10.077153532   -2.731599113
   3  H28     1.00   -9.852276123    7.752790399   -1.314682465
   4  C1      0.00   -6.193010455    2.801518980    2.403542658
   5  H41     0.00   -4.656285171    1.699997622    3.119937832
   6  H42     0.00   -5.973046335    4.726205038    2.982932688
   7  H43     0.00   -7.940251230    2.077186956    3.118237078
   8  H44     0.00   -6.176569838    2.685300823    0.384937212

 Bond lengths in Bohr (Angstrom)

 1-2  1.825035758  1-3  1.866715781  4-5  2.021904040  4-6  2.022002335  4-7  2.021953343
     ( 0.965767332)     ( 0.987823451)     ( 1.069945541)     ( 1.069997556)     ( 1.069971630)

 4-8  2.022015060
     ( 1.070004290)

 Bond angles

  2-1-3  105.22390814   5-4-6  109.53398059   5-4-7  109.65604535   5-4-8  108.43490854

  6-4-7  109.49436728   6-4-8  109.86987750   7-4-8  109.83468330

 NUCLEAR CHARGE:                   10
 NUMBER OF PRIMITIVE AOS:         578
 NUMBER OF SYMMETRY AOS:          474
 NUMBER OF CONTRACTIONS:          436   (  436A   )
 NUMBER OF CORE ORBITALS:           1   (    1A   )
 NUMBER OF VALENCE ORBITALS:        6   (    6A   )

 MOLECULE CHANGED: INITIALIZING OCCUPATION AND DUMP RECORDS


 NUCLEAR REPULSION ENERGY    9.00998347

 Basis set:  JKFIT                   
 Basis size:  1104
 Attributes:
 Sphericals:   T
 Basis set:  MP2FIT                  
 Basis size:  1246
 Attributes:
 Sphericals:   T
 Basis set:  RI                      
 Basis size:   730
 Attributes:
 Sphericals:   T
 Basis set:  TDDFT                   
 Basis size:  1246
 Attributes:
 Sphericals:   T

 Eigenvalues of metric

         1 0.158E-04 0.278E-04 0.357E-04 0.375E-04 0.634E-04 0.855E-04 0.965E-04 0.113E-03


 Contracted 2-electron integrals neglected if value below      1.0D-14

 OPERATOR DM      FOR CENTER  0  COORDINATES:    0.000000    0.000000    0.000000


 **********************************************************************************************************************************
 DATASETS  * FILE   NREC   LENGTH (MB)   RECORD NAMES
              1      18       37.12       500      610      700      900      950      970     1000      129      960     1100   
                                          VAR    BASINP    GEOM    SYMINP    ZMAT    AOBASIS   BASIS     P2S    ABASIS      S 
                                         1400     1410     1200     1210     1080     1600     1650     1700   
                                           T        V       H0       H01     AOSYM     SMH    MOLCAS    OPER   

              2       7       10.59       700     1000      520     2100     7360     7350      200   
                                         GEOM     BASIS   MCVARS     RHF    F12ABS    EF12    OPTIONS    

 PROGRAMS   *        TOTAL       INT   CCSD(T)    HF-SCF       INT
 CPU TIMES  *      6688.93      0.41   6170.98    214.64    302.64
 REAL TIME  *      7005.29 SEC
 DISK USED  *         3.24 GB (local),       77.11 GB (total)
 SF USED    *         5.12 GB
 GA USED    *         4.87 MB       (max)       0.00 MB       (current)
 **********************************************************************************************************************************


 PROGRAM * RHF-SCF (CLOSED SHELL)       Authors: W. Meyer, H.-J. Werner


 NUMBER OF ELECTRONS:       5+    5-    SPACE SYMMETRY=1    SPIN SYMMETRY: Singlet 
 CONVERGENCE THRESHOLDS:    1.00E-08 (Density)    1.00E-11 (Energy)
 MAX. NUMBER OF ITERATIONS:       60
 INTERPOLATION TYPE:            DIIS
 INTERPOLATION STEPS:              2 (START)      1 (STEP)
 LEVEL SHIFTS:                  0.00 (CLOSED)  0.00 (OPEN) 



 Orbital guess generated from atomic densities. Full valence occupancy:    7

 Molecular orbital dump at record        2101.2

 Initial occupancy:   5

 ITERATION    DDIFF          GRAD             ENERGY        2-EL.EN.            DIPOLE MOMENTS         DIIS   ORB.
    1      0.000D+00      0.000D+00       -76.02516334     77.426624   -1.07771    0.30878   -0.25373    0    start
    2      0.000D+00      0.467D-02       -76.05196648     73.776332   -0.62389    0.18494   -0.15083    1    diag
    3      0.221D-02      0.297D-02       -76.06349276     75.395294   -0.73644    0.21695   -0.17717    2    diag
    4      0.837D-03      0.278D-03       -76.06368658     75.304135   -0.73149    0.21673   -0.17676    3    diag
    5      0.105D-03      0.777D-04       -76.06370743     75.318412   -0.72963    0.21669   -0.17664    4    diag
    6      0.325D-04      0.154D-04       -76.06370877     75.317394   -0.72921    0.21674   -0.17665    5    diag
    7      0.820D-05      0.313D-05       -76.06370884     75.317539   -0.72907    0.21674   -0.17664    6    diag
    8      0.222D-05      0.590D-06       -76.06370884     75.317525   -0.72903    0.21673   -0.17663    7    diag
    9      0.422D-06      0.790D-07       -76.06370884     75.317516   -0.72902    0.21673   -0.17663    8    diag
   10      0.509D-07      0.180D-07       -76.06370884     75.317519   -0.72902    0.21673   -0.17663    9    orth
   11      0.127D-07      0.369D-08       -76.06370884     75.317519   -0.72902    0.21673   -0.17663    9    diag
   12      0.275D-08      0.724D-09       -76.06370884     75.317519   -0.72902    0.21673   -0.17663    0    orth

 Final occupancy:   5

 !RHF STATE  1.1 Energy               -76.063708839761
 Nuclear energy                         9.00998347
 One-electron energy                 -122.73245157
 Two-electron energy                   37.65875926
 Virial quotient                       -1.00191195
 !RHF STATE  1.1 Dipole moment         -0.72902111     0.21673307    -0.17663321
 Dipole moment /Debye                  -1.85286548     0.55084443    -0.44892743

 Orbital energies:

         1.1          2.1          3.1          4.1          5.1          6.1          7.1
    -20.567774    -1.342602    -0.708570    -0.579819    -0.508703     0.021237     0.032931


 HOMO      5.1    -0.508703 =     -13.8425eV
 LUMO      6.1     0.021237 =       0.5779eV
 LUMO-HOMO         0.529940 =      14.4204eV


 **********************************************************************************************************************************
 DATASETS  * FILE   NREC   LENGTH (MB)   RECORD NAMES
              1      18       37.12       500      610      700      900      950      970     1000      129      960     1100   
                                          VAR    BASINP    GEOM    SYMINP    ZMAT    AOBASIS   BASIS     P2S    ABASIS      S 
                                         1400     1410     1200     1210     1080     1600     1650     1700   
                                           T        V       H0       H01     AOSYM     SMH    MOLCAS    OPER   

              2       8       17.39       700     1000      520     2100     7360     7350      200     2101   
                                         GEOM     BASIS   MCVARS     RHF    F12ABS    EF12    OPTIONS    RHF  

 PROGRAMS   *        TOTAL    HF-SCF       INT   CCSD(T)    HF-SCF       INT
 CPU TIMES  *      6906.62    217.69      0.41   6170.98    214.64    302.64
 REAL TIME  *      7242.20 SEC
 DISK USED  *         3.24 GB (local),       77.11 GB (total)
 SF USED    *         5.12 GB
 GA USED    *         4.87 MB       (max)       0.00 MB       (current)
 **********************************************************************************************************************************

 Basis set:  JKFIT                   
 Basis size:  1104
 Attributes:
 Sphericals:   T
 Basis set:  MP2FIT                  
 Basis size:  1246
 Attributes:
 Sphericals:   T
 Basis set:  RI                      
 Basis size:   730
 Attributes:
 Sphericals:   T
 Basis set:  TDDFT                   
 Basis size:  1246
 Attributes:
 Sphericals:   T

 PROGRAM * CCSD (Closed-shell coupled cluster)     Authors: C. Hampel, H.-J. Werner, 1991, M. Deegan, P.J. Knowles, 1992

                                  CCSD-F12 implementation by  H.-J. Werner, 2007

                   Density fitting integral evaluation by F.R. Manby, 2003,2007, G. Knizia, 2010



 Convergence thresholds:  THRVAR = 1.00D-08  THRDEN = 1.00D-10

 CCSD(T)     terms to be evaluated (factor= 1.000)


 Number of core orbitals:           1 (   1 )
 Number of closed-shell orbitals:   4 (   4 )
 Number of external orbitals:     431 ( 431 )

 Molecular orbitals read from record     2101.2  Type=RHF/CANONICAL (state 1.1)

 MP2-F12 correlation treatment (H.-J. Werner, 2006)
 ==================================================

 Using MP2-F12 with ansatz 3C(FIX)

 Using projected zeroth-order Hamiltonian (+Z)

 FOCKRIB=T FOCKRIC=T FOCKRIP=T CABSP=T CABSA=T CABSK=T CABSF=T GBC=F EBC=F DMAT=T NOFIK=T NOPAO=1 SOLVE=-1  USEPAO=0
 EXCH_A= T EXCH_B= F EXCH_C= F EXCH_P= F

 Geminal basis:    OPTFULL  GEM_TYPE=SLATER  BETA=1.0  NGEM=6

 Optimizing Gaussian exponents for each gem_beta

 Geminal optimization for beta= 1.0000
 Weight function:   m=0, omega= 1.4646

 Augmented Hessian optimization of geminal fit. Trust ratio= 0.40000
 Convergence reached after   2 iterations. Final gradient= 8.31D-16, Step= 4.24D-06, Delta= 1.28D-09

 Alpha:                 0.19532     0.81920     2.85917     9.50073    35.69989   197.79328
 Coeff:                 0.27070     0.30552     0.18297     0.10986     0.06810     0.04224


 All pairs explicitly correlated. Number of r12-pairs:           10

 Excluding core orbitals from MO domains

 AO(A)-basis ORBITAL           loaded. Number of functions:     436
 RI(R)-basis RI                loaded. Number of functions:     730
 DF-basis JKFIT                loaded. Number of functions:    1104

 Screening thresholds:   THRAO=  1.00D-10  THRMO=  1.00D-09  THRPROD=  1.00D-09
                         THRSW=  1.00D-05  THROV=  1.00D-12  THRAOF12= 1.00D-10

 CPU time for Fock operators                     10.02 sec

 Construction of ABS:
 Smallest eigenvalue of S          2.27E-04  (threshold= 1.00E-08)
 Ratio eigmin/eigmax               3.95E-05  (threshold= 1.00E-09)
 Smallest eigenvalue of S kept     2.27E-04  (threshold= 2.27E-04, 0 functions deleted, 730 kept)

 Construction of CABS:
 Smallest eigenvalue of S          1.61E-08  (threshold= 1.00E-08)
 Ratio eigmin/eigmax               1.61E-08  (threshold= 1.00E-09)
 Smallest eigenvalue of S kept     1.61E-08  (threshold= 1.61E-08, 0 functions deleted, 730 kept)

 CPU time for CABS singles                        2.28 sec

 CABS-singles contribution of  -0.00028399 patched into reference energy.
 New reference energy         -76.06399283

 AO(A)-basis ORBITAL           loaded. Number of functions:     436
 RI(R)-basis RI                loaded. Number of functions:     730
 DF-basis MP2FIT               loaded. Number of functions:    1246

 Screening thresholds:   THRAO=  1.00D-10  THRMO=  1.00D-09  THRPROD=  1.00D-09
                         THRSW=  1.00D-05  THROV=  1.00D-12  THRAOF12= 1.00D-10

 CPU time for 3-index integral evaluation        19.39 sec
 CPU time for first  half transformation          3.74 sec ( 1727.8 MFLOP/sec)
 CPU time for second half transformation          0.02 sec ( 1914.9 MFLOP/sec)
 CPU time for sorting                             0.05 sec
 CPU time for fitting                             1.47 sec ( 3394.4 MFLOP/sec)
 CPU time for tilde quantities                    1.78 sec ( 2812.0 MFLOP/sec)
 CPU time for assembly                            5.15 sec ( 3890.5 MFLOP/sec)
 CPU time for tranop_f12                          4.71 sec ( 3556.1 MFLOP/sec)
 CPU time for f12 integrals (total)              43.82 sec, Elapsed time:     44.93 sec
 F12-matrices built in  4 passes.
 F12-matrices built in  4 passes.
 F12-matrices built in  4 passes.
 F12-matrices built in  4 passes.
 FC-matrix built in  4 passes.
 CPU time for f12 matrices (total)                1.71 sec, Elapsed time:      1.74 sec

 Diagonal F12 approximation with fixed coefficients:  TSING= 0.500,  TTRIP= 0.250 (scaled by -1/beta)

 DF-MP2-F12 energy corrections:
 ==============================
 Approx.                                    Singlet             Triplet             Total
 DF-MP2-F12/3*C(DX,FIX)                -0.013735713526     -0.001532199053     -0.015267912580
 DF-MP2-F12/3*C(FIX)                   -0.012116372479     -0.001078252350     -0.013194624829
 DF-MP2-F12/3C(FIX)                    -0.012103252681     -0.001115410790     -0.013218663472

 DF-MP2-F12 correlation energies:
 ================================
 Approx.                                    Singlet             Triplet             Ecorr            Total Energy
 DF-MP2                                -0.186063830312     -0.101321777649     -0.287385607961    -76.351378436129
 DF-MP2-F12/3*C(DX,FIX)                -0.199799543838     -0.102853976702     -0.302653520540    -76.366646348709
 DF-MP2-F12/3*C(FIX)                   -0.198180202791     -0.102400029998     -0.300580232789    -76.364573060958
 DF-MP2-F12/3C(FIX)                    -0.198167082993     -0.102437188439     -0.300604271432    -76.364597099601

 SCS-DF-MP2 energies (F_SING= 1.20000  F_TRIP= 0.62222  F_PARALLEL= 0.33333):
 ============================================================================
 SCS-DF-MP2                            -0.286321258022    -76.350314086191
 SCS-DF-MP2-F12/3*C(DX,FIX)            -0.303757482554    -76.367750310723
 SCS-DF-MP2-F12/3*C(FIX)               -0.301531817571    -76.365524645739
 SCS-DF-MP2-F12/3C(FIX)                -0.301539194621    -76.365532022789
 Symmetry transformation completed.

 Number of N-1 electron functions:               4
 Number of N-2 electron functions:              10
 Number of singly external CSFs:              1724
 Number of doubly external CSFs:           1486950
 Total number of CSFs:                     1488675

 Pair and operator lists are different

 Length of J-op  integral file:             203.65 MB
 Length of K-op  integral file:             338.08 MB
 Length of 3-ext integral record:             0.00 MB

 Memory could be reduced to 526.20 Mwords without degradation in triples

 Integral transformation finished. Total CPU: 166.90 sec, npass=  1  Memory used: 214.75 MW

 Reference energy:                    -76.06399283

 Adding F12 terms to K(Cij), methodcc=6,  factor= 1.0

 ITER.      SQ.NORM     CORR.ENERGY   TOTAL ENERGY   ENERGY CHANGE        DEN1      VAR(S)    VAR(P)  DIIS     TIME  TIME/IT
   1      1.06340101    -0.28684981   -76.35084264     0.00053987     0.00668344  0.78D-03  0.10D-02  1  1   278.71    49.59
   2      1.06691230    -0.28664646   -76.35063929     0.00020335    -0.00486036  0.13D-04  0.11D-03  2  2   327.33    49.90
   3      1.06812988    -0.28674220   -76.35073503    -0.00009574    -0.00081344  0.98D-05  0.74D-05  3  3   376.58    50.21
   4      1.06867975    -0.28675703   -76.35074985    -0.00001482    -0.00033838  0.52D-06  0.70D-06  4  4   425.85    50.33
   5      1.06878376    -0.28675535   -76.35074818     0.00000167    -0.00002827  0.16D-06  0.52D-07  5  5   474.77    50.34
   6      1.06881616    -0.28675321   -76.35074604     0.00000214    -0.00000412  0.17D-07  0.41D-08  6  6   523.70    50.36
   7      1.06882507    -0.28675260   -76.35074543     0.00000061    -0.00000190  0.10D-08  0.50D-09  6  1   572.57    50.35
   8      1.06882655    -0.28675259   -76.35074542     0.00000001     0.00000006  0.14D-09  0.55D-10  6  2   621.34    50.35
   9      1.06882707    -0.28675258   -76.35074541     0.00000002     0.00000002  0.11D-10  0.82D-11  6  3   670.36    50.36
  10      1.06882717    -0.28675258   -76.35074540     0.00000000     0.00000002  0.17D-11  0.74D-12  6  4   719.16    50.35
  11      1.06882716    -0.28675258   -76.35074540    -0.00000000     0.00000002  0.34D-12  0.12D-12  6  5   768.06    50.36
  12      1.06882715    -0.28675258   -76.35074540    -0.00000000     0.00000000  0.67D-13  0.18D-13  6  6   816.88    50.36
  13      1.06882715    -0.28675258   -76.35074541    -0.00000000     0.00000000  0.10D-13  0.28D-14  6  1   865.23    50.34
  14      1.06882714    -0.28675258   -76.35074541    -0.00000000     0.00000000  0.12D-14  0.65D-15  6  2   914.06    50.34
  15      1.06882714    -0.28675258   -76.35074541    -0.00000000     0.00000000  0.14D-15  0.85D-16  6  3   962.56    50.31
  16      1.06882714    -0.28675258   -76.35074541    -0.00000000     0.00000000  0.16D-16  0.11D-16  6  4  1011.15    50.28

 Norm of t1 vector:      0.03668600      S-energy:    -0.00000000      T1 diagnostic:  0.00917150
                                                                       D1 diagnostic:  0.01861735

 Adding energy correction from Wij-K(Fij), methodcc=6  factor= 1.0

  CCSD correlation energy              -0.286752577278
  MP2-F12 correction (uncoupled)       -0.012762393611
  C*T doubles correction               -0.000430429993
  f12b correction                       0.002714954781


 Total CPU time for triples:    433.87 sec

  Ecorr(MP2)                           -0.287389684235
  Ecorr(MP2-F12)                       -0.300608347707
  Scale factor for triples energy       1.045995608738


 RESULTS
 =======

  Reference energy                    -76.063708839762
  F12 singles correction               -0.000283988407

 F12 singles corrections added to reference energy

  New reference energy                -76.063992828169

  F12a singlet correction              -0.012068857760
  F12a triplet correction              -0.001123965845
  F12a total correction                -0.013192823604

 F12a corrections for ansatz F12/3C(FIX) added to CCSD energy

  CCSD-F12a singlet pair energy        -0.209211843644
  CCSD-F12a triplet pair energy        -0.090733557221
  CCSD-F12a correlation energy         -0.299945400882

  Triples (T) contribution (scaled)    -0.009908770926
  Total correlation energy             -0.309854171807

  CCSD-F12a total energy              -76.363938229051
  CCSD[T]-F12a energy                 -76.374172091080
  CCSD-T-F12a energy                  -76.373705939007
 !CCSD(T)-F12a total energy           -76.373846999976

 F12b corrections for ansatz F12/3C(FIX) added to CCSD(T)-F12a energy

  CCSD-F12b singlet pair energy        -0.206643774147
  CCSD-F12b triplet pair energy        -0.090586671937
  CCSD-F12b correlation energy         -0.297230446101

  Triples (T) contribution (scaled)    -0.009908770926
  Total correlation energy             -0.307139217026

  CCSD-F12b total energy              -76.361223274270
  CCSD[T]-F12b energy                 -76.371457136299
  CCSD-T-F12b energy                  -76.370990984226
 !CCSD(T)-F12b total energy           -76.371132045195

 Timing summary (sec):

 STEP                 CPU(USER)    SYS     CPU(TOT)    WALL
 Transformation        167.27      4.14    171.41    171.83
 CCSD iterations       780.81     22.92    803.73    804.72
 Triples               433.87      0.98    434.85    435.39
 MP2-F12                63.16      1.39     64.55     64.61
 F12b energy            43.28      1.07     44.35     44.41

 Program statistics:

 Available memory in ccsd:              1999999871
 Min. memory needed in ccsd:               6763924
 Max. memory used in ccsd:                 7862874
 Max. memory used in cckext:               5171974 (17 integral passes)



 **********************************************************************************************************************************
 DATASETS  * FILE   NREC   LENGTH (MB)   RECORD NAMES
              1      19     1346.98       500      610      700      900      950      970     1000      129      960     1100   
                                          VAR    BASINP    GEOM    SYMINP    ZMAT    AOBASIS   BASIS     P2S    ABASIS      S 
                                         1400     1410     1200     1210     1080     1600     1650     1700     1380   
                                           T        V       H0       H01     AOSYM     SMH    MOLCAS    OPER     JKOP   

              2       8       17.39       700     1000      520     2100     7360     7350      200     2101   
                                         GEOM     BASIS   MCVARS     RHF    F12ABS    EF12    OPTIONS    RHF  

 PROGRAMS   *        TOTAL   CCSD(T)    HF-SCF       INT   CCSD(T)    HF-SCF       INT
 CPU TIMES  *      8395.27   1488.64    217.69      0.41   6170.98    214.64    302.64
 REAL TIME  *      8763.91 SEC
 DISK USED  *         3.24 GB (local),       77.11 GB (total)
 SF USED    *         5.12 GB
 GA USED    *         4.87 MB       (max)       0.00 MB       (current)
 **********************************************************************************************************************************

 Running procedure: SET_MONOMER2

 Dummy atoms: O14  H27  H28


 Recomputing one-electron integrals since nuclear charges changed


 PROGRAM * SEWARD (Integral evaluation for generally contracted gaussian basis sets)     Author: Roland Lindh, 1990

 Geometry written to block  1 of record 700


 Point group  C1  



 ATOMIC COORDINATES

 NR  ATOM    CHARGE       X              Y              Z

   1  O14     0.00   -8.257347274    8.608080443   -1.772185160
   2  H27     0.00   -8.759447505   10.077153532   -2.731599113
   3  H28     0.00   -9.852276123    7.752790399   -1.314682465
   4  C1      6.00   -6.193010455    2.801518980    2.403542658
   5  H41     1.00   -4.656285171    1.699997622    3.119937832
   6  H42     1.00   -5.973046335    4.726205038    2.982932688
   7  H43     1.00   -7.940251230    2.077186956    3.118237078
   8  H44     1.00   -6.176569838    2.685300823    0.384937212

 Bond lengths in Bohr (Angstrom)

 1-2  1.825035758  1-3  1.866715781  4-5  2.021904040  4-6  2.022002335  4-7  2.021953343
     ( 0.965767332)     ( 0.987823451)     ( 1.069945541)     ( 1.069997556)     ( 1.069971630)

 4-8  2.022015060
     ( 1.070004290)

 Bond angles

  2-1-3  105.22390814   5-4-6  109.53398059   5-4-7  109.65604535   5-4-8  108.43490854

  6-4-7  109.49436728   6-4-8  109.86987750   7-4-8  109.83468330

 NUCLEAR CHARGE:                   10
 NUMBER OF PRIMITIVE AOS:         578
 NUMBER OF SYMMETRY AOS:          474
 NUMBER OF CONTRACTIONS:          436   (  436A   )
 NUMBER OF CORE ORBITALS:           1   (    1A   )
 NUMBER OF VALENCE ORBITALS:        8   (    8A   )

 MOLECULE CHANGED: INITIALIZING OCCUPATION AND DUMP RECORDS


 NUCLEAR REPULSION ENERGY   13.68681606

 Basis set:  JKFIT                   
 Basis size:  1104
 Attributes:
 Sphericals:   T
 Basis set:  MP2FIT                  
 Basis size:  1246
 Attributes:
 Sphericals:   T
 Basis set:  RI                      
 Basis size:   730
 Attributes:
 Sphericals:   T
 Basis set:  TDDFT                   
 Basis size:  1246
 Attributes:
 Sphericals:   T

 Eigenvalues of metric

         1 0.158E-04 0.278E-04 0.357E-04 0.375E-04 0.634E-04 0.855E-04 0.965E-04 0.113E-03


 Contracted 2-electron integrals neglected if value below      1.0D-14

 OPERATOR DM      FOR CENTER  0  COORDINATES:    0.000000    0.000000    0.000000


 **********************************************************************************************************************************
 DATASETS  * FILE   NREC   LENGTH (MB)   RECORD NAMES
              1      18       37.12       500      610      700      900      950      970     1000      129      960     1100   
                                          VAR    BASINP    GEOM    SYMINP    ZMAT    AOBASIS   BASIS     P2S    ABASIS      S 
                                         1400     1410     1200     1210     1080     1600     1650     1700   
                                           T        V       H0       H01     AOSYM     SMH    MOLCAS    OPER   

              2       8       17.39       700     1000      520     2100     7360     7350      200     2101   
                                         GEOM     BASIS   MCVARS     RHF    F12ABS    EF12    OPTIONS    RHF  

 PROGRAMS   *        TOTAL       INT   CCSD(T)    HF-SCF       INT   CCSD(T)    HF-SCF       INT
 CPU TIMES  *      8395.69      0.43   1488.64    217.69      0.41   6170.98    214.64    302.64
 REAL TIME  *      8764.75 SEC
 DISK USED  *         3.24 GB (local),       77.11 GB (total)
 SF USED    *         5.12 GB
 GA USED    *         4.87 MB       (max)       0.00 MB       (current)
 **********************************************************************************************************************************


 PROGRAM * RHF-SCF (CLOSED SHELL)       Authors: W. Meyer, H.-J. Werner


 NUMBER OF ELECTRONS:       5+    5-    SPACE SYMMETRY=1    SPIN SYMMETRY: Singlet 
 CONVERGENCE THRESHOLDS:    1.00E-08 (Density)    1.00E-11 (Energy)
 MAX. NUMBER OF ITERATIONS:       60
 INTERPOLATION TYPE:            DIIS
 INTERPOLATION STEPS:              2 (START)      1 (STEP)
 LEVEL SHIFTS:                  0.00 (CLOSED)  0.00 (OPEN) 



 Orbital guess generated from atomic densities. Full valence occupancy:    9

 Molecular orbital dump at record        2102.2

 Initial occupancy:   5

 ITERATION    DDIFF          GRAD             ENERGY        2-EL.EN.            DIPOLE MOMENTS         DIIS   ORB.
    1      0.000D+00      0.000D+00       -40.19609520     53.506284    0.00411   -0.00276   -0.00131    0    start
    2      0.000D+00      0.257D-02       -40.21334923     52.217617    0.00128   -0.00087   -0.00039    1    diag
    3      0.158D-02      0.998D-03       -40.21562514     52.672076    0.00182   -0.00123   -0.00055    2    diag
    4      0.443D-03      0.249D-03       -40.21594459     52.617263    0.00161   -0.00110   -0.00049    3    diag
    5      0.166D-03      0.322D-04       -40.21595008     52.619411    0.00158   -0.00108   -0.00048    4    diag
    6      0.417D-04      0.264D-05       -40.21595013     52.619548    0.00158   -0.00108   -0.00048    5    diag
    7      0.561D-05      0.212D-06       -40.21595013     52.619508    0.00158   -0.00108   -0.00047    6    diag
    8      0.210D-06      0.170D-07       -40.21595013     52.619509    0.00158   -0.00108   -0.00047    7    diag
    9      0.819D-07      0.218D-08       -40.21595013     52.619509    0.00158   -0.00108   -0.00047    8    diag
   10      0.840D-08      0.595D-09       -40.21595013     52.619509    0.00158   -0.00108   -0.00047    0    orth

 Final occupancy:   5

 !RHF STATE  1.1 Energy               -40.215950126095
 Nuclear energy                        13.68681606
 One-electron energy                  -80.21252088
 Two-electron energy                   26.30975469
 Virial quotient                       -0.99838105
 !RHF STATE  1.1 Dipole moment          0.00158242    -0.00108097    -0.00047479
 Dipole moment /Debye                   0.00402186    -0.00274737    -0.00120671

 Orbital energies:

         1.1          2.1          3.1          4.1          5.1          6.1          7.1
    -11.196224    -0.950661    -0.551889    -0.549954    -0.547777     0.023801     0.035808


 HOMO      5.1    -0.547777 =     -14.9058eV
 LUMO      6.1     0.023801 =       0.6477eV
 LUMO-HOMO         0.571577 =      15.5534eV


 **********************************************************************************************************************************
 DATASETS  * FILE   NREC   LENGTH (MB)   RECORD NAMES
              1      18       37.12       500      610      700      900      950      970     1000      129      960     1100   
                                          VAR    BASINP    GEOM    SYMINP    ZMAT    AOBASIS   BASIS     P2S    ABASIS      S 
                                         1400     1410     1200     1210     1080     1600     1650     1700   
                                           T        V       H0       H01     AOSYM     SMH    MOLCAS    OPER   

              2       9       27.51       700     1000      520     2100     7360     7350      200     2101     2102   
                                         GEOM     BASIS   MCVARS     RHF    F12ABS    EF12    OPTIONS    RHF      RHF  

 PROGRAMS   *        TOTAL    HF-SCF       INT   CCSD(T)    HF-SCF       INT   CCSD(T)    HF-SCF       INT
 CPU TIMES  *      8576.73    181.04      0.43   1488.64    217.69      0.41   6170.98    214.64    302.64
 REAL TIME  *      8962.44 SEC
 DISK USED  *         3.24 GB (local),       77.11 GB (total)
 SF USED    *         5.12 GB
 GA USED    *         4.87 MB       (max)       0.00 MB       (current)
 **********************************************************************************************************************************

 Basis set:  JKFIT                   
 Basis size:  1104
 Attributes:
 Sphericals:   T
 Basis set:  MP2FIT                  
 Basis size:  1246
 Attributes:
 Sphericals:   T
 Basis set:  RI                      
 Basis size:   730
 Attributes:
 Sphericals:   T
 Basis set:  TDDFT                   
 Basis size:  1246
 Attributes:
 Sphericals:   T

 PROGRAM * CCSD (Closed-shell coupled cluster)     Authors: C. Hampel, H.-J. Werner, 1991, M. Deegan, P.J. Knowles, 1992

                                  CCSD-F12 implementation by  H.-J. Werner, 2007

                   Density fitting integral evaluation by F.R. Manby, 2003,2007, G. Knizia, 2010



 Convergence thresholds:  THRVAR = 1.00D-08  THRDEN = 1.00D-10

 CCSD(T)     terms to be evaluated (factor= 1.000)


 Number of core orbitals:           1 (   1 )
 Number of closed-shell orbitals:   4 (   4 )
 Number of external orbitals:     431 ( 431 )

 Molecular orbitals read from record     2102.2  Type=RHF/CANONICAL (state 1.1)

 MP2-F12 correlation treatment (H.-J. Werner, 2006)
 ==================================================

 Using MP2-F12 with ansatz 3C(FIX)

 Using projected zeroth-order Hamiltonian (+Z)

 FOCKRIB=T FOCKRIC=T FOCKRIP=T CABSP=T CABSA=T CABSK=T CABSF=T GBC=F EBC=F DMAT=T NOFIK=T NOPAO=1 SOLVE=-1  USEPAO=0
 EXCH_A= T EXCH_B= F EXCH_C= F EXCH_P= F

 Geminal basis:    OPTFULL  GEM_TYPE=SLATER  BETA=1.0  NGEM=6

 Optimizing Gaussian exponents for each gem_beta

 Geminal optimization for beta= 1.0000
 Weight function:   m=0, omega= 1.4646

 Augmented Hessian optimization of geminal fit. Trust ratio= 0.40000
 Convergence reached after   2 iterations. Final gradient= 7.85D-16, Step= 4.26D-06, Delta= 1.28D-09

 Alpha:                 0.19532     0.81920     2.85917     9.50073    35.69989   197.79328
 Coeff:                 0.27070     0.30552     0.18297     0.10986     0.06810     0.04224


 All pairs explicitly correlated. Number of r12-pairs:           10

 Excluding core orbitals from MO domains

 AO(A)-basis ORBITAL           loaded. Number of functions:     436
 RI(R)-basis RI                loaded. Number of functions:     730
 DF-basis JKFIT                loaded. Number of functions:    1104

 Screening thresholds:   THRAO=  1.00D-10  THRMO=  1.00D-09  THRPROD=  1.00D-09
                         THRSW=  1.00D-05  THROV=  1.00D-12  THRAOF12= 1.00D-10

 CPU time for Fock operators                     10.62 sec

 Construction of ABS:
 Smallest eigenvalue of S          2.27E-04  (threshold= 1.00E-08)
 Ratio eigmin/eigmax               3.95E-05  (threshold= 1.00E-09)
 Smallest eigenvalue of S kept     2.27E-04  (threshold= 2.27E-04, 0 functions deleted, 730 kept)

 Construction of CABS:
 Smallest eigenvalue of S          1.61E-08  (threshold= 1.00E-08)
 Ratio eigmin/eigmax               1.61E-08  (threshold= 1.00E-09)
 Smallest eigenvalue of S kept     1.61E-08  (threshold= 1.61E-08, 0 functions deleted, 730 kept)

 CPU time for CABS singles                        2.36 sec

 CABS-singles contribution of  -0.00024522 patched into reference energy.
 New reference energy         -40.21619535

 AO(A)-basis ORBITAL           loaded. Number of functions:     436
 RI(R)-basis RI                loaded. Number of functions:     730
 DF-basis MP2FIT               loaded. Number of functions:    1246

 Screening thresholds:   THRAO=  1.00D-10  THRMO=  1.00D-09  THRPROD=  1.00D-09
                         THRSW=  1.00D-05  THROV=  1.00D-12  THRAOF12= 1.00D-10

 CPU time for 3-index integral evaluation        19.32 sec
 CPU time for first  half transformation          3.62 sec ( 1769.8 MFLOP/sec)
 CPU time for second half transformation          0.04 sec (  956.1 MFLOP/sec)
 CPU time for sorting                             0.08 sec
 CPU time for fitting                             1.15 sec ( 5159.8 MFLOP/sec)
 CPU time for tilde quantities                    1.54 sec ( 2657.4 MFLOP/sec)
 CPU time for assembly                            5.18 sec ( 3446.6 MFLOP/sec)
 CPU time for tranop_f12                          4.74 sec ( 3569.6 MFLOP/sec)
 CPU time for f12 integrals (total)              43.01 sec, Elapsed time:     43.94 sec
 F12-matrices built in  4 passes.
 F12-matrices built in  4 passes.
 F12-matrices built in  4 passes.
 F12-matrices built in  4 passes.
 FC-matrix built in  4 passes.
 CPU time for f12 matrices (total)                1.57 sec, Elapsed time:      1.58 sec

 Diagonal F12 approximation with fixed coefficients:  TSING= 0.500,  TTRIP= 0.250 (scaled by -1/beta)

 DF-MP2-F12 energy corrections:
 ==============================
 Approx.                                    Singlet             Triplet             Total
 DF-MP2-F12/3*C(DX,FIX)                -0.007498887927     -0.000575333806     -0.008074221733
 DF-MP2-F12/3*C(FIX)                   -0.007051951923     -0.000474001578     -0.007525953502
 DF-MP2-F12/3C(FIX)                    -0.007081041825     -0.000487526265     -0.007568568090

 DF-MP2-F12 correlation energies:
 ================================
 Approx.                                    Singlet             Triplet             Ecorr            Total Energy
 DF-MP2                                -0.154416698546     -0.056463271405     -0.210879969951    -40.427075315902
 DF-MP2-F12/3*C(DX,FIX)                -0.161915586473     -0.057038605211     -0.218954191683    -40.435149537635
 DF-MP2-F12/3*C(FIX)                   -0.161468650469     -0.056937272983     -0.218405923453    -40.434601269404
 DF-MP2-F12/3C(FIX)                    -0.161497740371     -0.056950797669     -0.218448538041    -40.434643883992

 SCS-DF-MP2 energies (F_SING= 1.20000  F_TRIP= 0.62222  F_PARALLEL= 0.33333):
 ============================================================================
 SCS-DF-MP2                            -0.220432740463    -40.436628086414
 SCS-DF-MP2-F12/3*C(DX,FIX)            -0.229789391454    -40.445984737405
 SCS-DF-MP2-F12/3*C(FIX)               -0.229190017086    -40.445385363038
 SCS-DF-MP2-F12/3C(FIX)                -0.229233340329    -40.445428686280
 Symmetry transformation completed.

 Number of N-1 electron functions:               4
 Number of N-2 electron functions:              10
 Number of singly external CSFs:              1724
 Number of doubly external CSFs:           1486950
 Total number of CSFs:                     1488675

 Pair and operator lists are different

 Length of J-op  integral file:             203.65 MB
 Length of K-op  integral file:             338.08 MB
 Length of 3-ext integral record:             0.00 MB

 Memory could be reduced to 526.20 Mwords without degradation in triples

 Integral transformation finished. Total CPU: 166.99 sec, npass=  1  Memory used: 214.75 MW

 Reference energy:                    -40.21619535

 Adding F12 terms to K(Cij), methodcc=6,  factor= 1.0

 ITER.      SQ.NORM     CORR.ENERGY   TOTAL ENERGY   ENERGY CHANGE        DEN1      VAR(S)    VAR(P)  DIIS     TIME  TIME/IT
   1      1.07023985    -0.22511539   -40.44131073    -0.01423004    -0.00847582  0.63D-03  0.94D-03  1  1   278.06    48.97
   2      1.07517050    -0.22596515   -40.44216049    -0.00084976    -0.00530340  0.15D-04  0.10D-03  2  2   326.13    49.35
   3      1.07679311    -0.22605297   -40.44224832    -0.00008783    -0.00117732  0.22D-05  0.59D-05  3  3   374.71    49.49
   4      1.07717609    -0.22606029   -40.44225563    -0.00000731    -0.00020554  0.14D-06  0.33D-06  4  4   423.27    49.61
   5      1.07722813    -0.22606192   -40.44225726    -0.00000163    -0.00000892  0.11D-07  0.20D-07  5  5   471.79    49.68
   6      1.07723672    -0.22606061   -40.44225596     0.00000130    -0.00000329  0.75D-09  0.15D-08  6  6   520.23    49.71
   7      1.07723805    -0.22606029   -40.44225564     0.00000032    -0.00000083  0.50D-10  0.11D-09  6  1   568.51    49.73
   8      1.07723802    -0.22606037   -40.44225571    -0.00000007     0.00000021  0.50D-11  0.65D-11  6  3   616.68    49.75
   9      1.07723815    -0.22606035   -40.44225569     0.00000002    -0.00000009  0.35D-12  0.51D-12  6  2   664.94    49.76
  10      1.07723815    -0.22606034   -40.44225569     0.00000000     0.00000001  0.48D-13  0.55D-13  6  4   713.24    49.75
  11      1.07723816    -0.22606034   -40.44225569     0.00000000    -0.00000000  0.45D-14  0.57D-14  6  5   761.72    49.76
  12      1.07723815    -0.22606034   -40.44225569     0.00000000     0.00000000  0.97D-16  0.60D-15  6  6   809.98    49.74
  13      1.07723815    -0.22606034   -40.44225569    -0.00000000     0.00000000  0.70D-17  0.65D-16  6  1   858.11    49.73
  14      1.07723815    -0.22606034   -40.44225569    -0.00000000     0.00000000  0.12D-17  0.86D-17  6  3   906.16    49.71

 Norm of t1 vector:      0.03291690      S-energy:    -0.00000000      T1 diagnostic:  0.00822922
                                                                       D1 diagnostic:  0.01319204

 Adding energy correction from Wij-K(Fij), methodcc=6  factor= 1.0

  CCSD correlation energy              -0.226060342763
  MP2-F12 correction (uncoupled)       -0.007443604869
  C*T doubles correction               -0.000127438808
  f12b correction                       0.001938167885

 Total CPU time for triples:    425.25 sec

  Ecorr(MP2)                           -0.210885347292
  Ecorr(MP2-F12)                       -0.218453915382
  Scale factor for triples energy       1.035889492500


 RESULTS
 =======

  Reference energy                    -40.215950126095
  F12 singles correction               -0.000245219856

 F12 singles corrections added to reference energy

  New reference energy                -40.216195345951

  F12a singlet correction              -0.007081123636
  F12a triplet correction              -0.000489920041
  F12a total correction                -0.007571043676

 F12a corrections for ansatz F12/3C(FIX) added to CCSD energy

  CCSD-F12a singlet pair energy        -0.178450472533
  CCSD-F12a triplet pair energy        -0.055180913902
  CCSD-F12a correlation energy         -0.233631386439

  Triples (T) contribution (scaled)    -0.007052777232
  Total correlation energy             -0.240684163671

  CCSD-F12a total energy              -40.449826732390
  CCSD[T]-F12a energy                 -40.457116053494
  CCSD-T-F12a energy                  -40.456809648882
 !CCSD(T)-F12a total energy           -40.456879509623

 F12b corrections for ansatz F12/3C(FIX) added to CCSD(T)-F12a energy

  CCSD-F12b singlet pair energy        -0.176579962166
  CCSD-F12b triplet pair energy        -0.055113256384
  CCSD-F12b correlation energy         -0.231693218554

  Triples (T) contribution (scaled)    -0.007052777232
  Total correlation energy             -0.238745995786

  CCSD-F12b total energy              -40.447888564505
  CCSD[T]-F12b energy                 -40.455177885608
  CCSD-T-F12b energy                  -40.454871480996
 !CCSD(T)-F12b total energy           -40.454941341737

 Timing summary (sec):

 STEP                 CPU(USER)    SYS     CPU(TOT)    WALL
 Transformation        167.35      4.04    171.39    171.85
 CCSD iterations       675.99     19.29    695.28    696.12
 Triples               425.25      0.96    426.21    426.74
 MP2-F12                62.91      1.23     64.14     64.21
 F12b energy            42.86      1.15     44.01     44.07

 Program statistics:

 Available memory in ccsd:              1999999866
 Min. memory needed in ccsd:               6763924
 Max. memory used in ccsd:                 7862874
 Max. memory used in cckext:               5171974 (15 integral passes)



 **********************************************************************************************************************************
 DATASETS  * FILE   NREC   LENGTH (MB)   RECORD NAMES
              1      19     1346.98       500      610      700      900      950      970     1000      129      960     1100   
                                          VAR    BASINP    GEOM    SYMINP    ZMAT    AOBASIS   BASIS     P2S    ABASIS      S 
                                         1400     1410     1200     1210     1080     1600     1650     1700     1380   
                                           T        V       H0       H01     AOSYM     SMH    MOLCAS    OPER     JKOP   

              2       9       27.51       700     1000      520     2100     7360     7350      200     2101     2102   
                                         GEOM     BASIS   MCVARS     RHF    F12ABS    EF12    OPTIONS    RHF      RHF  

 PROGRAMS   *        TOTAL   CCSD(T)    HF-SCF       INT   CCSD(T)    HF-SCF       INT   CCSD(T)    HF-SCF       INT
 CPU TIMES  *      9951.35   1374.60    181.04      0.43   1488.64    217.69      0.41   6170.98    214.64    302.64
 REAL TIME  *     10366.17 SEC
 DISK USED  *         3.24 GB (local),       77.11 GB (total)
 SF USED    *         5.12 GB
 GA USED    *         4.87 MB       (max)       0.00 MB       (current)
 **********************************************************************************************************************************
 Molecular orbitals read from record     2102.2  Type=RHF/CANONICAL (state 1.1)
 Occupation numbers read from record     2102.2  Type=RHF/RHF (state 1.1)
 Orbital energies read from record       2102.2  Type=RHF/CANONICAL (state 1.1)
 Redundancy group numbers read from rec  2102.2  Type=RHF/RHF (state 1.1)

 CCSD(T)-F12/aug-cc-pVQZ energy=    -40.454941341737

     CCSD(T)-F12          HF-SCF     CCSD(T)-F12          HF-SCF     CCSD(T)-F12          HF-SCF
    -40.45494134    -40.21595013    -76.37113205    -76.06370884   -116.82663101   -116.27964599
 **********************************************************************************************************************************
 Molpro calculation terminated
