
 Primary working directories    : /scratch/klimes/383248/molpro.SvRxzLdieu
 Secondary working directories  : /scratch/klimes/383248/molpro.SvRxzLdieu
 Wavefunction directory         : /scratch/klimes/383248/
 Main file repository           : /scratch/klimes/383248/molpro.SvRxzLdieu/

 id        : karlovklimes

 Nodes                      nprocs
 nc-07.cc.karlov.mff.cuni.cz    4

 Using customized tuning parameters: mindgm=1; mindgv=20; mindgc=4; mindgr=1; noblas=0; minvec=7
 default implementation of scratch files=sf  


 Variables initialized (930), CPU time= 0.01 sec
                                                                                 !gdirect
 memory,2000,m
 gthresh,orbital=1d-10,energy=1d-10,grid=1d-8
 
 symmetry,nosym
 angstrom
 geometry={
 O15        -6.012300000000     -1.326900000000      0.948000000000
 H29        -5.145500000000     -1.802000000000      0.952300000000
 H30        -6.682100000000     -2.019400000000      0.881700000000
 C1        -3.277200000000      1.482500000000      1.271900000000
 H41        -2.464000000000      0.899600000000      1.651000000000
 H42        -3.160800000000      2.501000000000      1.578500000000
 H43        -4.201800000000      1.099200000000      1.650100000000
 H44        -3.268500000000      1.421000000000      0.203700000000
 }
 
 nkerna=1
 nkernb=1
 
 gf=0
 sing=1
 thrdum=1d-4
 gridthr=1d-8
 
 basis={
 set,orbital
 default,avqz
 set,jkfit
 default,av5z/jkfit
 set,mp2fit
 default,av5z/mp2fit
 set,ri
 default,av5z/optri
 set,tddft
 default,av5z/mp2fit
 }
 
 proc set_monomer1
 dummy,4,5,6,7,8
 endproc
 
 proc set_monomer2
 dummy,1,2,3
 endproc
 
                                                                                 !12 energy
 {hf,accu=1.d-16}
 {ccsd(t)-f12,df_basis=mp2fit,df_basis_exch=jkfit,ri_basis=ri,scale_trip=1,THRAOF12=1d-10}
 
 set_monomer1
 {hf,accu=1.d-16}
 {ccsd(t)-f12,df_basis=mp2fit,df_basis_exch=jkfit,ri_basis=ri,scale_trip=1,THRAOF12=1d-10}
 
 set_monomer2
 {hf,accu=1.d-16}
 {ccsd(t)-f12,df_basis=mp2fit,df_basis_exch=jkfit,ri_basis=ri,scale_trip=1,THRAOF12=1d-10}
 
 Commands  initialized (760), CPU time= 0.02 sec, 617 directives.
 Default parameters read. Elapsed time= 0.16 sec

 Checking input...
 Passed
1


                                         ***  PROGRAM SYSTEM MOLPRO  ***
                                       Copyright, TTI GmbH Stuttgart, 2015
                                    Version 2019.1 linked Jan 14 2019 13:09:19


 **********************************************************************************************************************************
 LABEL *                                                                                 
  64 bit mpp version                                                                     DATE: 11-Mar-20          TIME: 18:08:25  
 **********************************************************************************************************************************

 SHA1:             d688ac825633d238f2093ded1675ba87ccd55965
 **********************************************************************************************************************************

 THRESHOLDS:

 ZERO    =  1.00D-12  ONEINT  =  1.00D-12  TWOINT  =  1.00D-11  PREFAC  =  1.00D-14  XXXXXX  =  1.00D-09  EORDER  =  1.00D-04
 ENERGY  =  1.00D-10  ETEST   =  0.00D+00  EDENS   =  0.00D+00  THRDEDEF=  1.00D-06  GRADIENT=  1.00D-02  STEP    =  1.00D-03
 ORBITAL =  1.00D-10  CIVEC   =  1.00D-05  COEFF   =  1.00D-04  PRINTCI =  5.00D-02  PUNCHCI =  9.90D+01  OPTGRAD =  3.00D-04
 OPTENERG=  1.00D-06  OPTSTEP =  3.00D-04  THRGRAD =  1.00D-10  COMPRESS=  1.00D-11  VARMIN  =  1.00D-07  VARMAX  =  1.00D-03
 THRDOUB =  0.00D+00  THRDIV  =  1.00D-05  THRRED  =  1.00D-07  THRPSP  =  1.00D+00  THRDC   =  1.00D-10  THRCS   =  1.00D-10
 THRNRM  =  1.00D-08  THREQ   =  0.00D+00  THRDE   =  1.00D+00  THRREF  =  1.00D-05  SPARFAC =  1.00D+00  THRDLP  =  1.00D-07
 THRDIA  =  1.00D-10  THRDLS  =  1.00D-07  THRGPS  =  0.00D+00  THRKEX  =  0.00D+00  THRDIS  =  2.00D-01  THRVAR  =  1.00D-10
 THRLOC  =  1.00D-06  THRGAP  =  1.00D-06  THRLOCT = -1.00D+00  THRGAPT = -1.00D+00  THRORB  =  1.00D-06  THRMLTP =  0.00D+00
 THRCPQCI=  1.00D-10  KEXTA   =  0.00D+00  THRCOARS=  0.00D+00  SYMTOL  =  1.00D-06  GRADTOL =  1.00D-06  THROVL  =  1.00D-08
 THRORTH =  1.00D-08  GRID    =  1.00D-08  GRIDMAX =  1.00D-03  DTMAX   =  0.00D+00  THROCCDE=  1.00D-01  THROCCDE=  1.00D-01
 THRPRINT=  2.50D-01


 Variable memory set to 2000000000 words,  buffer space 

 ZSYMEL=NOSYM
 ZUNIT=ANG


Geometry recognized as XYZ

 SETTING NKERNA         =         1.00000000                                  
 SETTING NKERNB         =         1.00000000                                  
 SETTING GF             =     0.00000000D+00                                  
 SETTING SING           =         1.00000000                                  
 SETTING THRDUM         =     1.00000000D-04                                  
 SETTING GRIDTHR        =     1.00000000D-08                                  
 SETTING BASIS          =    AVQZ


 Recomputing integrals since basis changed


 Using spherical harmonics

 Library entry O      S aug-cc-pVQZ          selected for orbital group  1
 Library entry O      P aug-cc-pVQZ          selected for orbital group  1
 Library entry O      D aug-cc-pVQZ          selected for orbital group  1
 Library entry O      F aug-cc-pVQZ          selected for orbital group  1
 Library entry O      G aug-cc-pVQZ          selected for orbital group  1
 Library entry H      S aug-cc-pVQZ          selected for orbital group  2
 Library entry H      P aug-cc-pVQZ          selected for orbital group  2
 Library entry H      D aug-cc-pVQZ          selected for orbital group  2
 Library entry H      F aug-cc-pVQZ          selected for orbital group  2
 Library entry C      S aug-cc-pVQZ          selected for orbital group  3
 Library entry C      P aug-cc-pVQZ          selected for orbital group  3
 Library entry C      D aug-cc-pVQZ          selected for orbital group  3
 Library entry C      F aug-cc-pVQZ          selected for orbital group  3
 Library entry C      G aug-cc-pVQZ          selected for orbital group  3


 PROGRAM * SEWARD (Integral evaluation for generally contracted gaussian basis sets)     Author: Roland Lindh, 1990

 Geometry written to block  1 of record 700


 Point group  C1  



 ATOMIC COORDINATES

 NR  ATOM    CHARGE       X              Y              Z

   1  O15     8.00  -11.361600379   -2.507477595    1.791460366
   2  H29     1.00   -9.723585774   -3.405286476    1.799586188
   3  H30     1.00  -12.627338937   -3.816112936    1.666171524
   4  C1      6.00   -6.193010455    2.801518980    2.403542658
   5  H41     1.00   -4.656285171    1.699997622    3.119937832
   6  H42     1.00   -5.973046335    4.726205038    2.982932688
   7  H43     1.00   -7.940251230    2.077186956    3.118237078
   8  H44     1.00   -6.176569838    2.685300823    0.384937212

 Bond lengths in Bohr (Angstrom)

 1-2  1.867945037  1-3  1.824915847  4-5  2.021904040  4-6  2.022002335  4-7  2.021953343
     ( 0.988473945)     ( 0.965703878)     ( 1.069945541)     ( 1.069997556)     ( 1.069971630)

 4-8  2.022015060
     ( 1.070004290)

 Bond angles

  2-1-3  105.29843553   5-4-6  109.53398059   5-4-7  109.65604535   5-4-8  108.43490854

  6-4-7  109.49436728   6-4-8  109.86987750   7-4-8  109.83468330

 NUCLEAR CHARGE:                   20
 NUMBER OF PRIMITIVE AOS:         578
 NUMBER OF SYMMETRY AOS:          474
 NUMBER OF CONTRACTIONS:          436   (  436A   )
 NUMBER OF CORE ORBITALS:           2   (    2A   )
 NUMBER OF VALENCE ORBITALS:       14   (   14A   )


 NUCLEAR REPULSION ENERGY   35.93228190


 Basis set:  JKFIT                   
 Basis size:  1104
 Attributes:
 Sphericals:   T
 Basis set:  MP2FIT                  
 Basis size:  1246
 Attributes:
 Sphericals:   T
 Basis set:  RI                      
 Basis size:   730
 Attributes:
 Sphericals:   T
 Basis set:  TDDFT                   
 Basis size:  1246
 Attributes:
 Sphericals:   T

 **********************************************************************************************************************************


 Eigenvalues of metric

         1 0.154E-04 0.263E-04 0.296E-04 0.386E-04 0.626E-04 0.835E-04 0.911E-04 0.978E-04


 Contracted 2-electron integrals neglected if value below      1.0D-14
 AO integral compression algorithm  1   Integral accuracy      1.0D-14

     21524.120 MB (compressed) written to integral file ( 53.7%)

     Node minimum: 5207.753 MB, node maximum: 5714.477 MB


 NUMBER OF SORTED TWO-ELECTRON INTEGRALS: 1134451344.     BUFFER LENGTH:  32768
 NUMBER OF SEGMENTS:  36  SEGMENT LENGTH:   31999984      RECORD LENGTH: 524288

 Memory used in sort:      32.56 MW

 SORT1 READ  5012305700. AND WROTE   921878759. INTEGRALS IN   2656 RECORDS. CPU TIME:   277.62 SEC, REAL TIME:   305.51 SEC
 SORT2 READ  3687389648. AND WROTE  4537853011. INTEGRALS IN  79464 RECORDS. CPU TIME:    18.37 SEC, REAL TIME:   115.52 SEC

 Node minimum:  1134427528.  Node maximum:  1134498978. integrals

 OPERATOR DM      FOR CENTER  0  COORDINATES:    0.000000    0.000000    0.000000


 **********************************************************************************************************************************
 DATASETS  * FILE   NREC   LENGTH (MB)   RECORD NAMES
              1      18       37.12       500      610      700      900      950      970     1000      129      960     1100   
                                          VAR    BASINP    GEOM    SYMINP    ZMAT    AOBASIS   BASIS     P2S    ABASIS      S 
                                         1400     1410     1200     1210     1080     1600     1650     1700   
                                           T        V       H0       H01     AOSYM     SMH    MOLCAS    OPER   

 PROGRAMS   *        TOTAL       INT
 CPU TIMES  *       357.56    357.33
 REAL TIME  *       526.12 SEC
 DISK USED  *        37.64 MB (local),       65.62 GB (total)
 GA USED    *         0.00 MB       (max)       0.00 MB       (current)
 **********************************************************************************************************************************


 PROGRAM * RHF-SCF (CLOSED SHELL)       Authors: W. Meyer, H.-J. Werner


 NUMBER OF ELECTRONS:      10+   10-    SPACE SYMMETRY=1    SPIN SYMMETRY: Singlet 
 CONVERGENCE THRESHOLDS:    1.00E-08 (Density)    1.00E-11 (Energy)
 MAX. NUMBER OF ITERATIONS:       60
 INTERPOLATION TYPE:            DIIS
 INTERPOLATION STEPS:              2 (START)      1 (STEP)
 LEVEL SHIFTS:                  0.00 (CLOSED)  0.00 (OPEN) 



 Orbital guess generated from atomic densities. Full valence occupancy:   16

 Molecular orbital dump at record        2100.2

 Initial occupancy:  10

 ITERATION    DDIFF          GRAD             ENERGY        2-EL.EN.            DIPOLE MOMENTS         DIIS   ORB.
    1      0.000D+00      0.000D+00      -116.22153009    157.608806    0.19979   -1.13506   -0.06155    0    start
    2      0.000D+00      0.378D-02      -116.26544271    152.575979    0.05562   -0.66709   -0.03878    1    diag
    3      0.273D-02      0.222D-02      -116.27897248    154.653311    0.08892   -0.78690   -0.04391    2    diag
    4      0.944D-03      0.329D-03      -116.27962453    154.539895    0.08585   -0.77625   -0.04304    3    diag
    5      0.203D-03      0.964D-04      -116.27969265    154.534709    0.08467   -0.77586   -0.04289    4    diag
    6      0.826D-04      0.234D-04      -116.27969647    154.540274    0.08427   -0.77505   -0.04279    5    diag
    7      0.224D-04      0.467D-05      -116.27969669    154.538676    0.08423   -0.77504   -0.04278    6    diag
    8      0.661D-05      0.118D-05      -116.27969671    154.538838    0.08419   -0.77497   -0.04277    7    diag
    9      0.145D-05      0.276D-06      -116.27969671    154.538811    0.08418   -0.77495   -0.04276    8    diag
   10      0.412D-06      0.328D-07      -116.27969671    154.538812    0.08418   -0.77495   -0.04277    9    orth
   11      0.443D-07      0.751D-08      -116.27969671    154.538814    0.08418   -0.77495   -0.04277    9    diag
   12      0.950D-08      0.192D-08      -116.27969671    154.538814    0.08418   -0.77495   -0.04277    0    orth

 Final occupancy:  10

 !RHF STATE  1.1 Energy              -116.279696711867
 Nuclear energy                        35.93228190
 One-electron energy                 -229.48138543
 Two-electron energy                   77.26940682
 Virial quotient                       -1.00068179
 !RHF STATE  1.1 Dipole moment          0.08417867    -0.77494540    -0.04276513
 Dipole moment /Debye                   0.21394683    -1.96958572    -0.10869099

 Orbital energies:

         1.1          2.1          3.1          4.1          5.1          6.1          7.1          8.1          9.1         10.1
    -20.568302   -11.188919    -1.343033    -0.943708    -0.709206    -0.580806    -0.545133    -0.541692    -0.541234    -0.509253

        11.1         12.1
      0.023712     0.036152


 HOMO     10.1    -0.509253 =     -13.8575eV
 LUMO     11.1     0.023712 =       0.6452eV
 LUMO-HOMO         0.532966 =      14.5027eV


 **********************************************************************************************************************************
 DATASETS  * FILE   NREC   LENGTH (MB)   RECORD NAMES
              1      18       37.12       500      610      700      900      950      970     1000      129      960     1100   
                                          VAR    BASINP    GEOM    SYMINP    ZMAT    AOBASIS   BASIS     P2S    ABASIS      S 
                                         1400     1410     1200     1210     1080     1600     1650     1700   
                                           T        V       H0       H01     AOSYM     SMH    MOLCAS    OPER   

              2       4        6.75       700     1000      520     2100   
                                         GEOM     BASIS   MCVARS     RHF  

 PROGRAMS   *        TOTAL    HF-SCF       INT
 CPU TIMES  *       566.59    209.03    357.33
 REAL TIME  *       753.38 SEC
 DISK USED  *        57.70 MB (local),       65.70 GB (total)
 SF USED    *         0.76 MB
 GA USED    *         0.00 MB       (max)       0.00 MB       (current)
 **********************************************************************************************************************************

 Basis set:  JKFIT                   
 Basis size:  1104
 Attributes:
 Sphericals:   T
 Basis set:  MP2FIT                  
 Basis size:  1246
 Attributes:
 Sphericals:   T
 Basis set:  RI                      
 Basis size:   730
 Attributes:
 Sphericals:   T
 Basis set:  TDDFT                   
 Basis size:  1246
 Attributes:
 Sphericals:   T

 PROGRAM * CCSD (Closed-shell coupled cluster)     Authors: C. Hampel, H.-J. Werner, 1991, M. Deegan, P.J. Knowles, 1992

                                  CCSD-F12 implementation by  H.-J. Werner, 2007

                   Density fitting integral evaluation by F.R. Manby, 2003,2007, G. Knizia, 2010



 Convergence thresholds:  THRVAR = 1.00D-08  THRDEN = 1.00D-10

 CCSD(T)     terms to be evaluated (factor= 1.000)


 Number of core orbitals:           2 (   2 )
 Number of closed-shell orbitals:   8 (   8 )
 Number of external orbitals:     426 ( 426 )

 Molecular orbitals read from record     2100.2  Type=RHF/CANONICAL (state 1.1)

 MP2-F12 correlation treatment (H.-J. Werner, 2006)
 ==================================================

 Using MP2-F12 with ansatz 3C(FIX)

 Using projected zeroth-order Hamiltonian (+Z)

 FOCKRIB=T FOCKRIC=T FOCKRIP=T CABSP=T CABSA=T CABSK=T CABSF=T GBC=F EBC=F DMAT=T NOFIK=T NOPAO=1 SOLVE=-1  USEPAO=0
 EXCH_A= T EXCH_B= F EXCH_C= F EXCH_P= F

 Geminal basis:    OPTFULL  GEM_TYPE=SLATER  BETA=1.0  NGEM=6

 Optimizing Gaussian exponents for each gem_beta

 Geminal optimization for beta= 1.0000
 Weight function:   m=0, omega= 1.4646

 Augmented Hessian optimization of geminal fit. Trust ratio= 0.40000
 Convergence reached after   2 iterations. Final gradient= 7.85D-16, Step= 4.26D-06, Delta= 1.28D-09

 Alpha:                 0.19532     0.81920     2.85917     9.50073    35.69989   197.79328
 Coeff:                 0.27070     0.30552     0.18297     0.10986     0.06810     0.04224


 All pairs explicitly correlated. Number of r12-pairs:           36

 Excluding core orbitals from MO domains

 AO(A)-basis ORBITAL           loaded. Number of functions:     436
 RI(R)-basis RI                loaded. Number of functions:     730
 DF-basis JKFIT                loaded. Number of functions:    1104

 Screening thresholds:   THRAO=  1.00D-10  THRMO=  1.00D-09  THRPROD=  1.00D-09
                         THRSW=  1.00D-05  THROV=  1.00D-12  THRAOF12= 1.00D-10

 CPU time for Fock operators                     12.09 sec

 Construction of ABS:
 Smallest eigenvalue of S          2.26E-04  (threshold= 1.00E-08)
 Ratio eigmin/eigmax               3.93E-05  (threshold= 1.00E-09)
 Smallest eigenvalue of S kept     2.26E-04  (threshold= 2.26E-04, 0 functions deleted, 730 kept)

 Construction of CABS:
 Smallest eigenvalue of S          1.62E-08  (threshold= 1.00E-08)
 Ratio eigmin/eigmax               1.62E-08  (threshold= 1.00E-09)
 Smallest eigenvalue of S kept     1.62E-08  (threshold= 1.62E-08, 0 functions deleted, 730 kept)

 CPU time for CABS singles                        2.23 sec

 CABS-singles contribution of  -0.00052905 patched into reference energy.
 New reference energy        -116.28022577

 AO(A)-basis ORBITAL           loaded. Number of functions:     436
 RI(R)-basis RI                loaded. Number of functions:     730
 DF-basis MP2FIT               loaded. Number of functions:    1246

 Screening thresholds:   THRAO=  1.00D-10  THRMO=  1.00D-09  THRPROD=  1.00D-09
                         THRSW=  1.00D-05  THROV=  1.00D-12  THRAOF12= 1.00D-10

 CPU time for 3-index integral evaluation        19.31 sec
 CPU time for first  half transformation          5.15 sec ( 2529.1 MFLOP/sec)
 CPU time for second half transformation          0.11 sec ( 1378.7 MFLOP/sec)
 CPU time for sorting                             0.17 sec
 CPU time for fitting                             1.85 sec ( 4014.7 MFLOP/sec)
 CPU time for tilde quantities                    2.32 sec ( 4341.7 MFLOP/sec)
 CPU time for assembly                           16.59 sec ( 4274.7 MFLOP/sec)
 CPU time for tranop_f12                         16.23 sec ( 4246.7 MFLOP/sec)
 CPU time for f12 integrals (total)              84.50 sec, Elapsed time:     86.91 sec
 F12-matrices built in  4 passes.
 F12-matrices built in  4 passes.
 F12-matrices built in  4 passes.
 F12-matrices built in  4 passes.
 FC-matrix built in  4 passes.
 CPU time for f12 matrices (total)                6.27 sec, Elapsed time:      6.39 sec

 Diagonal F12 approximation with fixed coefficients:  TSING= 0.500,  TTRIP= 0.250 (scaled by -1/beta)

 DF-MP2-F12 energy corrections:
 ==============================
 Approx.                                    Singlet             Triplet             Total
 DF-MP2-F12/3*C(DX,FIX)                -0.021234905742     -0.002109374188     -0.023344279931
 DF-MP2-F12/3*C(FIX)                   -0.019168452675     -0.001554610888     -0.020723063563
 DF-MP2-F12/3C(FIX)                    -0.019184587450     -0.001605860086     -0.020790447536

 DF-MP2-F12 correlation energies:
 ================================
 Approx.                                    Singlet             Triplet             Ecorr            Total Energy
 DF-MP2                                -0.340634175835     -0.158248618470     -0.498882794305   -116.779108559730
 DF-MP2-F12/3*C(DX,FIX)                -0.361869081578     -0.160357992658     -0.522227074236   -116.802452839660
 DF-MP2-F12/3*C(FIX)                   -0.359802628510     -0.159803229358     -0.519605857869   -116.799831623293
 DF-MP2-F12/3C(FIX)                    -0.359818763285     -0.159854478556     -0.519673241842   -116.799899007266

 SCS-DF-MP2 energies (F_SING= 1.20000  F_TRIP= 0.62222  F_PARALLEL= 0.33333):
 ============================================================================
 SCS-DF-MP2                            -0.507226818050   -116.787452583475
 SCS-DF-MP2-F12/3*C(DX,FIX)            -0.534021204436   -116.814246969860
 SCS-DF-MP2-F12/3*C(FIX)               -0.531196274702   -116.811422040126
 SCS-DF-MP2-F12/3C(FIX)                -0.531247524822   -116.811473290246
 Symmetry transformation completed.

 Number of N-1 electron functions:               8
 Number of N-2 electron functions:              36
 Number of singly external CSFs:              3408
 Number of doubly external CSFs:           5808936
 Total number of CSFs:                     5812345

 Pair and operator lists are different

 Length of J-op  integral file:               0.75 GB
 Length of K-op  integral file:               0.98 GB
 Length of 3-ext integral record:             0.00 MB

 Memory could be reduced to 828.63 Mwords without degradation in triples

 Integral transformation finished. Total CPU: 314.73 sec, npass=  1  Memory used: 389.45 MW

 Reference energy:                   -116.28022577

 Adding F12 terms to K(Cij), methodcc=6,  factor= 1.0

 ITER.      SQ.NORM     CORR.ENERGY   TOTAL ENERGY   ENERGY CHANGE        DEN1      VAR(S)    VAR(P)  DIIS     TIME  TIME/IT
   1      1.13385095    -0.51252074  -116.79274651    -0.01362854    -0.00173157  0.14D-02  0.20D-02  1  1   590.59   164.48
   2      1.14207396    -0.51316013  -116.79338589    -0.00063939    -0.00996389  0.29D-04  0.24D-03  2  2   750.21   163.98
   3      1.14510420    -0.51335140  -116.79357717    -0.00019127    -0.00214719  0.13D-04  0.14D-04  3  3   910.54   163.61
   4      1.14608155    -0.51337112  -116.79359689    -0.00001972    -0.00058368  0.66D-06  0.12D-05  4  4  1071.43   163.64
   5      1.14624875    -0.51337087  -116.79359663     0.00000026    -0.00003939  0.19D-06  0.87D-07  5  5  1232.44   163.57
   6      1.14629104    -0.51336811  -116.79359388     0.00000276    -0.00000590  0.20D-07  0.74D-08  6  6  1392.74   163.42
   7      1.14630206    -0.51336688  -116.79359265     0.00000123    -0.00000330  0.17D-08  0.70D-09  6  1  1553.55   163.38
   8      1.14630368    -0.51336695  -116.79359272    -0.00000007     0.00000044  0.24D-09  0.76D-10  6  3  1714.18   163.34
   9      1.14630468    -0.51336688  -116.79359264     0.00000007    -0.00000029  0.16D-10  0.13D-10  6  2  1875.19   163.29
  10      1.14630479    -0.51336688  -116.79359264     0.00000000     0.00000006  0.20D-11  0.14D-11  6  4  2035.62   163.24
  11      1.14630480    -0.51336688  -116.79359264     0.00000000     0.00000003  0.34D-12  0.20D-12  6  5  2196.23   163.22
  12      1.14630478    -0.51336688  -116.79359264    -0.00000000     0.00000001  0.70D-13  0.25D-13  6  6  2357.09   163.20
  13      1.14630476    -0.51336688  -116.79359264    -0.00000000     0.00000001  0.13D-13  0.34D-14  6  1  2517.13   163.15
  14      1.14630476    -0.51336688  -116.79359264    -0.00000000     0.00000000  0.20D-14  0.80D-15  6  3  2678.27   163.16
  15      1.14630476    -0.51336688  -116.79359264    -0.00000000     0.00000000  0.25D-15  0.12D-15  6  2  2838.80   163.12
  16      1.14630476    -0.51336688  -116.79359264    -0.00000000    -0.00000000  0.31D-16  0.16D-16  6  4  2999.01   163.08
  17      1.14630476    -0.51336688  -116.79359264     0.00000000    -0.00000000  0.66D-17  0.27D-17  6  5  3158.91   163.02

 Norm of t1 vector:      0.04954589      S-energy:    -0.00000000      T1 diagnostic:  0.00875856
                                                                       D1 diagnostic:  0.01880365

 Adding energy correction from Wij-K(Fij), methodcc=6  factor= 1.0

  CCSD correlation energy              -0.513366877736
  MP2-F12 correction (uncoupled)       -0.020210640853
  C*T doubles correction               -0.000556362311
  f12b correction                       0.004655110337

   CPU time for triples:   2033.50 sec for i =  1 -  7 /  8 (~  68.8 % done)
   CPU time for triples:    816.33 sec for i =  8 -  8 /  8 (  100.0 % done)

 Total CPU time for triples:   2853.75 sec

  Ecorr(MP2)                           -0.498892205071
  Ecorr(MP2-F12)                       -0.519682652607
  Scale factor for triples energy       1.041673225849


 RESULTS
 =======

  Reference energy                   -116.279696711868
  F12 singles correction               -0.000529053557

 F12 singles corrections added to reference energy

  New reference energy               -116.280225765424

  F12a singlet correction              -0.019150520950
  F12a triplet correction              -0.001616482214
  F12a total correction                -0.020767003164

 F12a corrections for ansatz F12/3C(FIX) added to CCSD energy

  CCSD-F12a singlet pair energy        -0.387747218641
  CCSD-F12a triplet pair energy        -0.146386662057
  CCSD-F12a correlation energy         -0.534133880900

  Triples (T) contribution (scaled)    -0.017063266645
  Total correlation energy             -0.551197147545

  CCSD-F12a total energy             -116.814359646324
  CCSD[T]-F12a energy                -116.831986564738
  CCSD-T-F12a energy                 -116.831210969797
 !CCSD(T)-F12a total energy          -116.831422912969

 F12b corrections for ansatz F12/3C(FIX) added to CCSD(T)-F12a energy

  CCSD-F12b singlet pair energy        -0.383307159111
  CCSD-F12b triplet pair energy        -0.146171611249
  CCSD-F12b correlation energy         -0.529478770562

  Triples (T) contribution (scaled)    -0.017063266645
  Total correlation energy             -0.546542037207

  CCSD-F12b total energy             -116.809704535987
  CCSD[T]-F12b energy                -116.827331454401
  CCSD-T-F12b energy                 -116.826555859459
 !CCSD(T)-F12b total energy          -116.826767802632

 Timing summary (sec):

 STEP                 CPU(USER)    SYS     CPU(TOT)    WALL
 Transformation        315.95      7.51    323.46    326.72
 CCSD iterations      2730.40     28.16   2758.56   2771.50
 Triples              2853.75      6.09   2859.84   2863.93
 MP2-F12               112.67      2.89    115.56    115.74
 F12b energy           136.76      1.02    137.78    137.95

 Program statistics:

 Available memory in ccsd:              1999999554
 Min. memory needed in ccsd:              16971337
 Max. memory used in ccsd:                21987113
 Max. memory used in cckext:              15122080 (18 integral passes)



 **********************************************************************************************************************************
 DATASETS  * FILE   NREC   LENGTH (MB)   RECORD NAMES
              1      19     2602.04       500      610      700      900      950      970     1000      129      960     1100   
                                          VAR    BASINP    GEOM    SYMINP    ZMAT    AOBASIS   BASIS     P2S    ABASIS      S 
                                         1400     1410     1200     1210     1080     1600     1650     1700     1380   
                                           T        V       H0       H01     AOSYM     SMH    MOLCAS    OPER     JKOP   

              2       6       10.56       700     1000      520     2100     7360     7350   
                                         GEOM     BASIS   MCVARS     RHF    F12ABS    EF12   

 PROGRAMS   *        TOTAL   CCSD(T)    HF-SCF       INT
 CPU TIMES  *      6716.38   6149.78    209.03    357.33
 REAL TIME  *      6970.04 SEC
 DISK USED  *         3.24 GB (local),       76.55 GB (total)
 SF USED    *         5.13 GB
 GA USED    *         4.87 MB       (max)       0.00 MB       (current)
 **********************************************************************************************************************************

 Running procedure: SET_MONOMER1

 Dummy atoms: C1  H41  H42  H43  H44


 Recomputing one-electron integrals since nuclear charges changed


 PROGRAM * SEWARD (Integral evaluation for generally contracted gaussian basis sets)     Author: Roland Lindh, 1990

 Geometry written to block  1 of record 700


 Point group  C1  



 ATOMIC COORDINATES

 NR  ATOM    CHARGE       X              Y              Z

   1  O15     8.00  -11.361600379   -2.507477595    1.791460366
   2  H29     1.00   -9.723585774   -3.405286476    1.799586188
   3  H30     1.00  -12.627338937   -3.816112936    1.666171524
   4  C1      0.00   -6.193010455    2.801518980    2.403542658
   5  H41     0.00   -4.656285171    1.699997622    3.119937832
   6  H42     0.00   -5.973046335    4.726205038    2.982932688
   7  H43     0.00   -7.940251230    2.077186956    3.118237078
   8  H44     0.00   -6.176569838    2.685300823    0.384937212

 Bond lengths in Bohr (Angstrom)

 1-2  1.867945037  1-3  1.824915847  4-5  2.021904040  4-6  2.022002335  4-7  2.021953343
     ( 0.988473945)     ( 0.965703878)     ( 1.069945541)     ( 1.069997556)     ( 1.069971630)

 4-8  2.022015060
     ( 1.070004290)

 Bond angles

  2-1-3  105.29843553   5-4-6  109.53398059   5-4-7  109.65604535   5-4-8  108.43490854

  6-4-7  109.49436728   6-4-8  109.86987750   7-4-8  109.83468330

 NUCLEAR CHARGE:                   10
 NUMBER OF PRIMITIVE AOS:         578
 NUMBER OF SYMMETRY AOS:          474
 NUMBER OF CONTRACTIONS:          436   (  436A   )
 NUMBER OF CORE ORBITALS:           1   (    1A   )
 NUMBER OF VALENCE ORBITALS:        6   (    6A   )

 MOLECULE CHANGED: INITIALIZING OCCUPATION AND DUMP RECORDS


 NUCLEAR REPULSION ENERGY    9.00717880

 Basis set:  JKFIT                   
 Basis size:  1104
 Attributes:
 Sphericals:   T
 Basis set:  MP2FIT                  
 Basis size:  1246
 Attributes:
 Sphericals:   T
 Basis set:  RI                      
 Basis size:   730
 Attributes:
 Sphericals:   T
 Basis set:  TDDFT                   
 Basis size:  1246
 Attributes:
 Sphericals:   T

 Eigenvalues of metric

         1 0.154E-04 0.263E-04 0.296E-04 0.386E-04 0.626E-04 0.835E-04 0.911E-04 0.978E-04


 Contracted 2-electron integrals neglected if value below      1.0D-14

 OPERATOR DM      FOR CENTER  0  COORDINATES:    0.000000    0.000000    0.000000


 **********************************************************************************************************************************
 DATASETS  * FILE   NREC   LENGTH (MB)   RECORD NAMES
              1      18       37.12       500      610      700      900      950      970     1000      129      960     1100   
                                          VAR    BASINP    GEOM    SYMINP    ZMAT    AOBASIS   BASIS     P2S    ABASIS      S 
                                         1400     1410     1200     1210     1080     1600     1650     1700   
                                           T        V       H0       H01     AOSYM     SMH    MOLCAS    OPER   

              2       7       10.59       700     1000      520     2100     7360     7350      200   
                                         GEOM     BASIS   MCVARS     RHF    F12ABS    EF12    OPTIONS    

 PROGRAMS   *        TOTAL       INT   CCSD(T)    HF-SCF       INT
 CPU TIMES  *      6716.80      0.42   6149.78    209.03    357.33
 REAL TIME  *      6970.99 SEC
 DISK USED  *         3.24 GB (local),       76.55 GB (total)
 SF USED    *         5.13 GB
 GA USED    *         4.87 MB       (max)       0.00 MB       (current)
 **********************************************************************************************************************************


 PROGRAM * RHF-SCF (CLOSED SHELL)       Authors: W. Meyer, H.-J. Werner


 NUMBER OF ELECTRONS:       5+    5-    SPACE SYMMETRY=1    SPIN SYMMETRY: Singlet 
 CONVERGENCE THRESHOLDS:    1.00E-08 (Density)    1.00E-11 (Energy)
 MAX. NUMBER OF ITERATIONS:       60
 INTERPOLATION TYPE:            DIIS
 INTERPOLATION STEPS:              2 (START)      1 (STEP)
 LEVEL SHIFTS:                  0.00 (CLOSED)  0.00 (OPEN) 



 Orbital guess generated from atomic densities. Full valence occupancy:    7

 Molecular orbital dump at record        2101.2

 Initial occupancy:   5

 ITERATION    DDIFF          GRAD             ENERGY        2-EL.EN.            DIPOLE MOMENTS         DIIS   ORB.
    1      0.000D+00      0.000D+00       -76.02510769     77.423335    0.19841   -1.13017   -0.05974    0    start
    2      0.000D+00      0.467D-02       -76.05190431     73.771789    0.10829   -0.65789   -0.03506    1    diag
    3      0.222D-02      0.297D-02       -76.06343703     75.391356    0.12926   -0.77578   -0.04128    2    diag
    4      0.841D-03      0.278D-03       -76.06363105     75.300199    0.12708   -0.77127   -0.04109    3    diag
    5      0.107D-03      0.777D-04       -76.06365194     75.314472    0.12621   -0.76961   -0.04103    4    diag
    6      0.348D-04      0.154D-04       -76.06365328     75.313452    0.12595   -0.76926   -0.04102    5    diag
    7      0.905D-05      0.313D-05       -76.06365335     75.313597    0.12588   -0.76914   -0.04101    6    diag
    8      0.247D-05      0.591D-06       -76.06365335     75.313582    0.12587   -0.76910   -0.04101    7    diag
    9      0.465D-06      0.793D-07       -76.06365335     75.313574    0.12587   -0.76909   -0.04101    8    diag
   10      0.551D-07      0.182D-07       -76.06365335     75.313577    0.12587   -0.76909   -0.04101    9    orth
   11      0.142D-07      0.374D-08       -76.06365335     75.313576    0.12587   -0.76909   -0.04101    9    diag
   12      0.289D-08      0.736D-09       -76.06365335     75.313576    0.12587   -0.76909   -0.04101    0    orth

 Final occupancy:   5

 !RHF STATE  1.1 Energy               -76.063653353154
 Nuclear energy                         9.00717880
 One-electron energy                 -122.72762023
 Two-electron energy                   37.65678808
 Virial quotient                       -1.00192619
 !RHF STATE  1.1 Dipole moment          0.12586852    -0.76909242    -0.04101100
 Dipole moment /Debye                   0.31990492    -1.95470991    -0.10423274

 Orbital energies:

         1.1          2.1          3.1          4.1          5.1          6.1          7.1
    -20.567786    -1.342413    -0.708552    -0.579616    -0.508656     0.020828     0.032955


 HOMO      5.1    -0.508656 =     -13.8412eV
 LUMO      6.1     0.020828 =       0.5668eV
 LUMO-HOMO         0.529485 =      14.4080eV


 **********************************************************************************************************************************
 DATASETS  * FILE   NREC   LENGTH (MB)   RECORD NAMES
              1      18       37.12       500      610      700      900      950      970     1000      129      960     1100   
                                          VAR    BASINP    GEOM    SYMINP    ZMAT    AOBASIS   BASIS     P2S    ABASIS      S 
                                         1400     1410     1200     1210     1080     1600     1650     1700   
                                           T        V       H0       H01     AOSYM     SMH    MOLCAS    OPER   

              2       8       17.39       700     1000      520     2100     7360     7350      200     2101   
                                         GEOM     BASIS   MCVARS     RHF    F12ABS    EF12    OPTIONS    RHF  

 PROGRAMS   *        TOTAL    HF-SCF       INT   CCSD(T)    HF-SCF       INT
 CPU TIMES  *      6939.09    222.29      0.42   6149.78    209.03    357.33
 REAL TIME  *      7212.74 SEC
 DISK USED  *         3.24 GB (local),       76.55 GB (total)
 SF USED    *         5.13 GB
 GA USED    *         4.87 MB       (max)       0.00 MB       (current)
 **********************************************************************************************************************************

 Basis set:  JKFIT                   
 Basis size:  1104
 Attributes:
 Sphericals:   T
 Basis set:  MP2FIT                  
 Basis size:  1246
 Attributes:
 Sphericals:   T
 Basis set:  RI                      
 Basis size:   730
 Attributes:
 Sphericals:   T
 Basis set:  TDDFT                   
 Basis size:  1246
 Attributes:
 Sphericals:   T

 PROGRAM * CCSD (Closed-shell coupled cluster)     Authors: C. Hampel, H.-J. Werner, 1991, M. Deegan, P.J. Knowles, 1992

                                  CCSD-F12 implementation by  H.-J. Werner, 2007

                   Density fitting integral evaluation by F.R. Manby, 2003,2007, G. Knizia, 2010



 Convergence thresholds:  THRVAR = 1.00D-08  THRDEN = 1.00D-10

 CCSD(T)     terms to be evaluated (factor= 1.000)


 Number of core orbitals:           1 (   1 )
 Number of closed-shell orbitals:   4 (   4 )
 Number of external orbitals:     431 ( 431 )

 Molecular orbitals read from record     2101.2  Type=RHF/CANONICAL (state 1.1)

 MP2-F12 correlation treatment (H.-J. Werner, 2006)
 ==================================================

 Using MP2-F12 with ansatz 3C(FIX)

 Using projected zeroth-order Hamiltonian (+Z)

 FOCKRIB=T FOCKRIC=T FOCKRIP=T CABSP=T CABSA=T CABSK=T CABSF=T GBC=F EBC=F DMAT=T NOFIK=T NOPAO=1 SOLVE=-1  USEPAO=0
 EXCH_A= T EXCH_B= F EXCH_C= F EXCH_P= F

 Geminal basis:    OPTFULL  GEM_TYPE=SLATER  BETA=1.0  NGEM=6

 Optimizing Gaussian exponents for each gem_beta

 Geminal optimization for beta= 1.0000
 Weight function:   m=0, omega= 1.4646

 Augmented Hessian optimization of geminal fit. Trust ratio= 0.40000
 Convergence reached after   2 iterations. Final gradient= 8.31D-16, Step= 4.24D-06, Delta= 1.28D-09

 Alpha:                 0.19532     0.81920     2.85917     9.50073    35.69989   197.79328
 Coeff:                 0.27070     0.30552     0.18297     0.10986     0.06810     0.04224


 All pairs explicitly correlated. Number of r12-pairs:           10

 Excluding core orbitals from MO domains

 AO(A)-basis ORBITAL           loaded. Number of functions:     436
 RI(R)-basis RI                loaded. Number of functions:     730
 DF-basis JKFIT                loaded. Number of functions:    1104

 Screening thresholds:   THRAO=  1.00D-10  THRMO=  1.00D-09  THRPROD=  1.00D-09
                         THRSW=  1.00D-05  THROV=  1.00D-12  THRAOF12= 1.00D-10

 CPU time for Fock operators                     10.08 sec

 Construction of ABS:
 Smallest eigenvalue of S          2.26E-04  (threshold= 1.00E-08)
 Ratio eigmin/eigmax               3.93E-05  (threshold= 1.00E-09)
 Smallest eigenvalue of S kept     2.26E-04  (threshold= 2.26E-04, 0 functions deleted, 730 kept)

 Construction of CABS:
 Smallest eigenvalue of S          1.62E-08  (threshold= 1.00E-08)
 Ratio eigmin/eigmax               1.62E-08  (threshold= 1.00E-09)
 Smallest eigenvalue of S kept     1.62E-08  (threshold= 1.62E-08, 0 functions deleted, 730 kept)

 CPU time for CABS singles                        2.27 sec

 CABS-singles contribution of  -0.00028417 patched into reference energy.
 New reference energy         -76.06393752

 AO(A)-basis ORBITAL           loaded. Number of functions:     436
 RI(R)-basis RI                loaded. Number of functions:     730
 DF-basis MP2FIT               loaded. Number of functions:    1246

 Screening thresholds:   THRAO=  1.00D-10  THRMO=  1.00D-09  THRPROD=  1.00D-09
                         THRSW=  1.00D-05  THROV=  1.00D-12  THRAOF12= 1.00D-10

 CPU time for 3-index integral evaluation        18.96 sec
 CPU time for first  half transformation          3.26 sec ( 1981.4 MFLOP/sec)
 CPU time for second half transformation          0.05 sec (  771.9 MFLOP/sec)
 CPU time for sorting                             0.03 sec
 CPU time for fitting                             1.27 sec ( 1114.9 MFLOP/sec)
 CPU time for tilde quantities                    1.49 sec ( 1838.0 MFLOP/sec)
 CPU time for assembly                            5.09 sec ( 3414.5 MFLOP/sec)
 CPU time for tranop_f12                          4.85 sec ( 2960.7 MFLOP/sec)
 CPU time for f12 integrals (total)              42.41 sec, Elapsed time:     43.66 sec
 F12-matrices built in  4 passes.
 F12-matrices built in  4 passes.
 F12-matrices built in  4 passes.
 F12-matrices built in  4 passes.
 FC-matrix built in  4 passes.
 CPU time for f12 matrices (total)                1.71 sec, Elapsed time:      1.75 sec

 Diagonal F12 approximation with fixed coefficients:  TSING= 0.500,  TTRIP= 0.250 (scaled by -1/beta)

 DF-MP2-F12 energy corrections:
 ==============================
 Approx.                                    Singlet             Triplet             Total
 DF-MP2-F12/3*C(DX,FIX)                -0.013729447643     -0.001531355067     -0.015260802710
 DF-MP2-F12/3*C(FIX)                   -0.012110160765     -0.001077338290     -0.013187499054
 DF-MP2-F12/3C(FIX)                    -0.012096986919     -0.001114591527     -0.013211578446

 DF-MP2-F12 correlation energies:
 ================================
 Approx.                                    Singlet             Triplet             Ecorr            Total Energy
 DF-MP2                                -0.186082215723     -0.101328097526     -0.287410313249    -76.351347833420
 DF-MP2-F12/3*C(DX,FIX)                -0.199811663366     -0.102859452593     -0.302671115959    -76.366608636130
 DF-MP2-F12/3*C(FIX)                   -0.198192376487     -0.102405435816     -0.300597812303    -76.364535332475
 DF-MP2-F12/3C(FIX)                    -0.198179202642     -0.102442689053     -0.300621891695    -76.364559411867

 SCS-DF-MP2 energies (F_SING= 1.20000  F_TRIP= 0.62222  F_PARALLEL= 0.33333):
 ============================================================================
 SCS-DF-MP2                            -0.286347252884    -76.350284773055
 SCS-DF-MP2-F12/3*C(DX,FIX)            -0.303775433208    -76.367712953379
 SCS-DF-MP2-F12/3*C(FIX)               -0.301549789626    -76.365487309797
 SCS-DF-MP2-F12/3C(FIX)                -0.301557160803    -76.365494680975
 Symmetry transformation completed.

 Number of N-1 electron functions:               4
 Number of N-2 electron functions:              10
 Number of singly external CSFs:              1724
 Number of doubly external CSFs:           1486950
 Total number of CSFs:                     1488675

 Pair and operator lists are different

 Length of J-op  integral file:             203.65 MB
 Length of K-op  integral file:             338.08 MB
 Length of 3-ext integral record:             0.00 MB

 Memory could be reduced to 526.20 Mwords without degradation in triples

 Integral transformation finished. Total CPU: 167.89 sec, npass=  1  Memory used: 214.75 MW

 Reference energy:                    -76.06393752

 Adding F12 terms to K(Cij), methodcc=6,  factor= 1.0

 ITER.      SQ.NORM     CORR.ENERGY   TOTAL ENERGY   ENERGY CHANGE        DEN1      VAR(S)    VAR(P)  DIIS     TIME  TIME/IT
   1      1.06341807    -0.28686961   -76.35080713     0.00054478     0.00669040  0.78D-03  0.10D-02  1  1   278.06    49.01
   2      1.06693222    -0.28666787   -76.35060539     0.00020174    -0.00486293  0.13D-04  0.11D-03  2  2   326.37    49.54
   3      1.06815163    -0.28676378   -76.35070130    -0.00009591    -0.00081457  0.98D-05  0.74D-05  3  3   375.21    49.83
   4      1.06870201    -0.28677861   -76.35071613    -0.00001483    -0.00033843  0.52D-06  0.70D-06  4  4   424.56    50.06
   5      1.06880618    -0.28677694   -76.35071446     0.00000167    -0.00002834  0.16D-06  0.52D-07  5  5   473.87    50.20
   6      1.06883864    -0.28677480   -76.35071232     0.00000214    -0.00000413  0.17D-07  0.41D-08  6  6   523.00    50.27
   7      1.06884756    -0.28677419   -76.35071171     0.00000061    -0.00000190  0.10D-08  0.50D-09  6  1   571.81    50.27
   8      1.06884905    -0.28677418   -76.35071170     0.00000001     0.00000006  0.14D-09  0.55D-10  6  2   620.84    50.31
   9      1.06884956    -0.28677416   -76.35071168     0.00000002     0.00000002  0.11D-10  0.82D-11  6  3   669.88    50.32
  10      1.06884966    -0.28677416   -76.35071168     0.00000000     0.00000002  0.17D-11  0.74D-12  6  4   718.90    50.33
  11      1.06884965    -0.28677416   -76.35071168    -0.00000000     0.00000002  0.34D-12  0.12D-12  6  5   767.92    50.34
  12      1.06884965    -0.28677416   -76.35071168    -0.00000000     0.00000000  0.68D-13  0.18D-13  6  6   816.96    50.35
  13      1.06884964    -0.28677416   -76.35071168    -0.00000000     0.00000000  0.10D-13  0.28D-14  6  1   865.82    50.35
  14      1.06884963    -0.28677416   -76.35071168    -0.00000000     0.00000000  0.12D-14  0.64D-15  6  2   914.71    50.35
  15      1.06884963    -0.28677416   -76.35071168    -0.00000000     0.00000000  0.14D-15  0.84D-16  6  3   963.48    50.33
  16      1.06884963    -0.28677416   -76.35071168    -0.00000000     0.00000000  0.16D-16  0.10D-16  6  4  1012.12    50.33

 Norm of t1 vector:      0.03670136      S-energy:    -0.00000000      T1 diagnostic:  0.00917534
                                                                       D1 diagnostic:  0.01862458

 Adding energy correction from Wij-K(Fij), methodcc=6  factor= 1.0

  CCSD correlation energy              -0.286774159762
  MP2-F12 correction (uncoupled)       -0.012757889581
  C*T doubles correction               -0.000428369314
  f12b correction                       0.002714015972


 Total CPU time for triples:    431.18 sec

  Ecorr(MP2)                           -0.287414383718
  Ecorr(MP2-F12)                       -0.300625962165
  Scale factor for triples energy       1.045967005114


 RESULTS
 =======

  Reference energy                    -76.063653353156
  F12 singles correction               -0.000284167016

 F12 singles corrections added to reference energy

  New reference energy                -76.063937520172

  F12a singlet correction              -0.012063107705
  F12a triplet correction              -0.001123151190
  F12a total correction                -0.013186258894

 F12a corrections for ansatz F12/3C(FIX) added to CCSD energy

  CCSD-F12a singlet pair energy        -0.209226421676
  CCSD-F12a triplet pair energy        -0.090733996964
  CCSD-F12a correlation energy         -0.299960418656

  Triples (T) contribution (scaled)    -0.009911810540
  Total correlation energy             -0.309872229196

  CCSD-F12a total energy              -76.363897938828
  CCSD[T]-F12a energy                 -76.374135054644
  CCSD-T-F12a energy                  -76.373668594669
 !CCSD(T)-F12a total energy           -76.373809749367

 F12b corrections for ansatz F12/3C(FIX) added to CCSD(T)-F12a energy

  CCSD-F12b singlet pair energy        -0.206659227561
  CCSD-F12b triplet pair energy        -0.090587175106
  CCSD-F12b correlation energy         -0.297246402684

  Triples (T) contribution (scaled)    -0.009911810540
  Total correlation energy             -0.307158213224

  CCSD-F12b total energy              -76.361183922856
  CCSD[T]-F12b energy                 -76.371421038672
  CCSD-T-F12b energy                  -76.370954578697
 !CCSD(T)-F12b total energy           -76.371095733395

 Timing summary (sec):

 STEP                 CPU(USER)    SYS     CPU(TOT)    WALL
 Transformation        168.28      4.32    172.60    172.90
 CCSD iterations       782.13     22.21    804.34    805.42
 Triples               431.18      0.82    432.00    432.58
 MP2-F12                61.82      1.51     63.33     63.46
 F12b energy            44.47      1.12     45.59     45.65

 Program statistics:

 Available memory in ccsd:              1999999871
 Min. memory needed in ccsd:               6763924
 Max. memory used in ccsd:                 7862874
 Max. memory used in cckext:               5171974 (17 integral passes)



 **********************************************************************************************************************************
 DATASETS  * FILE   NREC   LENGTH (MB)   RECORD NAMES
              1      19     1346.98       500      610      700      900      950      970     1000      129      960     1100   
                                          VAR    BASINP    GEOM    SYMINP    ZMAT    AOBASIS   BASIS     P2S    ABASIS      S 
                                         1400     1410     1200     1210     1080     1600     1650     1700     1380   
                                           T        V       H0       H01     AOSYM     SMH    MOLCAS    OPER     JKOP   

              2       8       17.39       700     1000      520     2100     7360     7350      200     2101   
                                         GEOM     BASIS   MCVARS     RHF    F12ABS    EF12    OPTIONS    RHF  

 PROGRAMS   *        TOTAL   CCSD(T)    HF-SCF       INT   CCSD(T)    HF-SCF       INT
 CPU TIMES  *      8427.22   1488.12    222.29      0.42   6149.78    209.03    357.33
 REAL TIME  *      8733.51 SEC
 DISK USED  *         3.24 GB (local),       76.55 GB (total)
 SF USED    *         5.13 GB
 GA USED    *         4.87 MB       (max)       0.00 MB       (current)
 **********************************************************************************************************************************

 Running procedure: SET_MONOMER2

 Dummy atoms: O15  H29  H30


 Recomputing one-electron integrals since nuclear charges changed


 PROGRAM * SEWARD (Integral evaluation for generally contracted gaussian basis sets)     Author: Roland Lindh, 1990

 Geometry written to block  1 of record 700


 Point group  C1  



 ATOMIC COORDINATES

 NR  ATOM    CHARGE       X              Y              Z

   1  O15     0.00  -11.361600379   -2.507477595    1.791460366
   2  H29     0.00   -9.723585774   -3.405286476    1.799586188
   3  H30     0.00  -12.627338937   -3.816112936    1.666171524
   4  C1      6.00   -6.193010455    2.801518980    2.403542658
   5  H41     1.00   -4.656285171    1.699997622    3.119937832
   6  H42     1.00   -5.973046335    4.726205038    2.982932688
   7  H43     1.00   -7.940251230    2.077186956    3.118237078
   8  H44     1.00   -6.176569838    2.685300823    0.384937212

 Bond lengths in Bohr (Angstrom)

 1-2  1.867945037  1-3  1.824915847  4-5  2.021904040  4-6  2.022002335  4-7  2.021953343
     ( 0.988473945)     ( 0.965703878)     ( 1.069945541)     ( 1.069997556)     ( 1.069971630)

 4-8  2.022015060
     ( 1.070004290)

 Bond angles

  2-1-3  105.29843553   5-4-6  109.53398059   5-4-7  109.65604535   5-4-8  108.43490854

  6-4-7  109.49436728   6-4-8  109.86987750   7-4-8  109.83468330

 NUCLEAR CHARGE:                   10
 NUMBER OF PRIMITIVE AOS:         578
 NUMBER OF SYMMETRY AOS:          474
 NUMBER OF CONTRACTIONS:          436   (  436A   )
 NUMBER OF CORE ORBITALS:           1   (    1A   )
 NUMBER OF VALENCE ORBITALS:        8   (    8A   )

 MOLECULE CHANGED: INITIALIZING OCCUPATION AND DUMP RECORDS


 NUCLEAR REPULSION ENERGY   13.68681606

 Basis set:  JKFIT                   
 Basis size:  1104
 Attributes:
 Sphericals:   T
 Basis set:  MP2FIT                  
 Basis size:  1246
 Attributes:
 Sphericals:   T
 Basis set:  RI                      
 Basis size:   730
 Attributes:
 Sphericals:   T
 Basis set:  TDDFT                   
 Basis size:  1246
 Attributes:
 Sphericals:   T

 Eigenvalues of metric

         1 0.154E-04 0.263E-04 0.296E-04 0.386E-04 0.626E-04 0.835E-04 0.911E-04 0.978E-04


 Contracted 2-electron integrals neglected if value below      1.0D-14

 OPERATOR DM      FOR CENTER  0  COORDINATES:    0.000000    0.000000    0.000000


 **********************************************************************************************************************************
 DATASETS  * FILE   NREC   LENGTH (MB)   RECORD NAMES
              1      18       37.12       500      610      700      900      950      970     1000      129      960     1100   
                                          VAR    BASINP    GEOM    SYMINP    ZMAT    AOBASIS   BASIS     P2S    ABASIS      S 
                                         1400     1410     1200     1210     1080     1600     1650     1700   
                                           T        V       H0       H01     AOSYM     SMH    MOLCAS    OPER   

              2       8       17.39       700     1000      520     2100     7360     7350      200     2101   
                                         GEOM     BASIS   MCVARS     RHF    F12ABS    EF12    OPTIONS    RHF  

 PROGRAMS   *        TOTAL       INT   CCSD(T)    HF-SCF       INT   CCSD(T)    HF-SCF       INT
 CPU TIMES  *      8427.64      0.41   1488.12    222.29      0.42   6149.78    209.03    357.33
 REAL TIME  *      8734.32 SEC
 DISK USED  *         3.24 GB (local),       76.55 GB (total)
 SF USED    *         5.13 GB
 GA USED    *         4.87 MB       (max)       0.00 MB       (current)
 **********************************************************************************************************************************


 PROGRAM * RHF-SCF (CLOSED SHELL)       Authors: W. Meyer, H.-J. Werner


 NUMBER OF ELECTRONS:       5+    5-    SPACE SYMMETRY=1    SPIN SYMMETRY: Singlet 
 CONVERGENCE THRESHOLDS:    1.00E-08 (Density)    1.00E-11 (Energy)
 MAX. NUMBER OF ITERATIONS:       60
 INTERPOLATION TYPE:            DIIS
 INTERPOLATION STEPS:              2 (START)      1 (STEP)
 LEVEL SHIFTS:                  0.00 (CLOSED)  0.00 (OPEN) 



 Orbital guess generated from atomic densities. Full valence occupancy:    9

 Molecular orbital dump at record        2102.2

 Initial occupancy:   5

 ITERATION    DDIFF          GRAD             ENERGY        2-EL.EN.            DIPOLE MOMENTS         DIIS   ORB.
    1      0.000D+00      0.000D+00       -40.19609528     53.506287    0.00410   -0.00276   -0.00130    0    start
    2      0.000D+00      0.257D-02       -40.21334935     52.217618    0.00129   -0.00088   -0.00039    1    diag
    3      0.158D-02      0.998D-03       -40.21562527     52.672078    0.00182   -0.00124   -0.00056    2    diag
    4      0.443D-03      0.249D-03       -40.21594472     52.617265    0.00162   -0.00111   -0.00049    3    diag
    5      0.166D-03      0.322D-04       -40.21595022     52.619412    0.00159   -0.00109   -0.00048    4    diag
    6      0.415D-04      0.264D-05       -40.21595026     52.619549    0.00159   -0.00109   -0.00048    5    diag
    7      0.555D-05      0.212D-06       -40.21595026     52.619510    0.00159   -0.00109   -0.00048    6    diag
    8      0.217D-06      0.170D-07       -40.21595026     52.619511    0.00159   -0.00109   -0.00048    7    diag
    9      0.822D-07      0.217D-08       -40.21595026     52.619511    0.00159   -0.00109   -0.00048    8    diag
   10      0.836D-08      0.594D-09       -40.21595026     52.619511    0.00159   -0.00109   -0.00048    0    orth

 Final occupancy:   5

 !RHF STATE  1.1 Energy               -40.215950258078
 Nuclear energy                        13.68681606
 One-electron energy                  -80.21252168
 Two-electron energy                   26.30975536
 Virial quotient                       -0.99838106
 !RHF STATE  1.1 Dipole moment          0.00159222    -0.00108719    -0.00047954
 Dipole moment /Debye                   0.00404676    -0.00276318    -0.00121878

 Orbital energies:

         1.1          2.1          3.1          4.1          5.1          6.1          7.1
    -11.196224    -0.950661    -0.551890    -0.549955    -0.547775     0.023725     0.035987


 HOMO      5.1    -0.547775 =     -14.9057eV
 LUMO      6.1     0.023725 =       0.6456eV
 LUMO-HOMO         0.571500 =      15.5513eV


 **********************************************************************************************************************************
 DATASETS  * FILE   NREC   LENGTH (MB)   RECORD NAMES
              1      18       37.12       500      610      700      900      950      970     1000      129      960     1100   
                                          VAR    BASINP    GEOM    SYMINP    ZMAT    AOBASIS   BASIS     P2S    ABASIS      S 
                                         1400     1410     1200     1210     1080     1600     1650     1700   
                                           T        V       H0       H01     AOSYM     SMH    MOLCAS    OPER   

              2       9       27.51       700     1000      520     2100     7360     7350      200     2101     2102   
                                         GEOM     BASIS   MCVARS     RHF    F12ABS    EF12    OPTIONS    RHF      RHF  

 PROGRAMS   *        TOTAL    HF-SCF       INT   CCSD(T)    HF-SCF       INT   CCSD(T)    HF-SCF       INT
 CPU TIMES  *      8610.24    182.60      0.41   1488.12    222.29      0.42   6149.78    209.03    357.33
 REAL TIME  *      8932.86 SEC
 DISK USED  *         3.24 GB (local),       76.55 GB (total)
 SF USED    *         5.13 GB
 GA USED    *         4.87 MB       (max)       0.00 MB       (current)
 **********************************************************************************************************************************

 Basis set:  JKFIT                   
 Basis size:  1104
 Attributes:
 Sphericals:   T
 Basis set:  MP2FIT                  
 Basis size:  1246
 Attributes:
 Sphericals:   T
 Basis set:  RI                      
 Basis size:   730
 Attributes:
 Sphericals:   T
 Basis set:  TDDFT                   
 Basis size:  1246
 Attributes:
 Sphericals:   T

 PROGRAM * CCSD (Closed-shell coupled cluster)     Authors: C. Hampel, H.-J. Werner, 1991, M. Deegan, P.J. Knowles, 1992

                                  CCSD-F12 implementation by  H.-J. Werner, 2007

                   Density fitting integral evaluation by F.R. Manby, 2003,2007, G. Knizia, 2010



 Convergence thresholds:  THRVAR = 1.00D-08  THRDEN = 1.00D-10

 CCSD(T)     terms to be evaluated (factor= 1.000)


 Number of core orbitals:           1 (   1 )
 Number of closed-shell orbitals:   4 (   4 )
 Number of external orbitals:     431 ( 431 )

 Molecular orbitals read from record     2102.2  Type=RHF/CANONICAL (state 1.1)

 MP2-F12 correlation treatment (H.-J. Werner, 2006)
 ==================================================

 Using MP2-F12 with ansatz 3C(FIX)

 Using projected zeroth-order Hamiltonian (+Z)

 FOCKRIB=T FOCKRIC=T FOCKRIP=T CABSP=T CABSA=T CABSK=T CABSF=T GBC=F EBC=F DMAT=T NOFIK=T NOPAO=1 SOLVE=-1  USEPAO=0
 EXCH_A= T EXCH_B= F EXCH_C= F EXCH_P= F

 Geminal basis:    OPTFULL  GEM_TYPE=SLATER  BETA=1.0  NGEM=6

 Optimizing Gaussian exponents for each gem_beta

 Geminal optimization for beta= 1.0000
 Weight function:   m=0, omega= 1.4646

 Augmented Hessian optimization of geminal fit. Trust ratio= 0.40000
 Convergence reached after   2 iterations. Final gradient= 7.85D-16, Step= 4.26D-06, Delta= 1.28D-09

 Alpha:                 0.19532     0.81920     2.85917     9.50073    35.69989   197.79328
 Coeff:                 0.27070     0.30552     0.18297     0.10986     0.06810     0.04224


 All pairs explicitly correlated. Number of r12-pairs:           10

 Excluding core orbitals from MO domains

 AO(A)-basis ORBITAL           loaded. Number of functions:     436
 RI(R)-basis RI                loaded. Number of functions:     730
 DF-basis JKFIT                loaded. Number of functions:    1104

 Screening thresholds:   THRAO=  1.00D-10  THRMO=  1.00D-09  THRPROD=  1.00D-09
                         THRSW=  1.00D-05  THROV=  1.00D-12  THRAOF12= 1.00D-10

 CPU time for Fock operators                     10.25 sec

 Construction of ABS:
 Smallest eigenvalue of S          2.26E-04  (threshold= 1.00E-08)
 Ratio eigmin/eigmax               3.93E-05  (threshold= 1.00E-09)
 Smallest eigenvalue of S kept     2.26E-04  (threshold= 2.26E-04, 0 functions deleted, 730 kept)

 Construction of CABS:
 Smallest eigenvalue of S          1.62E-08  (threshold= 1.00E-08)
 Ratio eigmin/eigmax               1.62E-08  (threshold= 1.00E-09)
 Smallest eigenvalue of S kept     1.62E-08  (threshold= 1.62E-08, 0 functions deleted, 730 kept)

 CPU time for CABS singles                        2.33 sec

 CABS-singles contribution of  -0.00024523 patched into reference energy.
 New reference energy         -40.21619549

 AO(A)-basis ORBITAL           loaded. Number of functions:     436
 RI(R)-basis RI                loaded. Number of functions:     730
 DF-basis MP2FIT               loaded. Number of functions:    1246

 Screening thresholds:   THRAO=  1.00D-10  THRMO=  1.00D-09  THRPROD=  1.00D-09
                         THRSW=  1.00D-05  THROV=  1.00D-12  THRAOF12= 1.00D-10

 CPU time for 3-index integral evaluation        19.64 sec
 CPU time for first  half transformation          3.57 sec ( 1810.2 MFLOP/sec)
 CPU time for second half transformation          0.04 sec (  953.1 MFLOP/sec)
 CPU time for sorting                             0.11 sec
 CPU time for fitting                             1.45 sec ( 1910.1 MFLOP/sec)
 CPU time for tilde quantities                    1.61 sec ( 4526.4 MFLOP/sec)
 CPU time for assembly                            5.12 sec ( 3394.5 MFLOP/sec)
 CPU time for tranop_f12                          4.82 sec ( 3219.3 MFLOP/sec)
 CPU time for f12 integrals (total)              43.63 sec, Elapsed time:     44.68 sec
 F12-matrices built in  4 passes.
 F12-matrices built in  4 passes.
 F12-matrices built in  4 passes.
 F12-matrices built in  4 passes.
 FC-matrix built in  4 passes.
 CPU time for f12 matrices (total)                1.79 sec, Elapsed time:      1.84 sec

 Diagonal F12 approximation with fixed coefficients:  TSING= 0.500,  TTRIP= 0.250 (scaled by -1/beta)

 DF-MP2-F12 energy corrections:
 ==============================
 Approx.                                    Singlet             Triplet             Total
 DF-MP2-F12/3*C(DX,FIX)                -0.007497380076     -0.000575194256     -0.008072574332
 DF-MP2-F12/3*C(FIX)                   -0.007050349906     -0.000473842562     -0.007524192468
 DF-MP2-F12/3C(FIX)                    -0.007079389169     -0.000487348547     -0.007566737716

 DF-MP2-F12 correlation energies:
 ================================
 Approx.                                    Singlet             Triplet             Ecorr            Total Energy
 DF-MP2                                -0.154418575632     -0.056463513191     -0.210882088823    -40.427077576725
 DF-MP2-F12/3*C(DX,FIX)                -0.161915955708     -0.057038707447     -0.218954663155    -40.435150151057
 DF-MP2-F12/3*C(FIX)                   -0.161468925538     -0.056937355753     -0.218406281291    -40.434601769194
 DF-MP2-F12/3C(FIX)                    -0.161497964801     -0.056950861738     -0.218448826539    -40.434644314441

 SCS-DF-MP2 energies (F_SING= 1.20000  F_TRIP= 0.62222  F_PARALLEL= 0.33333):
 ============================================================================
 SCS-DF-MP2                            -0.220435143411    -40.436630631313
 SCS-DF-MP2-F12/3*C(DX,FIX)            -0.229789898150    -40.445985386052
 SCS-DF-MP2-F12/3*C(FIX)               -0.229190398670    -40.445385886572
 SCS-DF-MP2-F12/3C(FIX)                -0.229233649509    -40.445429137412
 Symmetry transformation completed.

 Number of N-1 electron functions:               4
 Number of N-2 electron functions:              10
 Number of singly external CSFs:              1724
 Number of doubly external CSFs:           1486950
 Total number of CSFs:                     1488675

 Pair and operator lists are different

 Length of J-op  integral file:             203.65 MB
 Length of K-op  integral file:             338.08 MB
 Length of 3-ext integral record:             0.00 MB

 Memory could be reduced to 526.20 Mwords without degradation in triples

 Integral transformation finished. Total CPU: 168.85 sec, npass=  1  Memory used: 214.75 MW

 Reference energy:                    -40.21619549

 Adding F12 terms to K(Cij), methodcc=6,  factor= 1.0

 ITER.      SQ.NORM     CORR.ENERGY   TOTAL ENERGY   ENERGY CHANGE        DEN1      VAR(S)    VAR(P)  DIIS     TIME  TIME/IT
   1      1.07024013    -0.22511695   -40.44131244    -0.01422949    -0.00847526  0.63D-03  0.94D-03  1  1   280.46    48.89
   2      1.07517081    -0.22596688   -40.44216237    -0.00084993    -0.00530348  0.15D-04  0.10D-03  2  2   329.02    49.42
   3      1.07679350    -0.22605470   -40.44225019    -0.00008782    -0.00117741  0.22D-05  0.59D-05  3  3   377.34    49.55
   4      1.07717649    -0.22606201   -40.44225749    -0.00000731    -0.00020554  0.14D-06  0.33D-06  4  4   426.13    49.74
   5      1.07722854    -0.22606364   -40.44225912    -0.00000163    -0.00000893  0.11D-07  0.20D-07  5  5   475.19    49.88
   6      1.07723713    -0.22606233   -40.44225782     0.00000130    -0.00000328  0.76D-09  0.15D-08  6  6   523.74    49.91
   7      1.07723846    -0.22606201   -40.44225750     0.00000032    -0.00000084  0.50D-10  0.11D-09  6  1   572.38    49.93
   8      1.07723843    -0.22606208   -40.44225757    -0.00000007     0.00000020  0.51D-11  0.66D-11  6  3   621.24    49.94
   9      1.07723856    -0.22606206   -40.44225755     0.00000002    -0.00000009  0.36D-12  0.52D-12  6  2   669.76    49.94
  10      1.07723857    -0.22606206   -40.44225755     0.00000000     0.00000001  0.49D-13  0.55D-13  6  4   718.13    49.95
  11      1.07723857    -0.22606206   -40.44225755     0.00000000     0.00000000  0.46D-14  0.57D-14  6  5   766.50    49.95
  12      1.07723857    -0.22606206   -40.44225755     0.00000000     0.00000000  0.10D-15  0.61D-15  6  6   815.09    49.95
  13      1.07723857    -0.22606206   -40.44225755    -0.00000000     0.00000000  0.72D-17  0.66D-16  6  1   863.34    49.94
  14      1.07723857    -0.22606206   -40.44225755    -0.00000000     0.00000000  0.12D-17  0.86D-17  6  3   911.62    49.93

 Norm of t1 vector:      0.03291699      S-energy:    -0.00000000      T1 diagnostic:  0.00822925
                                                                       D1 diagnostic:  0.01319223

 Adding energy correction from Wij-K(Fij), methodcc=6  factor= 1.0

  CCSD correlation energy              -0.226062061025
  MP2-F12 correction (uncoupled)       -0.007442190998
  C*T doubles correction               -0.000127140691
  f12b correction                       0.001937724030

 Total CPU time for triples:    427.93 sec

  Ecorr(MP2)                           -0.210887457635
  Ecorr(MP2-F12)                       -0.218454195351
  Scale factor for triples energy       1.035880453968


 RESULTS
 =======

  Reference energy                    -40.215950258079
  F12 singles correction               -0.000245229824

 F12 singles corrections added to reference energy

  New reference energy                -40.216195487902

  F12a singlet correction              -0.007079573574
  F12a triplet correction              -0.000489758115
  F12a total correction                -0.007569331689

 F12a corrections for ansatz F12/3C(FIX) added to CCSD energy

  CCSD-F12a singlet pair energy        -0.178450442763
  CCSD-F12a triplet pair energy        -0.055180949947
  CCSD-F12a correlation energy         -0.233631392714

  Triples (T) contribution (scaled)    -0.007052875550
  Total correlation energy             -0.240684268264

  CCSD-F12a total energy              -40.449826880616
  CCSD[T]-F12a energy                 -40.457116294273
  CCSD-T-F12a energy                  -40.456809898491
 !CCSD(T)-F12a total energy           -40.456879756166

 F12b corrections for ansatz F12/3C(FIX) added to CCSD(T)-F12a energy

  CCSD-F12b singlet pair energy        -0.176580351347
  CCSD-F12b triplet pair energy        -0.055113317333
  CCSD-F12b correlation energy         -0.231693668684

  Triples (T) contribution (scaled)    -0.007052875550
  Total correlation energy             -0.238746544234

  CCSD-F12b total energy              -40.447889156587
  CCSD[T]-F12b energy                 -40.455178570243
  CCSD-T-F12b energy                  -40.454872174461
 !CCSD(T)-F12b total energy           -40.454942032136

 Timing summary (sec):

 STEP                 CPU(USER)    SYS     CPU(TOT)    WALL
 Transformation        169.23      4.16    173.39    173.80
 CCSD iterations       679.10     19.15    698.25    699.20
 Triples               427.93      0.89    428.82    429.37
 MP2-F12                63.38      1.31     64.69     64.76
 F12b energy            43.92      1.27     45.19     45.25

 Program statistics:

 Available memory in ccsd:              1999999866
 Min. memory needed in ccsd:               6763924
 Max. memory used in ccsd:                 7862874
 Max. memory used in cckext:               5171974 (15 integral passes)



 **********************************************************************************************************************************
 DATASETS  * FILE   NREC   LENGTH (MB)   RECORD NAMES
              1      19     1346.98       500      610      700      900      950      970     1000      129      960     1100   
                                          VAR    BASINP    GEOM    SYMINP    ZMAT    AOBASIS   BASIS     P2S    ABASIS      S 
                                         1400     1410     1200     1210     1080     1600     1650     1700     1380   
                                           T        V       H0       H01     AOSYM     SMH    MOLCAS    OPER     JKOP   

              2       9       27.51       700     1000      520     2100     7360     7350      200     2101     2102   
                                         GEOM     BASIS   MCVARS     RHF    F12ABS    EF12    OPTIONS    RHF      RHF  

 PROGRAMS   *        TOTAL   CCSD(T)    HF-SCF       INT   CCSD(T)    HF-SCF       INT   CCSD(T)    HF-SCF       INT
 CPU TIMES  *      9994.06   1383.81    182.60      0.41   1488.12    222.29      0.42   6149.78    209.03    357.33
 REAL TIME  *     10345.98 SEC
 DISK USED  *         3.24 GB (local),       76.55 GB (total)
 SF USED    *         5.13 GB
 GA USED    *         4.87 MB       (max)       0.00 MB       (current)
 **********************************************************************************************************************************
 Molecular orbitals read from record     2102.2  Type=RHF/CANONICAL (state 1.1)
 Occupation numbers read from record     2102.2  Type=RHF/RHF (state 1.1)
 Orbital energies read from record       2102.2  Type=RHF/CANONICAL (state 1.1)
 Redundancy group numbers read from rec  2102.2  Type=RHF/RHF (state 1.1)

 CCSD(T)-F12/aug-cc-pVQZ energy=    -40.454942032136

     CCSD(T)-F12          HF-SCF     CCSD(T)-F12          HF-SCF     CCSD(T)-F12          HF-SCF
    -40.45494203    -40.21595026    -76.37109573    -76.06365335   -116.82676780   -116.27969671
 **********************************************************************************************************************************
 Molpro calculation terminated
