
 Primary working directories    : /scratch/klimes/383249/molpro.hAJMDXxpTE
 Secondary working directories  : /scratch/klimes/383249/molpro.hAJMDXxpTE
 Wavefunction directory         : /scratch/klimes/383249/
 Main file repository           : /scratch/klimes/383249/molpro.hAJMDXxpTE/

 id        : karlovklimes

 Nodes                      nprocs
 nc-07.cc.karlov.mff.cuni.cz    4

 Using customized tuning parameters: mindgm=1; mindgv=20; mindgc=4; mindgr=1; noblas=0; minvec=7
 default implementation of scratch files=sf  


 Variables initialized (930), CPU time= 0.01 sec
                                                                                 !gdirect
 memory,2000,m
 gthresh,orbital=1d-10,energy=1d-10,grid=1d-8
 
 symmetry,nosym
 angstrom
 geometry={
 O16        -6.031300000000      0.567500000000     -1.162700000000
 H31        -6.239000000000      1.445500000000     -0.783400000000
 H32        -6.065700000000     -0.057500000000     -0.412200000000
 C1        -3.277200000000      1.482500000000      1.271900000000
 H41        -2.464000000000      0.899600000000      1.651000000000
 H42        -3.160800000000      2.501000000000      1.578500000000
 H43        -4.201800000000      1.099200000000      1.650100000000
 H44        -3.268500000000      1.421000000000      0.203700000000
 }
 
 nkerna=1
 nkernb=1
 
 gf=0
 sing=1
 thrdum=1d-4
 gridthr=1d-8
 
 basis={
 set,orbital
 default,avqz
 set,jkfit
 default,av5z/jkfit
 set,mp2fit
 default,av5z/mp2fit
 set,ri
 default,av5z/optri
 set,tddft
 default,av5z/mp2fit
 }
 
 proc set_monomer1
 dummy,4,5,6,7,8
 endproc
 
 proc set_monomer2
 dummy,1,2,3
 endproc
 
                                                                                 !12 energy
 {hf,accu=1.d-16}
 {ccsd(t)-f12,df_basis=mp2fit,df_basis_exch=jkfit,ri_basis=ri,scale_trip=1,THRAOF12=1d-10}
 
 set_monomer1
 {hf,accu=1.d-16}
 {ccsd(t)-f12,df_basis=mp2fit,df_basis_exch=jkfit,ri_basis=ri,scale_trip=1,THRAOF12=1d-10}
 
 set_monomer2
 {hf,accu=1.d-16}
 {ccsd(t)-f12,df_basis=mp2fit,df_basis_exch=jkfit,ri_basis=ri,scale_trip=1,THRAOF12=1d-10}
 
 Commands  initialized (760), CPU time= 0.02 sec, 617 directives.
 Default parameters read. Elapsed time= 0.17 sec

 Checking input...
 Passed
1


                                         ***  PROGRAM SYSTEM MOLPRO  ***
                                       Copyright, TTI GmbH Stuttgart, 2015
                                    Version 2019.1 linked Jan 14 2019 13:09:19


 **********************************************************************************************************************************
 LABEL *                                                                                 
  64 bit mpp version                                                                     DATE: 11-Mar-20          TIME: 18:08:25  
 **********************************************************************************************************************************

 SHA1:             d688ac825633d238f2093ded1675ba87ccd55965
 **********************************************************************************************************************************

 THRESHOLDS:

 ZERO    =  1.00D-12  ONEINT  =  1.00D-12  TWOINT  =  1.00D-11  PREFAC  =  1.00D-14  XXXXXX  =  1.00D-09  EORDER  =  1.00D-04
 ENERGY  =  1.00D-10  ETEST   =  0.00D+00  EDENS   =  0.00D+00  THRDEDEF=  1.00D-06  GRADIENT=  1.00D-02  STEP    =  1.00D-03
 ORBITAL =  1.00D-10  CIVEC   =  1.00D-05  COEFF   =  1.00D-04  PRINTCI =  5.00D-02  PUNCHCI =  9.90D+01  OPTGRAD =  3.00D-04
 OPTENERG=  1.00D-06  OPTSTEP =  3.00D-04  THRGRAD =  1.00D-10  COMPRESS=  1.00D-11  VARMIN  =  1.00D-07  VARMAX  =  1.00D-03
 THRDOUB =  0.00D+00  THRDIV  =  1.00D-05  THRRED  =  1.00D-07  THRPSP  =  1.00D+00  THRDC   =  1.00D-10  THRCS   =  1.00D-10
 THRNRM  =  1.00D-08  THREQ   =  0.00D+00  THRDE   =  1.00D+00  THRREF  =  1.00D-05  SPARFAC =  1.00D+00  THRDLP  =  1.00D-07
 THRDIA  =  1.00D-10  THRDLS  =  1.00D-07  THRGPS  =  0.00D+00  THRKEX  =  0.00D+00  THRDIS  =  2.00D-01  THRVAR  =  1.00D-10
 THRLOC  =  1.00D-06  THRGAP  =  1.00D-06  THRLOCT = -1.00D+00  THRGAPT = -1.00D+00  THRORB  =  1.00D-06  THRMLTP =  0.00D+00
 THRCPQCI=  1.00D-10  KEXTA   =  0.00D+00  THRCOARS=  0.00D+00  SYMTOL  =  1.00D-06  GRADTOL =  1.00D-06  THROVL  =  1.00D-08
 THRORTH =  1.00D-08  GRID    =  1.00D-08  GRIDMAX =  1.00D-03  DTMAX   =  0.00D+00  THROCCDE=  1.00D-01  THROCCDE=  1.00D-01
 THRPRINT=  2.50D-01


 Variable memory set to 2000000000 words,  buffer space 

 ZSYMEL=NOSYM
 ZUNIT=ANG


Geometry recognized as XYZ

 SETTING NKERNA         =         1.00000000                                  
 SETTING NKERNB         =         1.00000000                                  
 SETTING GF             =     0.00000000D+00                                  
 SETTING SING           =         1.00000000                                  
 SETTING THRDUM         =     1.00000000D-04                                  
 SETTING GRIDTHR        =     1.00000000D-08                                  
 SETTING BASIS          =    AVQZ


 Recomputing integrals since basis changed


 Using spherical harmonics

 Library entry O      S aug-cc-pVQZ          selected for orbital group  1
 Library entry O      P aug-cc-pVQZ          selected for orbital group  1
 Library entry O      D aug-cc-pVQZ          selected for orbital group  1
 Library entry O      F aug-cc-pVQZ          selected for orbital group  1
 Library entry O      G aug-cc-pVQZ          selected for orbital group  1
 Library entry H      S aug-cc-pVQZ          selected for orbital group  2
 Library entry H      P aug-cc-pVQZ          selected for orbital group  2
 Library entry H      D aug-cc-pVQZ          selected for orbital group  2
 Library entry H      F aug-cc-pVQZ          selected for orbital group  2
 Library entry C      S aug-cc-pVQZ          selected for orbital group  3
 Library entry C      P aug-cc-pVQZ          selected for orbital group  3
 Library entry C      D aug-cc-pVQZ          selected for orbital group  3
 Library entry C      F aug-cc-pVQZ          selected for orbital group  3
 Library entry C      G aug-cc-pVQZ          selected for orbital group  3


 PROGRAM * SEWARD (Integral evaluation for generally contracted gaussian basis sets)     Author: Roland Lindh, 1990

 Geometry written to block  1 of record 700


 Point group  C1  



 ATOMIC COORDINATES

 NR  ATOM    CHARGE       X              Y              Z

   1  O16     8.00  -11.397505175    1.072419576   -2.197184565
   2  H31     1.00  -11.790001291    2.731599113   -1.480411446
   3  H32     1.00  -11.462511754   -0.108659252   -0.778945109
   4  C1      6.00   -6.193010455    2.801518980    2.403542658
   5  H41     1.00   -4.656285171    1.699997622    3.119937832
   6  H42     1.00   -5.973046335    4.726205038    2.982932688
   7  H43     1.00   -7.940251230    2.077186956    3.118237078
   8  H44     1.00   -6.176569838    2.685300823    0.384937212

 Bond lengths in Bohr (Angstrom)

 1-2  1.849511731  1-3  1.846774542  4-5  2.021904040  4-6  2.022002335  4-7  2.021953343
     ( 0.978719459)     ( 0.977271001)     ( 1.069945541)     ( 1.069997556)     ( 1.069971630)

 4-8  2.022015060
     ( 1.070004290)

 Bond angles

  2-1-3  105.58293551   5-4-6  109.53398059   5-4-7  109.65604535   5-4-8  108.43490854

  6-4-7  109.49436728   6-4-8  109.86987750   7-4-8  109.83468330

 NUCLEAR CHARGE:                   20
 NUMBER OF PRIMITIVE AOS:         578
 NUMBER OF SYMMETRY AOS:          474
 NUMBER OF CONTRACTIONS:          436   (  436A   )
 NUMBER OF CORE ORBITALS:           2   (    2A   )
 NUMBER OF VALENCE ORBITALS:       14   (   14A   )


 NUCLEAR REPULSION ENERGY   36.77810311


 Basis set:  JKFIT                   
 Basis size:  1104
 Attributes:
 Sphericals:   T
 Basis set:  MP2FIT                  
 Basis size:  1246
 Attributes:
 Sphericals:   T
 Basis set:  RI                      
 Basis size:   730
 Attributes:
 Sphericals:   T
 Basis set:  TDDFT                   
 Basis size:  1246
 Attributes:
 Sphericals:   T

 **********************************************************************************************************************************


 Eigenvalues of metric

         1 0.158E-04 0.321E-04 0.347E-04 0.351E-04 0.637E-04 0.951E-04 0.102E-03 0.112E-03


 Contracted 2-electron integrals neglected if value below      1.0D-14
 AO integral compression algorithm  1   Integral accuracy      1.0D-14

     23917.756 MB (compressed) written to integral file ( 59.6%)

     Node minimum: 5483.528 MB, node maximum: 6638.535 MB


 NUMBER OF SORTED TWO-ELECTRON INTEGRALS: 1134451344.     BUFFER LENGTH:  32768
 NUMBER OF SEGMENTS:  36  SEGMENT LENGTH:   31999984      RECORD LENGTH: 524288

 Memory used in sort:      32.56 MW

 SORT1 READ  5012305700. AND WROTE   987061108. INTEGRALS IN   2842 RECORDS. CPU TIME:   350.57 SEC, REAL TIME:   419.21 SEC
 SORT2 READ  3947443158. AND WROTE  4537853011. INTEGRALS IN  87564 RECORDS. CPU TIME:    30.41 SEC, REAL TIME:    96.38 SEC

 Node minimum:  1134427528.  Node maximum:  1134498978. integrals

 OPERATOR DM      FOR CENTER  0  COORDINATES:    0.000000    0.000000    0.000000


 **********************************************************************************************************************************
 DATASETS  * FILE   NREC   LENGTH (MB)   RECORD NAMES
              1      18       37.12       500      610      700      900      950      970     1000      129      960     1100   
                                          VAR    BASINP    GEOM    SYMINP    ZMAT    AOBASIS   BASIS     P2S    ABASIS      S 
                                         1400     1410     1200     1210     1080     1600     1650     1700   
                                           T        V       H0       H01     AOSYM     SMH    MOLCAS    OPER   

 PROGRAMS   *        TOTAL       INT
 CPU TIMES  *       445.90    445.63
 REAL TIME  *       631.53 SEC
 DISK USED  *        37.64 MB (local),       71.23 GB (total)
 GA USED    *         0.00 MB       (max)       0.00 MB       (current)
 **********************************************************************************************************************************


 PROGRAM * RHF-SCF (CLOSED SHELL)       Authors: W. Meyer, H.-J. Werner


 NUMBER OF ELECTRONS:      10+   10-    SPACE SYMMETRY=1    SPIN SYMMETRY: Singlet 
 CONVERGENCE THRESHOLDS:    1.00E-08 (Density)    1.00E-11 (Energy)
 MAX. NUMBER OF ITERATIONS:       60
 INTERPOLATION TYPE:            DIIS
 INTERPOLATION STEPS:              2 (START)      1 (STEP)
 LEVEL SHIFTS:                  0.00 (CLOSED)  0.00 (OPEN) 



 Orbital guess generated from atomic densities. Full valence occupancy:   16

 Molecular orbital dump at record        2100.2

 Initial occupancy:  10

 ITERATION    DDIFF          GRAD             ENERGY        2-EL.EN.            DIPOLE MOMENTS         DIIS   ORB.
    1      0.000D+00      0.000D+00      -116.22128535    158.983027   -0.23093    0.24259    1.09196    0    start
    2      0.000D+00      0.378D-02      -116.26520849    154.160168   -0.09594    0.14255    0.61100    1    diag
    3      0.272D-02      0.221D-02      -116.27864696    156.175437   -0.13181    0.16792    0.73094    2    diag
    4      0.943D-03      0.330D-03      -116.27930487    156.063512   -0.13051    0.16533    0.71970    3    diag
    5      0.204D-03      0.966D-04      -116.27937364    156.057790   -0.13002    0.16530    0.71903    4    diag
    6      0.824D-04      0.236D-04      -116.27937751    156.063501   -0.12973    0.16512    0.71819    5    diag
    7      0.223D-04      0.471D-05      -116.27937774    156.061817   -0.12972    0.16512    0.71820    6    diag
    8      0.652D-05      0.119D-05      -116.27937775    156.061990   -0.12969    0.16510    0.71813    7    diag
    9      0.144D-05      0.277D-06      -116.27937775    156.061963   -0.12969    0.16509    0.71811    8    diag
   10      0.409D-06      0.331D-07      -116.27937775    156.061965   -0.12969    0.16509    0.71811    9    orth
   11      0.439D-07      0.796D-08      -116.27937775    156.061966   -0.12969    0.16509    0.71811    9    diag
   12      0.906D-08      0.211D-08      -116.27937775    156.061966   -0.12969    0.16509    0.71811    0    orth

 Final occupancy:  10

 !RHF STATE  1.1 Energy              -116.279377754276
 Nuclear energy                        36.77810311
 One-electron energy                 -231.08846401
 Two-electron energy                   78.03098315
 Virial quotient                       -1.00069963
 !RHF STATE  1.1 Dipole moment         -0.12968599     0.16509263     0.71811349
 Dipole moment /Debye                  -0.32960731     0.41959612     1.82514289

 Orbital energies:

         1.1          2.1          3.1          4.1          5.1          6.1          7.1          8.1          9.1         10.1
    -20.566791   -11.198996    -1.340909    -0.953768    -0.707786    -0.578746    -0.555011    -0.553738    -0.550564    -0.506939

        11.1         12.1
      0.023144     0.037244


 HOMO     10.1    -0.506939 =     -13.7945eV
 LUMO     11.1     0.023144 =       0.6298eV
 LUMO-HOMO         0.530084 =      14.4243eV


 **********************************************************************************************************************************
 DATASETS  * FILE   NREC   LENGTH (MB)   RECORD NAMES
              1      18       37.12       500      610      700      900      950      970     1000      129      960     1100   
                                          VAR    BASINP    GEOM    SYMINP    ZMAT    AOBASIS   BASIS     P2S    ABASIS      S 
                                         1400     1410     1200     1210     1080     1600     1650     1700   
                                           T        V       H0       H01     AOSYM     SMH    MOLCAS    OPER   

              2       4        6.75       700     1000      520     2100   
                                         GEOM     BASIS   MCVARS     RHF  

 PROGRAMS   *        TOTAL    HF-SCF       INT
 CPU TIMES  *       663.55    217.65    445.63
 REAL TIME  *       870.38 SEC
 DISK USED  *        57.70 MB (local),       71.31 GB (total)
 SF USED    *         0.76 MB
 GA USED    *         0.00 MB       (max)       0.00 MB       (current)
 **********************************************************************************************************************************

 Basis set:  JKFIT                   
 Basis size:  1104
 Attributes:
 Sphericals:   T
 Basis set:  MP2FIT                  
 Basis size:  1246
 Attributes:
 Sphericals:   T
 Basis set:  RI                      
 Basis size:   730
 Attributes:
 Sphericals:   T
 Basis set:  TDDFT                   
 Basis size:  1246
 Attributes:
 Sphericals:   T

 PROGRAM * CCSD (Closed-shell coupled cluster)     Authors: C. Hampel, H.-J. Werner, 1991, M. Deegan, P.J. Knowles, 1992

                                  CCSD-F12 implementation by  H.-J. Werner, 2007

                   Density fitting integral evaluation by F.R. Manby, 2003,2007, G. Knizia, 2010



 Convergence thresholds:  THRVAR = 1.00D-08  THRDEN = 1.00D-10

 CCSD(T)     terms to be evaluated (factor= 1.000)


 Number of core orbitals:           2 (   2 )
 Number of closed-shell orbitals:   8 (   8 )
 Number of external orbitals:     426 ( 426 )

 Molecular orbitals read from record     2100.2  Type=RHF/CANONICAL (state 1.1)

 MP2-F12 correlation treatment (H.-J. Werner, 2006)
 ==================================================

 Using MP2-F12 with ansatz 3C(FIX)

 Using projected zeroth-order Hamiltonian (+Z)

 FOCKRIB=T FOCKRIC=T FOCKRIP=T CABSP=T CABSA=T CABSK=T CABSF=T GBC=F EBC=F DMAT=T NOFIK=T NOPAO=1 SOLVE=-1  USEPAO=0
 EXCH_A= T EXCH_B= F EXCH_C= F EXCH_P= F

 Geminal basis:    OPTFULL  GEM_TYPE=SLATER  BETA=1.0  NGEM=6

 Optimizing Gaussian exponents for each gem_beta

 Geminal optimization for beta= 1.0000
 Weight function:   m=0, omega= 1.4646

 Augmented Hessian optimization of geminal fit. Trust ratio= 0.40000
 Convergence reached after   2 iterations. Final gradient= 7.85D-16, Step= 4.26D-06, Delta= 1.28D-09

 Alpha:                 0.19532     0.81920     2.85917     9.50073    35.69989   197.79328
 Coeff:                 0.27070     0.30552     0.18297     0.10986     0.06810     0.04224


 All pairs explicitly correlated. Number of r12-pairs:           36

 Excluding core orbitals from MO domains

 AO(A)-basis ORBITAL           loaded. Number of functions:     436
 RI(R)-basis RI                loaded. Number of functions:     730
 DF-basis JKFIT                loaded. Number of functions:    1104

 Screening thresholds:   THRAO=  1.00D-10  THRMO=  1.00D-09  THRPROD=  1.00D-09
                         THRSW=  1.00D-05  THROV=  1.00D-12  THRAOF12= 1.00D-10

 CPU time for Fock operators                     12.36 sec

 Construction of ABS:
 Smallest eigenvalue of S          2.27E-04  (threshold= 1.00E-08)
 Ratio eigmin/eigmax               3.94E-05  (threshold= 1.00E-09)
 Smallest eigenvalue of S kept     2.27E-04  (threshold= 2.27E-04, 0 functions deleted, 730 kept)

 Construction of CABS:
 Smallest eigenvalue of S          1.52E-08  (threshold= 1.00E-08)
 Ratio eigmin/eigmax               1.52E-08  (threshold= 1.00E-09)
 Smallest eigenvalue of S kept     1.52E-08  (threshold= 1.52E-08, 0 functions deleted, 730 kept)

 CPU time for CABS singles                        2.23 sec

 CABS-singles contribution of  -0.00053767 patched into reference energy.
 New reference energy        -116.27991542

 AO(A)-basis ORBITAL           loaded. Number of functions:     436
 RI(R)-basis RI                loaded. Number of functions:     730
 DF-basis MP2FIT               loaded. Number of functions:    1246

 Screening thresholds:   THRAO=  1.00D-10  THRMO=  1.00D-09  THRPROD=  1.00D-09
                         THRSW=  1.00D-05  THROV=  1.00D-12  THRAOF12= 1.00D-10

 CPU time for 3-index integral evaluation        19.54 sec
 CPU time for first  half transformation          4.94 sec ( 2624.0 MFLOP/sec)
 CPU time for second half transformation          0.09 sec ( 1709.1 MFLOP/sec)
 CPU time for sorting                             0.21 sec
 CPU time for fitting                             1.82 sec ( 4080.9 MFLOP/sec)
 CPU time for tilde quantities                    2.32 sec ( 4341.7 MFLOP/sec)
 CPU time for assembly                           16.47 sec ( 4305.9 MFLOP/sec)
 CPU time for tranop_f12                         16.09 sec ( 4282.7 MFLOP/sec)
 CPU time for f12 integrals (total)              83.49 sec, Elapsed time:     85.98 sec
 F12-matrices built in  4 passes.
 F12-matrices built in  4 passes.
 F12-matrices built in  4 passes.
 F12-matrices built in  4 passes.
 FC-matrix built in  4 passes.
 CPU time for f12 matrices (total)                5.58 sec, Elapsed time:      5.74 sec

 Diagonal F12 approximation with fixed coefficients:  TSING= 0.500,  TTRIP= 0.250 (scaled by -1/beta)

 DF-MP2-F12 energy corrections:
 ==============================
 Approx.                                    Singlet             Triplet             Total
 DF-MP2-F12/3*C(DX,FIX)                -0.021222112681     -0.002110075498     -0.023332188179
 DF-MP2-F12/3*C(FIX)                   -0.019153549248     -0.001555949236     -0.020709498484
 DF-MP2-F12/3C(FIX)                    -0.019168451176     -0.001607401308     -0.020775852484

 DF-MP2-F12 correlation energies:
 ================================
 Approx.                                    Singlet             Triplet             Ecorr            Total Energy
 DF-MP2                                -0.340744621278     -0.158403827127     -0.499148448406   -116.779063870952
 DF-MP2-F12/3*C(DX,FIX)                -0.361966733960     -0.160513902625     -0.522480636585   -116.802396059131
 DF-MP2-F12/3*C(FIX)                   -0.359898170527     -0.159959776363     -0.519857946890   -116.799773369436
 DF-MP2-F12/3C(FIX)                    -0.359913072455     -0.160011228435     -0.519924300890   -116.799839723436

 SCS-DF-MP2 energies (F_SING= 1.20000  F_TRIP= 0.62222  F_PARALLEL= 0.33333):
 ============================================================================
 SCS-DF-MP2                            -0.507455926858   -116.787371349404
 SCS-DF-MP2-F12/3*C(DX,FIX)            -0.534235397940   -116.814150820487
 SCS-DF-MP2-F12/3*C(FIX)               -0.531408332147   -116.811323754693
 SCS-DF-MP2-F12/3C(FIX)                -0.531458229083   -116.811373651629
 Symmetry transformation completed.

 Number of N-1 electron functions:               8
 Number of N-2 electron functions:              36
 Number of singly external CSFs:              3408
 Number of doubly external CSFs:           5808936
 Total number of CSFs:                     5812345

 Pair and operator lists are different

 Length of J-op  integral file:               0.75 GB
 Length of K-op  integral file:               0.98 GB
 Length of 3-ext integral record:             0.00 MB

 Memory could be reduced to 828.63 Mwords without degradation in triples

 Integral transformation finished. Total CPU: 313.79 sec, npass=  1  Memory used: 389.45 MW

 Reference energy:                   -116.27991542

 Adding F12 terms to K(Cij), methodcc=6,  factor= 1.0

 ITER.      SQ.NORM     CORR.ENERGY   TOTAL ENERGY   ENERGY CHANGE        DEN1      VAR(S)    VAR(P)  DIIS     TIME  TIME/IT
   1      1.13398013    -0.51280555  -116.79272097    -0.01364778    -0.00173477  0.14D-02  0.20D-02  1  1   590.42   166.06
   2      1.14224809    -0.51345527  -116.79337069    -0.00064972    -0.01000050  0.30D-04  0.24D-03  2  2   755.49   167.13
   3      1.14528443    -0.51364704  -116.79356246    -0.00019177    -0.00213578  0.13D-04  0.14D-04  3  3   920.13   167.27
   4      1.14626392    -0.51366612  -116.79358154    -0.00001908    -0.00058307  0.66D-06  0.13D-05  4  4  1085.92   167.55
   5      1.14643263    -0.51366581  -116.79358123     0.00000031    -0.00004000  0.21D-06  0.90D-07  5  5  1251.95   167.81
   6      1.14647618    -0.51366296  -116.79357838     0.00000284    -0.00000629  0.22D-07  0.80D-08  6  6  1417.71   167.86
   7      1.14648794    -0.51366170  -116.79357713     0.00000126    -0.00000359  0.20D-08  0.85D-09  6  1  1583.39   167.91
   8      1.14648959    -0.51366172  -116.79357714    -0.00000001     0.00000031  0.37D-09  0.11D-09  6  3  1748.24   167.81
   9      1.14649079    -0.51366165  -116.79357708     0.00000007    -0.00000034  0.32D-10  0.18D-10  6  2  1913.95   167.84
  10      1.14649082    -0.51366166  -116.79357708    -0.00000000     0.00000011  0.88D-11  0.40D-11  6  3  2078.92   167.76
  11      1.14649095    -0.51366165  -116.79357708     0.00000000     0.00000000  0.57D-12  0.28D-12  6  4  2244.36   167.81
  12      1.14649093    -0.51366166  -116.79357708    -0.00000000     0.00000002  0.10D-12  0.49D-13  6  6  2409.76   167.82
  13      1.14649092    -0.51366166  -116.79357708    -0.00000000     0.00000001  0.17D-13  0.48D-14  6  5  2575.00   167.77
  14      1.14649091    -0.51366166  -116.79357708    -0.00000000     0.00000000  0.30D-14  0.98D-15  6  1  2740.15   167.76
  15      1.14649091    -0.51366166  -116.79357708    -0.00000000    -0.00000000  0.38D-15  0.17D-15  6  2  2905.49   167.74
  16      1.14649091    -0.51366166  -116.79357708    -0.00000000    -0.00000000  0.47D-16  0.20D-16  6  4  3070.66   167.71

 Norm of t1 vector:      0.04991331      S-energy:    -0.00000000      T1 diagnostic:  0.00882351
                                                                       D1 diagnostic:  0.01916687

 Adding energy correction from Wij-K(Fij), methodcc=6  factor= 1.0

  CCSD correlation energy              -0.513661657218
  MP2-F12 correction (uncoupled)       -0.020211681770
  C*T doubles correction               -0.000546820008
  f12b correction                       0.004653686219

   CPU time for triples:   2034.14 sec for i =  1 -  7 /  8 (~  68.8 % done)
   CPU time for triples:    818.73 sec for i =  8 -  8 /  8 (  100.0 % done)

 Total CPU time for triples:   2858.24 sec

  Ecorr(MP2)                           -0.499157768687
  Ecorr(MP2-F12)                       -0.519933621171
  Scale factor for triples energy       1.041621815360


 RESULTS
 =======

  Reference energy                   -116.279377754274
  F12 singles correction               -0.000537668272

 F12 singles corrections added to reference energy

  New reference energy               -116.279915422546

  F12a singlet correction              -0.019140074942
  F12a triplet correction              -0.001618426836
  F12a total correction                -0.020758501778

 F12a corrections for ansatz F12/3C(FIX) added to CCSD energy

  CCSD-F12a singlet pair energy        -0.387846812825
  CCSD-F12a triplet pair energy        -0.146573346032
  CCSD-F12a correlation energy         -0.534420158996

  Triples (T) contribution (scaled)    -0.017125557393
  Total correlation energy             -0.551545716388

  CCSD-F12a total energy             -116.814335581542
  CCSD[T]-F12a energy                -116.832028035862
  CCSD-T-F12a energy                 -116.831247311398
 !CCSD(T)-F12a total energy          -116.831461138935

 F12b corrections for ansatz F12/3C(FIX) added to CCSD(T)-F12a energy

  CCSD-F12b singlet pair energy        -0.383408295140
  CCSD-F12b triplet pair energy        -0.146358177498
  CCSD-F12b correlation energy         -0.529766472776

  Triples (T) contribution (scaled)    -0.017125557393
  Total correlation energy             -0.546892030169

  CCSD-F12b total energy             -116.809681895323
  CCSD[T]-F12b energy                -116.827374349642
  CCSD-T-F12b energy                 -116.826593625178
 !CCSD(T)-F12b total energy          -116.826807452715

 Timing summary (sec):

 STEP                 CPU(USER)    SYS     CPU(TOT)    WALL
 Transformation        314.99      6.15    321.14    323.41
 CCSD iterations      2644.70     27.73   2672.43   2683.55
 Triples              2858.24      5.90   2864.14   2868.35
 MP2-F12               111.08      2.88    113.96    114.39
 F12b energy           141.38      1.14    142.52    142.71

 Program statistics:

 Available memory in ccsd:              1999999554
 Min. memory needed in ccsd:              16971337
 Max. memory used in ccsd:                21987113
 Max. memory used in cckext:              15122080 (17 integral passes)



 **********************************************************************************************************************************
 DATASETS  * FILE   NREC   LENGTH (MB)   RECORD NAMES
              1      19     2602.04       500      610      700      900      950      970     1000      129      960     1100   
                                          VAR    BASINP    GEOM    SYMINP    ZMAT    AOBASIS   BASIS     P2S    ABASIS      S 
                                         1400     1410     1200     1210     1080     1600     1650     1700     1380   
                                           T        V       H0       H01     AOSYM     SMH    MOLCAS    OPER     JKOP   

              2       6       10.56       700     1000      520     2100     7360     7350   
                                         GEOM     BASIS   MCVARS     RHF    F12ABS    EF12   

 PROGRAMS   *        TOTAL   CCSD(T)    HF-SCF       INT
 CPU TIMES  *      6734.20   6070.63    217.65    445.63
 REAL TIME  *      7003.58 SEC
 DISK USED  *         3.24 GB (local),       82.15 GB (total)
 SF USED    *         5.12 GB
 GA USED    *         4.87 MB       (max)       0.00 MB       (current)
 **********************************************************************************************************************************

 Running procedure: SET_MONOMER1

 Dummy atoms: C1  H41  H42  H43  H44


 Recomputing one-electron integrals since nuclear charges changed


 PROGRAM * SEWARD (Integral evaluation for generally contracted gaussian basis sets)     Author: Roland Lindh, 1990

 Geometry written to block  1 of record 700


 Point group  C1  



 ATOMIC COORDINATES

 NR  ATOM    CHARGE       X              Y              Z

   1  O16     8.00  -11.397505175    1.072419576   -2.197184565
   2  H31     1.00  -11.790001291    2.731599113   -1.480411446
   3  H32     1.00  -11.462511754   -0.108659252   -0.778945109
   4  C1      0.00   -6.193010455    2.801518980    2.403542658
   5  H41     0.00   -4.656285171    1.699997622    3.119937832
   6  H42     0.00   -5.973046335    4.726205038    2.982932688
   7  H43     0.00   -7.940251230    2.077186956    3.118237078
   8  H44     0.00   -6.176569838    2.685300823    0.384937212

 Bond lengths in Bohr (Angstrom)

 1-2  1.849511731  1-3  1.846774542  4-5  2.021904040  4-6  2.022002335  4-7  2.021953343
     ( 0.978719459)     ( 0.977271001)     ( 1.069945541)     ( 1.069997556)     ( 1.069971630)

 4-8  2.022015060
     ( 1.070004290)

 Bond angles

  2-1-3  105.58293551   5-4-6  109.53398059   5-4-7  109.65604535   5-4-8  108.43490854

  6-4-7  109.49436728   6-4-8  109.86987750   7-4-8  109.83468330

 NUCLEAR CHARGE:                   10
 NUMBER OF PRIMITIVE AOS:         578
 NUMBER OF SYMMETRY AOS:          474
 NUMBER OF CONTRACTIONS:          436   (  436A   )
 NUMBER OF CORE ORBITALS:           1   (    1A   )
 NUMBER OF VALENCE ORBITALS:        6   (    6A   )

 MOLECULE CHANGED: INITIALIZING OCCUPATION AND DUMP RECORDS


 NUCLEAR REPULSION ENERGY    8.99703174

 Basis set:  JKFIT                   
 Basis size:  1104
 Attributes:
 Sphericals:   T
 Basis set:  MP2FIT                  
 Basis size:  1246
 Attributes:
 Sphericals:   T
 Basis set:  RI                      
 Basis size:   730
 Attributes:
 Sphericals:   T
 Basis set:  TDDFT                   
 Basis size:  1246
 Attributes:
 Sphericals:   T

 Eigenvalues of metric

         1 0.158E-04 0.321E-04 0.347E-04 0.351E-04 0.637E-04 0.951E-04 0.102E-03 0.112E-03


 Contracted 2-electron integrals neglected if value below      1.0D-14

 OPERATOR DM      FOR CENTER  0  COORDINATES:    0.000000    0.000000    0.000000


 **********************************************************************************************************************************
 DATASETS  * FILE   NREC   LENGTH (MB)   RECORD NAMES
              1      18       37.12       500      610      700      900      950      970     1000      129      960     1100   
                                          VAR    BASINP    GEOM    SYMINP    ZMAT    AOBASIS   BASIS     P2S    ABASIS      S 
                                         1400     1410     1200     1210     1080     1600     1650     1700   
                                           T        V       H0       H01     AOSYM     SMH    MOLCAS    OPER   

              2       7       10.59       700     1000      520     2100     7360     7350      200   
                                         GEOM     BASIS   MCVARS     RHF    F12ABS    EF12    OPTIONS    

 PROGRAMS   *        TOTAL       INT   CCSD(T)    HF-SCF       INT
 CPU TIMES  *      6734.62      0.42   6070.63    217.65    445.63
 REAL TIME  *      7004.50 SEC
 DISK USED  *         3.24 GB (local),       82.15 GB (total)
 SF USED    *         5.12 GB
 GA USED    *         4.87 MB       (max)       0.00 MB       (current)
 **********************************************************************************************************************************


 PROGRAM * RHF-SCF (CLOSED SHELL)       Authors: W. Meyer, H.-J. Werner


 NUMBER OF ELECTRONS:       5+    5-    SPACE SYMMETRY=1    SPIN SYMMETRY: Singlet 
 CONVERGENCE THRESHOLDS:    1.00E-08 (Density)    1.00E-11 (Energy)
 MAX. NUMBER OF ITERATIONS:       60
 INTERPOLATION TYPE:            DIIS
 INTERPOLATION STEPS:              2 (START)      1 (STEP)
 LEVEL SHIFTS:                  0.00 (CLOSED)  0.00 (OPEN) 



 Orbital guess generated from atomic densities. Full valence occupancy:    7

 Molecular orbital dump at record        2101.2

 Initial occupancy:   5

 ITERATION    DDIFF          GRAD             ENERGY        2-EL.EN.            DIPOLE MOMENTS         DIIS   ORB.
    1      0.000D+00      0.000D+00       -76.02525152     77.409753   -0.23472    0.24569    1.09495    0    start
    2      0.000D+00      0.467D-02       -76.05199607     73.757463   -0.13636    0.14236    0.63650    1    diag
    3      0.222D-02      0.297D-02       -76.06352819     75.377750   -0.16083    0.16798    0.75063    2    diag
    4      0.841D-03      0.278D-03       -76.06372195     75.286548   -0.15984    0.16687    0.74606    3    diag
    5      0.106D-03      0.776D-04       -76.06374275     75.300797   -0.15947    0.16645    0.74436    4    diag
    6      0.337D-04      0.154D-04       -76.06374409     75.299776   -0.15939    0.16635    0.74399    5    diag
    7      0.865D-05      0.312D-05       -76.06374416     75.299924   -0.15936    0.16632    0.74386    6    diag
    8      0.242D-05      0.591D-06       -76.06374416     75.299909   -0.15935    0.16631    0.74382    7    diag
    9      0.448D-06      0.794D-07       -76.06374416     75.299900   -0.15935    0.16631    0.74382    8    diag
   10      0.525D-07      0.179D-07       -76.06374416     75.299904   -0.15935    0.16631    0.74382    9    orth
   11      0.139D-07      0.300D-08       -76.06374416     75.299903   -0.15935    0.16631    0.74382    9    diag
   12      0.251D-08      0.480D-09       -76.06374416     75.299903   -0.15935    0.16631    0.74382    0    orth

 Final occupancy:   5

 !RHF STATE  1.1 Energy               -76.063744158169
 Nuclear energy                         8.99703174
 One-electron energy                 -122.71072733
 Two-electron energy                   37.64995144
 Virial quotient                       -1.00198925
 !RHF STATE  1.1 Dipole moment         -0.15935218     0.16631135     0.74381955
 Dipole moment /Debye                  -0.40500633     0.42269359     1.89047690

 Orbital energies:

         1.1          2.1          3.1          4.1          5.1          6.1          7.1
    -20.567827    -1.341643    -0.708529    -0.578924    -0.508489     0.017402     0.035449


 HOMO      5.1    -0.508489 =     -13.8367eV
 LUMO      6.1     0.017402 =       0.4735eV
 LUMO-HOMO         0.525891 =      14.3102eV


 **********************************************************************************************************************************
 DATASETS  * FILE   NREC   LENGTH (MB)   RECORD NAMES
              1      18       37.12       500      610      700      900      950      970     1000      129      960     1100   
                                          VAR    BASINP    GEOM    SYMINP    ZMAT    AOBASIS   BASIS     P2S    ABASIS      S 
                                         1400     1410     1200     1210     1080     1600     1650     1700   
                                           T        V       H0       H01     AOSYM     SMH    MOLCAS    OPER   

              2       8       17.39       700     1000      520     2100     7360     7350      200     2101   
                                         GEOM     BASIS   MCVARS     RHF    F12ABS    EF12    OPTIONS    RHF  

 PROGRAMS   *        TOTAL    HF-SCF       INT   CCSD(T)    HF-SCF       INT
 CPU TIMES  *      6964.32    229.70      0.42   6070.63    217.65    445.63
 REAL TIME  *      7255.02 SEC
 DISK USED  *         3.24 GB (local),       82.15 GB (total)
 SF USED    *         5.12 GB
 GA USED    *         4.87 MB       (max)       0.00 MB       (current)
 **********************************************************************************************************************************

 Basis set:  JKFIT                   
 Basis size:  1104
 Attributes:
 Sphericals:   T
 Basis set:  MP2FIT                  
 Basis size:  1246
 Attributes:
 Sphericals:   T
 Basis set:  RI                      
 Basis size:   730
 Attributes:
 Sphericals:   T
 Basis set:  TDDFT                   
 Basis size:  1246
 Attributes:
 Sphericals:   T

 PROGRAM * CCSD (Closed-shell coupled cluster)     Authors: C. Hampel, H.-J. Werner, 1991, M. Deegan, P.J. Knowles, 1992

                                  CCSD-F12 implementation by  H.-J. Werner, 2007

                   Density fitting integral evaluation by F.R. Manby, 2003,2007, G. Knizia, 2010



 Convergence thresholds:  THRVAR = 1.00D-08  THRDEN = 1.00D-10

 CCSD(T)     terms to be evaluated (factor= 1.000)


 Number of core orbitals:           1 (   1 )
 Number of closed-shell orbitals:   4 (   4 )
 Number of external orbitals:     431 ( 431 )

 Molecular orbitals read from record     2101.2  Type=RHF/CANONICAL (state 1.1)

 MP2-F12 correlation treatment (H.-J. Werner, 2006)
 ==================================================

 Using MP2-F12 with ansatz 3C(FIX)

 Using projected zeroth-order Hamiltonian (+Z)

 FOCKRIB=T FOCKRIC=T FOCKRIP=T CABSP=T CABSA=T CABSK=T CABSF=T GBC=F EBC=F DMAT=T NOFIK=T NOPAO=1 SOLVE=-1  USEPAO=0
 EXCH_A= T EXCH_B= F EXCH_C= F EXCH_P= F

 Geminal basis:    OPTFULL  GEM_TYPE=SLATER  BETA=1.0  NGEM=6

 Optimizing Gaussian exponents for each gem_beta

 Geminal optimization for beta= 1.0000
 Weight function:   m=0, omega= 1.4646

 Augmented Hessian optimization of geminal fit. Trust ratio= 0.40000
 Convergence reached after   2 iterations. Final gradient= 8.31D-16, Step= 4.24D-06, Delta= 1.28D-09

 Alpha:                 0.19532     0.81920     2.85917     9.50073    35.69989   197.79328
 Coeff:                 0.27070     0.30552     0.18297     0.10986     0.06810     0.04224


 All pairs explicitly correlated. Number of r12-pairs:           10

 Excluding core orbitals from MO domains

 AO(A)-basis ORBITAL           loaded. Number of functions:     436
 RI(R)-basis RI                loaded. Number of functions:     730
 DF-basis JKFIT                loaded. Number of functions:    1104

 Screening thresholds:   THRAO=  1.00D-10  THRMO=  1.00D-09  THRPROD=  1.00D-09
                         THRSW=  1.00D-05  THROV=  1.00D-12  THRAOF12= 1.00D-10

 CPU time for Fock operators                      9.95 sec

 Construction of ABS:
 Smallest eigenvalue of S          2.27E-04  (threshold= 1.00E-08)
 Ratio eigmin/eigmax               3.94E-05  (threshold= 1.00E-09)
 Smallest eigenvalue of S kept     2.27E-04  (threshold= 2.27E-04, 0 functions deleted, 730 kept)

 Construction of CABS:
 Smallest eigenvalue of S          1.52E-08  (threshold= 1.00E-08)
 Ratio eigmin/eigmax               1.52E-08  (threshold= 1.00E-09)
 Smallest eigenvalue of S kept     1.52E-08  (threshold= 1.52E-08, 0 functions deleted, 730 kept)

 CPU time for CABS singles                        2.25 sec

 CABS-singles contribution of  -0.00029276 patched into reference energy.
 New reference energy         -76.06403692

 AO(A)-basis ORBITAL           loaded. Number of functions:     436
 RI(R)-basis RI                loaded. Number of functions:     730
 DF-basis MP2FIT               loaded. Number of functions:    1246

 Screening thresholds:   THRAO=  1.00D-10  THRMO=  1.00D-09  THRPROD=  1.00D-09
                         THRSW=  1.00D-05  THROV=  1.00D-12  THRAOF12= 1.00D-10

 CPU time for 3-index integral evaluation        20.26 sec
 CPU time for first  half transformation          3.97 sec ( 1646.7 MFLOP/sec)
 CPU time for second half transformation          0.04 sec (  964.4 MFLOP/sec)
 CPU time for sorting                             0.06 sec
 CPU time for fitting                             1.25 sec ( 5817.6 MFLOP/sec)
 CPU time for tilde quantities                    1.43 sec ( 5074.4 MFLOP/sec)
 CPU time for assembly                            5.13 sec ( 4090.3 MFLOP/sec)
 CPU time for tranop_f12                          4.68 sec ( 3829.0 MFLOP/sec)
 CPU time for f12 integrals (total)              44.55 sec, Elapsed time:     45.56 sec
 F12-matrices built in  4 passes.
 F12-matrices built in  4 passes.
 F12-matrices built in  4 passes.
 F12-matrices built in  4 passes.
 FC-matrix built in  4 passes.
 CPU time for f12 matrices (total)                1.74 sec, Elapsed time:      1.77 sec

 Diagonal F12 approximation with fixed coefficients:  TSING= 0.500,  TTRIP= 0.250 (scaled by -1/beta)

 DF-MP2-F12 energy corrections:
 ==============================
 Approx.                                    Singlet             Triplet             Total
 DF-MP2-F12/3*C(DX,FIX)                -0.013715565599     -0.001530144459     -0.015245710058
 DF-MP2-F12/3*C(FIX)                   -0.012094225794     -0.001076073314     -0.013170299108
 DF-MP2-F12/3C(FIX)                    -0.012079894232     -0.001113239872     -0.013193134105

 DF-MP2-F12 correlation energies:
 ================================
 Approx.                                    Singlet             Triplet             Ecorr            Total Energy
 DF-MP2                                -0.186134677063     -0.101348547328     -0.287483224391    -76.351520144935
 DF-MP2-F12/3*C(DX,FIX)                -0.199850242662     -0.102878691787     -0.302728934448    -76.366765854992
 DF-MP2-F12/3*C(FIX)                   -0.198228902857     -0.102424620642     -0.300653523499    -76.364690444043
 DF-MP2-F12/3C(FIX)                    -0.198214571295     -0.102461787200     -0.300676358495    -76.364713279039

 SCS-DF-MP2 energies (F_SING= 1.20000  F_TRIP= 0.62222  F_PARALLEL= 0.33333):
 ============================================================================
 SCS-DF-MP2                            -0.286422930813    -76.350459851357
 SCS-DF-MP2-F12/3*C(DX,FIX)            -0.303833699417    -76.367870619961
 SCS-DF-MP2-F12/3*C(FIX)               -0.301605558495    -76.365642479039
 SCS-DF-MP2-F12/3C(FIX)                -0.301611486479    -76.365648407023
 Symmetry transformation completed.

 Number of N-1 electron functions:               4
 Number of N-2 electron functions:              10
 Number of singly external CSFs:              1724
 Number of doubly external CSFs:           1486950
 Total number of CSFs:                     1488675

 Pair and operator lists are different

 Length of J-op  integral file:             203.65 MB
 Length of K-op  integral file:             338.08 MB
 Length of 3-ext integral record:             0.00 MB

 Memory could be reduced to 526.20 Mwords without degradation in triples

 Integral transformation finished. Total CPU: 167.90 sec, npass=  1  Memory used: 214.75 MW

 Reference energy:                    -76.06403692

 Adding F12 terms to K(Cij), methodcc=6,  factor= 1.0

 ITER.      SQ.NORM     CORR.ENERGY   TOTAL ENERGY   ENERGY CHANGE        DEN1      VAR(S)    VAR(P)  DIIS     TIME  TIME/IT
   1      1.06346486    -0.28692366   -76.35096058     0.00056359     0.00671566  0.78D-03  0.10D-02  1  1   281.37    50.63
   2      1.06698622    -0.28672544   -76.35076236     0.00019822    -0.00487044  0.13D-04  0.11D-03  2  2   331.08    51.00
   3      1.06820795    -0.28682141   -76.35085833    -0.00009597    -0.00081658  0.97D-05  0.75D-05  3  3   381.40    51.31
   4      1.06875760    -0.28683625   -76.35087317    -0.00001484    -0.00033790  0.53D-06  0.72D-06  4  4   431.55    51.45
   5      1.06886223    -0.28683463   -76.35087155     0.00000162    -0.00002940  0.17D-06  0.56D-07  5  5   481.63    51.47
   6      1.06889500    -0.28683251   -76.35086943     0.00000212    -0.00000402  0.20D-07  0.48D-08  6  6   531.81    51.50
   7      1.06890428    -0.28683191   -76.35086884     0.00000060    -0.00000188  0.15D-08  0.76D-09  6  1   581.64    51.49
   8      1.06890568    -0.28683189   -76.35086881     0.00000002     0.00000019  0.32D-09  0.98D-10  6  3   631.68    51.47
   9      1.06890671    -0.28683184   -76.35086876     0.00000005    -0.00000026  0.23D-10  0.11D-10  6  2   681.53    51.46
  10      1.06890690    -0.28683183   -76.35086875     0.00000001     0.00000000  0.21D-11  0.12D-11  6  4   731.40    51.45
  11      1.06890689    -0.28683183   -76.35086875    -0.00000000     0.00000003  0.50D-12  0.18D-12  6  5   781.37    51.44
  12      1.06890689    -0.28683183   -76.35086875    -0.00000000     0.00000001  0.87D-13  0.26D-13  6  6   831.33    51.44
  13      1.06890688    -0.28683183   -76.35086875    -0.00000000     0.00000000  0.15D-13  0.45D-14  6  1   880.80    51.43
  14      1.06890688    -0.28683183   -76.35086875    -0.00000000     0.00000000  0.21D-14  0.82D-15  6  3   930.48    51.40
  15      1.06890688    -0.28683183   -76.35086875    -0.00000000    -0.00000000  0.19D-15  0.11D-15  6  2   980.08    51.38
  16      1.06890688    -0.28683183   -76.35086875     0.00000000    -0.00000000  0.39D-16  0.18D-16  6  4  1028.99    51.33

 Norm of t1 vector:      0.03671259      S-energy:    -0.00000000      T1 diagnostic:  0.00917815
                                                                       D1 diagnostic:  0.01862600

 Adding energy correction from Wij-K(Fij), methodcc=6  factor= 1.0

  CCSD correlation energy              -0.286831828995
  MP2-F12 correction (uncoupled)       -0.012755187739
  C*T doubles correction               -0.000418680982
  f12b correction                       0.002712194060


 Total CPU time for triples:    434.15 sec

  Ecorr(MP2)                           -0.287487245370
  Ecorr(MP2-F12)                       -0.300680379474
  Scale factor for triples energy       1.045891198017


 RESULTS
 =======

  Reference energy                    -76.063744158169
  F12 singles correction               -0.000292762375

 F12 singles corrections added to reference energy

  New reference energy                -76.064036920544

  F12a singlet correction              -0.012051453227
  F12a triplet correction              -0.001122415494
  F12a total correction                -0.013173868722

 F12a corrections for ansatz F12/3C(FIX) added to CCSD energy

  CCSD-F12a singlet pair energy        -0.209267823802
  CCSD-F12a triplet pair energy        -0.090737873867
  CCSD-F12a correlation energy         -0.300005697717

  Triples (T) contribution (scaled)    -0.009921237585
  Total correlation energy             -0.309926935302

  CCSD-F12a total energy              -76.364042618261
  CCSD[T]-F12a energy                 -76.374289690814
  CCSD-T-F12a energy                  -76.373822489384
 !CCSD(T)-F12a total energy           -76.373963855846

 F12b corrections for ansatz F12/3C(FIX) added to CCSD(T)-F12a energy

  CCSD-F12b singlet pair energy        -0.206702337124
  CCSD-F12b triplet pair energy        -0.090591166485
  CCSD-F12b correlation energy         -0.297293503657

  Triples (T) contribution (scaled)    -0.009921237585
  Total correlation energy             -0.307214741242

  CCSD-F12b total energy              -76.361330424201
  CCSD[T]-F12b energy                 -76.371577496755
  CCSD-T-F12b energy                  -76.371110295324
 !CCSD(T)-F12b total energy           -76.371251661786

 Timing summary (sec):

 STEP                 CPU(USER)    SYS     CPU(TOT)    WALL
 Transformation        168.28      3.99    172.27    172.61
 CCSD iterations       797.11     23.19    820.30    821.42
 Triples               434.15      0.90    435.05    435.63
 MP2-F12                63.70      1.24     64.94     65.23
 F12b energy            43.84      1.14     44.98     45.04

 Program statistics:

 Available memory in ccsd:              1999999871
 Min. memory needed in ccsd:               6763924
 Max. memory used in ccsd:                 7862874
 Max. memory used in cckext:               5171974 (17 integral passes)



 **********************************************************************************************************************************
 DATASETS  * FILE   NREC   LENGTH (MB)   RECORD NAMES
              1      19     1346.98       500      610      700      900      950      970     1000      129      960     1100   
                                          VAR    BASINP    GEOM    SYMINP    ZMAT    AOBASIS   BASIS     P2S    ABASIS      S 
                                         1400     1410     1200     1210     1080     1600     1650     1700     1380   
                                           T        V       H0       H01     AOSYM     SMH    MOLCAS    OPER     JKOP   

              2       8       17.39       700     1000      520     2100     7360     7350      200     2101   
                                         GEOM     BASIS   MCVARS     RHF    F12ABS    EF12    OPTIONS    RHF  

 PROGRAMS   *        TOTAL   CCSD(T)    HF-SCF       INT   CCSD(T)    HF-SCF       INT
 CPU TIMES  *      8471.66   1507.34    229.70      0.42   6070.63    217.65    445.63
 REAL TIME  *      8795.71 SEC
 DISK USED  *         3.24 GB (local),       82.15 GB (total)
 SF USED    *         5.12 GB
 GA USED    *         4.87 MB       (max)       0.00 MB       (current)
 **********************************************************************************************************************************

 Running procedure: SET_MONOMER2

 Dummy atoms: O16  H31  H32


 Recomputing one-electron integrals since nuclear charges changed


 PROGRAM * SEWARD (Integral evaluation for generally contracted gaussian basis sets)     Author: Roland Lindh, 1990

 Geometry written to block  1 of record 700


 Point group  C1  



 ATOMIC COORDINATES

 NR  ATOM    CHARGE       X              Y              Z

   1  O16     0.00  -11.397505175    1.072419576   -2.197184565
   2  H31     0.00  -11.790001291    2.731599113   -1.480411446
   3  H32     0.00  -11.462511754   -0.108659252   -0.778945109
   4  C1      6.00   -6.193010455    2.801518980    2.403542658
   5  H41     1.00   -4.656285171    1.699997622    3.119937832
   6  H42     1.00   -5.973046335    4.726205038    2.982932688
   7  H43     1.00   -7.940251230    2.077186956    3.118237078
   8  H44     1.00   -6.176569838    2.685300823    0.384937212

 Bond lengths in Bohr (Angstrom)

 1-2  1.849511731  1-3  1.846774542  4-5  2.021904040  4-6  2.022002335  4-7  2.021953343
     ( 0.978719459)     ( 0.977271001)     ( 1.069945541)     ( 1.069997556)     ( 1.069971630)

 4-8  2.022015060
     ( 1.070004290)

 Bond angles

  2-1-3  105.58293551   5-4-6  109.53398059   5-4-7  109.65604535   5-4-8  108.43490854

  6-4-7  109.49436728   6-4-8  109.86987750   7-4-8  109.83468330

 NUCLEAR CHARGE:                   10
 NUMBER OF PRIMITIVE AOS:         578
 NUMBER OF SYMMETRY AOS:          474
 NUMBER OF CONTRACTIONS:          436   (  436A   )
 NUMBER OF CORE ORBITALS:           1   (    1A   )
 NUMBER OF VALENCE ORBITALS:        8   (    8A   )

 MOLECULE CHANGED: INITIALIZING OCCUPATION AND DUMP RECORDS


 NUCLEAR REPULSION ENERGY   13.68681606

 Basis set:  JKFIT                   
 Basis size:  1104
 Attributes:
 Sphericals:   T
 Basis set:  MP2FIT                  
 Basis size:  1246
 Attributes:
 Sphericals:   T
 Basis set:  RI                      
 Basis size:   730
 Attributes:
 Sphericals:   T
 Basis set:  TDDFT                   
 Basis size:  1246
 Attributes:
 Sphericals:   T

 Eigenvalues of metric

         1 0.158E-04 0.321E-04 0.347E-04 0.351E-04 0.637E-04 0.951E-04 0.102E-03 0.112E-03


 Contracted 2-electron integrals neglected if value below      1.0D-14

 OPERATOR DM      FOR CENTER  0  COORDINATES:    0.000000    0.000000    0.000000


 **********************************************************************************************************************************
 DATASETS  * FILE   NREC   LENGTH (MB)   RECORD NAMES
              1      18       37.12       500      610      700      900      950      970     1000      129      960     1100   
                                          VAR    BASINP    GEOM    SYMINP    ZMAT    AOBASIS   BASIS     P2S    ABASIS      S 
                                         1400     1410     1200     1210     1080     1600     1650     1700   
                                           T        V       H0       H01     AOSYM     SMH    MOLCAS    OPER   

              2       8       17.39       700     1000      520     2100     7360     7350      200     2101   
                                         GEOM     BASIS   MCVARS     RHF    F12ABS    EF12    OPTIONS    RHF  

 PROGRAMS   *        TOTAL       INT   CCSD(T)    HF-SCF       INT   CCSD(T)    HF-SCF       INT
 CPU TIMES  *      8472.07      0.40   1507.34    229.70      0.42   6070.63    217.65    445.63
 REAL TIME  *      8796.53 SEC
 DISK USED  *         3.24 GB (local),       82.15 GB (total)
 SF USED    *         5.12 GB
 GA USED    *         4.87 MB       (max)       0.00 MB       (current)
 **********************************************************************************************************************************


 PROGRAM * RHF-SCF (CLOSED SHELL)       Authors: W. Meyer, H.-J. Werner


 NUMBER OF ELECTRONS:       5+    5-    SPACE SYMMETRY=1    SPIN SYMMETRY: Singlet 
 CONVERGENCE THRESHOLDS:    1.00E-08 (Density)    1.00E-11 (Energy)
 MAX. NUMBER OF ITERATIONS:       60
 INTERPOLATION TYPE:            DIIS
 INTERPOLATION STEPS:              2 (START)      1 (STEP)
 LEVEL SHIFTS:                  0.00 (CLOSED)  0.00 (OPEN) 



 Orbital guess generated from atomic densities. Full valence occupancy:    9

 Molecular orbital dump at record        2102.2

 Initial occupancy:   5

 ITERATION    DDIFF          GRAD             ENERGY        2-EL.EN.            DIPOLE MOMENTS         DIIS   ORB.
    1      0.000D+00      0.000D+00       -40.19609562     53.506288    0.00412   -0.00275   -0.00129    0    start
    2      0.000D+00      0.257D-02       -40.21334968     52.217621    0.00130   -0.00086   -0.00037    1    diag
    3      0.158D-02      0.998D-03       -40.21562559     52.672081    0.00183   -0.00122   -0.00054    2    diag
    4      0.443D-03      0.249D-03       -40.21594505     52.617268    0.00163   -0.00109   -0.00047    3    diag
    5      0.166D-03      0.322D-04       -40.21595054     52.619416    0.00160   -0.00107   -0.00046    4    diag
    6      0.411D-04      0.264D-05       -40.21595058     52.619552    0.00160   -0.00107   -0.00046    5    diag
    7      0.549D-05      0.212D-06       -40.21595058     52.619513    0.00160   -0.00107   -0.00046    6    diag
    8      0.215D-06      0.170D-07       -40.21595058     52.619514    0.00160   -0.00107   -0.00046    7    diag
    9      0.823D-07      0.218D-08       -40.21595058     52.619514    0.00160   -0.00107   -0.00046    8    diag
   10      0.833D-08      0.595D-09       -40.21595058     52.619514    0.00160   -0.00107   -0.00046    0    orth

 Final occupancy:   5

 !RHF STATE  1.1 Energy               -40.215950580553
 Nuclear energy                        13.68681606
 One-electron energy                  -80.21252377
 Two-electron energy                   26.30975713
 Virial quotient                       -0.99838095
 !RHF STATE  1.1 Dipole moment          0.00160108    -0.00106889    -0.00046274
 Dipole moment /Debye                   0.00406927    -0.00271667    -0.00117610

 Orbital energies:

         1.1          2.1          3.1          4.1          5.1          6.1          7.1
    -11.196224    -0.950661    -0.551889    -0.549955    -0.547776     0.025048     0.038247


 HOMO      5.1    -0.547776 =     -14.9057eV
 LUMO      6.1     0.025048 =       0.6816eV
 LUMO-HOMO         0.572824 =      15.5873eV


 **********************************************************************************************************************************
 DATASETS  * FILE   NREC   LENGTH (MB)   RECORD NAMES
              1      18       37.12       500      610      700      900      950      970     1000      129      960     1100   
                                          VAR    BASINP    GEOM    SYMINP    ZMAT    AOBASIS   BASIS     P2S    ABASIS      S 
                                         1400     1410     1200     1210     1080     1600     1650     1700   
                                           T        V       H0       H01     AOSYM     SMH    MOLCAS    OPER   

              2       9       27.51       700     1000      520     2100     7360     7350      200     2101     2102   
                                         GEOM     BASIS   MCVARS     RHF    F12ABS    EF12    OPTIONS    RHF      RHF  

 PROGRAMS   *        TOTAL    HF-SCF       INT   CCSD(T)    HF-SCF       INT   CCSD(T)    HF-SCF       INT
 CPU TIMES  *      8662.14    190.06      0.40   1507.34    229.70      0.42   6070.63    217.65    445.63
 REAL TIME  *      9003.03 SEC
 DISK USED  *         3.24 GB (local),       82.15 GB (total)
 SF USED    *         5.12 GB
 GA USED    *         4.87 MB       (max)       0.00 MB       (current)
 **********************************************************************************************************************************

 Basis set:  JKFIT                   
 Basis size:  1104
 Attributes:
 Sphericals:   T
 Basis set:  MP2FIT                  
 Basis size:  1246
 Attributes:
 Sphericals:   T
 Basis set:  RI                      
 Basis size:   730
 Attributes:
 Sphericals:   T
 Basis set:  TDDFT                   
 Basis size:  1246
 Attributes:
 Sphericals:   T

 PROGRAM * CCSD (Closed-shell coupled cluster)     Authors: C. Hampel, H.-J. Werner, 1991, M. Deegan, P.J. Knowles, 1992

                                  CCSD-F12 implementation by  H.-J. Werner, 2007

                   Density fitting integral evaluation by F.R. Manby, 2003,2007, G. Knizia, 2010



 Convergence thresholds:  THRVAR = 1.00D-08  THRDEN = 1.00D-10

 CCSD(T)     terms to be evaluated (factor= 1.000)


 Number of core orbitals:           1 (   1 )
 Number of closed-shell orbitals:   4 (   4 )
 Number of external orbitals:     431 ( 431 )

 Molecular orbitals read from record     2102.2  Type=RHF/CANONICAL (state 1.1)

 MP2-F12 correlation treatment (H.-J. Werner, 2006)
 ==================================================

 Using MP2-F12 with ansatz 3C(FIX)

 Using projected zeroth-order Hamiltonian (+Z)

 FOCKRIB=T FOCKRIC=T FOCKRIP=T CABSP=T CABSA=T CABSK=T CABSF=T GBC=F EBC=F DMAT=T NOFIK=T NOPAO=1 SOLVE=-1  USEPAO=0
 EXCH_A= T EXCH_B= F EXCH_C= F EXCH_P= F

 Geminal basis:    OPTFULL  GEM_TYPE=SLATER  BETA=1.0  NGEM=6

 Optimizing Gaussian exponents for each gem_beta

 Geminal optimization for beta= 1.0000
 Weight function:   m=0, omega= 1.4646

 Augmented Hessian optimization of geminal fit. Trust ratio= 0.40000
 Convergence reached after   2 iterations. Final gradient= 7.85D-16, Step= 4.26D-06, Delta= 1.28D-09

 Alpha:                 0.19532     0.81920     2.85917     9.50073    35.69989   197.79328
 Coeff:                 0.27070     0.30552     0.18297     0.10986     0.06810     0.04224


 All pairs explicitly correlated. Number of r12-pairs:           10

 Excluding core orbitals from MO domains

 AO(A)-basis ORBITAL           loaded. Number of functions:     436
 RI(R)-basis RI                loaded. Number of functions:     730
 DF-basis JKFIT                loaded. Number of functions:    1104

 Screening thresholds:   THRAO=  1.00D-10  THRMO=  1.00D-09  THRPROD=  1.00D-09
                         THRSW=  1.00D-05  THROV=  1.00D-12  THRAOF12= 1.00D-10

 CPU time for Fock operators                     10.60 sec

 Construction of ABS:
 Smallest eigenvalue of S          2.27E-04  (threshold= 1.00E-08)
 Ratio eigmin/eigmax               3.94E-05  (threshold= 1.00E-09)
 Smallest eigenvalue of S kept     2.27E-04  (threshold= 2.27E-04, 0 functions deleted, 730 kept)

 Construction of CABS:
 Smallest eigenvalue of S          1.52E-08  (threshold= 1.00E-08)
 Ratio eigmin/eigmax               1.52E-08  (threshold= 1.00E-09)
 Smallest eigenvalue of S kept     1.52E-08  (threshold= 1.52E-08, 0 functions deleted, 730 kept)

 CPU time for CABS singles                        2.30 sec

 CABS-singles contribution of  -0.00024514 patched into reference energy.
 New reference energy         -40.21619572

 AO(A)-basis ORBITAL           loaded. Number of functions:     436
 RI(R)-basis RI                loaded. Number of functions:     730
 DF-basis MP2FIT               loaded. Number of functions:    1246

 Screening thresholds:   THRAO=  1.00D-10  THRMO=  1.00D-09  THRPROD=  1.00D-09
                         THRSW=  1.00D-05  THROV=  1.00D-12  THRAOF12= 1.00D-10

 CPU time for 3-index integral evaluation        20.21 sec
 CPU time for first  half transformation          3.59 sec ( 1816.0 MFLOP/sec)
 CPU time for second half transformation          0.02 sec ( 1903.6 MFLOP/sec)
 CPU time for sorting                             0.08 sec
 CPU time for fitting                             1.13 sec ( 5264.8 MFLOP/sec)
 CPU time for tilde quantities                    1.68 sec ( 1630.1 MFLOP/sec)
 CPU time for assembly                            5.08 sec ( 4223.8 MFLOP/sec)
 CPU time for tranop_f12                          4.73 sec ( 4149.5 MFLOP/sec)
 CPU time for f12 integrals (total)              43.76 sec, Elapsed time:     44.67 sec
 F12-matrices built in  4 passes.
 F12-matrices built in  4 passes.
 F12-matrices built in  4 passes.
 F12-matrices built in  4 passes.
 FC-matrix built in  4 passes.
 CPU time for f12 matrices (total)                1.70 sec, Elapsed time:      1.77 sec

 Diagonal F12 approximation with fixed coefficients:  TSING= 0.500,  TTRIP= 0.250 (scaled by -1/beta)

 DF-MP2-F12 energy corrections:
 ==============================
 Approx.                                    Singlet             Triplet             Total
 DF-MP2-F12/3*C(DX,FIX)                -0.007492244137     -0.000574543106     -0.008066787243
 DF-MP2-F12/3*C(FIX)                   -0.007045262813     -0.000473181835     -0.007518444649
 DF-MP2-F12/3C(FIX)                    -0.007074043547     -0.000486685607     -0.007560729153

 DF-MP2-F12 correlation energies:
 ================================
 Approx.                                    Singlet             Triplet             Ecorr            Total Energy
 DF-MP2                                -0.154424567339     -0.056464429857     -0.210888997196    -40.427084717684
 DF-MP2-F12/3*C(DX,FIX)                -0.161916811476     -0.057038972964     -0.218955784439    -40.435151504927
 DF-MP2-F12/3*C(FIX)                   -0.161469830152     -0.056937611693     -0.218407441845    -40.434603162333
 DF-MP2-F12/3C(FIX)                    -0.161498610885     -0.056951115464     -0.218449726349    -40.434645446837

 SCS-DF-MP2 energies (F_SING= 1.20000  F_TRIP= 0.62222  F_PARALLEL= 0.33333):
 ============================================================================
 SCS-DF-MP2                            -0.220442903829    -40.436638624317
 SCS-DF-MP2-F12/3*C(DX,FIX)            -0.229791090282    -40.445986810769
 SCS-DF-MP2-F12/3*C(FIX)               -0.229191643458    -40.445387363946
 SCS-DF-MP2-F12/3C(FIX)                -0.229234582684    -40.445430303172
 Symmetry transformation completed.

 Number of N-1 electron functions:               4
 Number of N-2 electron functions:              10
 Number of singly external CSFs:              1724
 Number of doubly external CSFs:           1486950
 Total number of CSFs:                     1488675

 Pair and operator lists are different

 Length of J-op  integral file:             203.65 MB
 Length of K-op  integral file:             338.08 MB
 Length of 3-ext integral record:             0.00 MB

 Memory could be reduced to 526.20 Mwords without degradation in triples

 Integral transformation finished. Total CPU: 167.29 sec, npass=  1  Memory used: 214.75 MW

 Reference energy:                    -40.21619572

 Adding F12 terms to K(Cij), methodcc=6,  factor= 1.0

 ITER.      SQ.NORM     CORR.ENERGY   TOTAL ENERGY   ENERGY CHANGE        DEN1      VAR(S)    VAR(P)  DIIS     TIME  TIME/IT
   1      1.07024095    -0.22512237   -40.44131809    -0.01422801    -0.00847349  0.63D-03  0.94D-03  1  1   280.43    50.22
   2      1.07517155    -0.22597251   -40.44216823    -0.00085014    -0.00530358  0.15D-04  0.10D-03  2  2   330.00    50.61
   3      1.07679455    -0.22606031   -40.44225603    -0.00008780    -0.00117773  0.22D-05  0.59D-05  3  3   379.86    50.88
   4      1.07717756    -0.22606761   -40.44226333    -0.00000729    -0.00020556  0.14D-06  0.33D-06  4  4   429.65    50.97
   5      1.07722963    -0.22606924   -40.44226496    -0.00000163    -0.00000895  0.11D-07  0.21D-07  5  5   479.36    50.97
   6      1.07723822    -0.22606795   -40.44226367     0.00000129    -0.00000326  0.77D-09  0.16D-08  6  6   528.89    50.98
   7      1.07723957    -0.22606762   -40.44226334     0.00000033    -0.00000085  0.51D-10  0.12D-09  6  1   578.38    50.98
   8      1.07723955    -0.22606769   -40.44226341    -0.00000007     0.00000020  0.53D-11  0.72D-11  6  3   627.94    50.98
   9      1.07723968    -0.22606767   -40.44226339     0.00000002    -0.00000009  0.39D-12  0.58D-12  6  2   677.47    50.99
  10      1.07723969    -0.22606767   -40.44226339     0.00000000     0.00000001  0.51D-13  0.58D-13  6  4   726.61    50.99
  11      1.07723969    -0.22606767   -40.44226339     0.00000000     0.00000000  0.47D-14  0.58D-14  6  5   776.14    50.99
  12      1.07723969    -0.22606767   -40.44226339     0.00000000     0.00000000  0.11D-15  0.63D-15  6  6   825.40    50.98
  13      1.07723969    -0.22606767   -40.44226339    -0.00000000     0.00000000  0.74D-17  0.66D-16  6  1   874.48    50.97
  14      1.07723968    -0.22606767   -40.44226339    -0.00000000     0.00000000  0.12D-17  0.83D-17  6  3   922.77    50.87

 Norm of t1 vector:      0.03291642      S-energy:    -0.00000000      T1 diagnostic:  0.00822911
                                                                       D1 diagnostic:  0.01319207

 Adding energy correction from Wij-K(Fij), methodcc=6  factor= 1.0

  CCSD correlation energy              -0.226067665291
  MP2-F12 correction (uncoupled)       -0.007437435314
  C*T doubles correction               -0.000126440999
  f12b correction                       0.001936442748

 Total CPU time for triples:    424.40 sec

  Ecorr(MP2)                           -0.210894360936
  Ecorr(MP2-F12)                       -0.218455090090
  Scale factor for triples energy       1.035850788612


 RESULTS
 =======

  Reference energy                    -40.215950580553
  F12 singles correction               -0.000245139935

 F12 singles corrections added to reference energy

  New reference energy                -40.216195720488

  F12a singlet correction              -0.007074769251
  F12a triplet correction              -0.000489107063
  F12a total correction                -0.007563876314

 F12a corrections for ansatz F12/3C(FIX) added to CCSD energy

  CCSD-F12a singlet pair energy        -0.178450422254
  CCSD-F12a triplet pair energy        -0.055181119347
  CCSD-F12a correlation energy         -0.233631541605

  Triples (T) contribution (scaled)    -0.007053244965
  Total correlation energy             -0.240684786570

  CCSD-F12a total energy              -40.449827262093
  CCSD[T]-F12a energy                 -40.457117032504
  CCSD-T-F12a energy                  -40.456810657297
 !CCSD(T)-F12a total energy           -40.456880507058

 F12b corrections for ansatz F12/3C(FIX) added to CCSD(T)-F12a energy

  CCSD-F12b singlet pair energy        -0.176581525215
  CCSD-F12b triplet pair energy        -0.055113573639
  CCSD-F12b correlation energy         -0.231695098857

  Triples (T) contribution (scaled)    -0.007053244965
  Total correlation energy             -0.238748343822

  CCSD-F12b total energy              -40.447890819345
  CCSD[T]-F12b energy                 -40.455180589756
  CCSD-T-F12b energy                  -40.454874214549
 !CCSD(T)-F12b total energy           -40.454944064310

 Timing summary (sec):

 STEP                 CPU(USER)    SYS     CPU(TOT)    WALL
 Transformation        167.68      3.86    171.54    171.88
 CCSD iterations       691.48     19.91    711.39    712.37
 Triples               424.40      0.95    425.35    425.87
 MP2-F12                63.70      1.24     64.94     65.02
 F12b energy            43.15      1.17     44.32     44.37

 Program statistics:

 Available memory in ccsd:              1999999866
 Min. memory needed in ccsd:               6763924
 Max. memory used in ccsd:                 7862874
 Max. memory used in cckext:               5171974 (15 integral passes)



 **********************************************************************************************************************************
 DATASETS  * FILE   NREC   LENGTH (MB)   RECORD NAMES
              1      19     1346.98       500      610      700      900      950      970     1000      129      960     1100   
                                          VAR    BASINP    GEOM    SYMINP    ZMAT    AOBASIS   BASIS     P2S    ABASIS      S 
                                         1400     1410     1200     1210     1080     1600     1650     1700     1380   
                                           T        V       H0       H01     AOSYM     SMH    MOLCAS    OPER     JKOP   

              2       9       27.51       700     1000      520     2100     7360     7350      200     2101     2102   
                                         GEOM     BASIS   MCVARS     RHF    F12ABS    EF12    OPTIONS    RHF      RHF  

 PROGRAMS   *        TOTAL   CCSD(T)    HF-SCF       INT   CCSD(T)    HF-SCF       INT   CCSD(T)    HF-SCF       INT
 CPU TIMES  *     10052.80   1390.66    190.06      0.40   1507.34    229.70      0.42   6070.63    217.65    445.63
 REAL TIME  *     10423.28 SEC
 DISK USED  *         3.24 GB (local),       82.15 GB (total)
 SF USED    *         5.12 GB
 GA USED    *         4.87 MB       (max)       0.00 MB       (current)
 **********************************************************************************************************************************
 Molecular orbitals read from record     2102.2  Type=RHF/CANONICAL (state 1.1)
 Occupation numbers read from record     2102.2  Type=RHF/RHF (state 1.1)
 Orbital energies read from record       2102.2  Type=RHF/CANONICAL (state 1.1)
 Redundancy group numbers read from rec  2102.2  Type=RHF/RHF (state 1.1)

 CCSD(T)-F12/aug-cc-pVQZ energy=    -40.454944064310

     CCSD(T)-F12          HF-SCF     CCSD(T)-F12          HF-SCF     CCSD(T)-F12          HF-SCF
    -40.45494406    -40.21595058    -76.37125166    -76.06374416   -116.82680745   -116.27937775
 **********************************************************************************************************************************
 Molpro calculation terminated
