
 Primary working directories    : /scratch/klimes/383251/molpro.IAH4Xd3MRh
 Secondary working directories  : /scratch/klimes/383251/molpro.IAH4Xd3MRh
 Wavefunction directory         : /scratch/klimes/383251/
 Main file repository           : /scratch/klimes/383251/molpro.IAH4Xd3MRh/

 id        : karlovklimes

 Nodes                      nprocs
 nc-07.cc.karlov.mff.cuni.cz    4

 Using customized tuning parameters: mindgm=1; mindgv=20; mindgc=4; mindgr=1; noblas=0; minvec=7
 default implementation of scratch files=sf  


 Variables initialized (930), CPU time= 0.01 sec
                                                                                 !gdirect
 memory,2000,m
 gthresh,orbital=1d-10,energy=1d-10,grid=1d-8
 
 symmetry,nosym
 angstrom
 geometry={
 O17        -4.414800000000      4.436400000000      3.575800000000
 H33        -3.889000000000      4.780900000000      2.793400000000
 H34        -4.626600000000      5.219700000000      4.099200000000
 C1        -3.277200000000      1.482500000000      1.271900000000
 H41        -2.464000000000      0.899600000000      1.651000000000
 H42        -3.160800000000      2.501000000000      1.578500000000
 H43        -4.201800000000      1.099200000000      1.650100000000
 H44        -3.268500000000      1.421000000000      0.203700000000
 }
 
 nkerna=1
 nkernb=1
 
 gf=0
 sing=1
 thrdum=1d-4
 gridthr=1d-8
 
 basis={
 set,orbital
 default,avqz
 set,jkfit
 default,av5z/jkfit
 set,mp2fit
 default,av5z/mp2fit
 set,ri
 default,av5z/optri
 set,tddft
 default,av5z/mp2fit
 }
 
 proc set_monomer1
 dummy,4,5,6,7,8
 endproc
 
 proc set_monomer2
 dummy,1,2,3
 endproc
 
                                                                                 !12 energy
 {hf,accu=1.d-16}
 {ccsd(t)-f12,df_basis=mp2fit,df_basis_exch=jkfit,ri_basis=ri,scale_trip=1,THRAOF12=1d-10}
 
 set_monomer1
 {hf,accu=1.d-16}
 {ccsd(t)-f12,df_basis=mp2fit,df_basis_exch=jkfit,ri_basis=ri,scale_trip=1,THRAOF12=1d-10}
 
 set_monomer2
 {hf,accu=1.d-16}
 {ccsd(t)-f12,df_basis=mp2fit,df_basis_exch=jkfit,ri_basis=ri,scale_trip=1,THRAOF12=1d-10}
 
 Commands  initialized (760), CPU time= 0.02 sec, 617 directives.
 Default parameters read. Elapsed time= 0.17 sec

 Checking input...
 Passed
1


                                         ***  PROGRAM SYSTEM MOLPRO  ***
                                       Copyright, TTI GmbH Stuttgart, 2015
                                    Version 2019.1 linked Jan 14 2019 13:09:19


 **********************************************************************************************************************************
 LABEL *                                                                                 
  64 bit mpp version                                                                     DATE: 11-Mar-20          TIME: 18:08:25  
 **********************************************************************************************************************************

 SHA1:             d688ac825633d238f2093ded1675ba87ccd55965
 **********************************************************************************************************************************

 THRESHOLDS:

 ZERO    =  1.00D-12  ONEINT  =  1.00D-12  TWOINT  =  1.00D-11  PREFAC  =  1.00D-14  XXXXXX  =  1.00D-09  EORDER  =  1.00D-04
 ENERGY  =  1.00D-10  ETEST   =  0.00D+00  EDENS   =  0.00D+00  THRDEDEF=  1.00D-06  GRADIENT=  1.00D-02  STEP    =  1.00D-03
 ORBITAL =  1.00D-10  CIVEC   =  1.00D-05  COEFF   =  1.00D-04  PRINTCI =  5.00D-02  PUNCHCI =  9.90D+01  OPTGRAD =  3.00D-04
 OPTENERG=  1.00D-06  OPTSTEP =  3.00D-04  THRGRAD =  1.00D-10  COMPRESS=  1.00D-11  VARMIN  =  1.00D-07  VARMAX  =  1.00D-03
 THRDOUB =  0.00D+00  THRDIV  =  1.00D-05  THRRED  =  1.00D-07  THRPSP  =  1.00D+00  THRDC   =  1.00D-10  THRCS   =  1.00D-10
 THRNRM  =  1.00D-08  THREQ   =  0.00D+00  THRDE   =  1.00D+00  THRREF  =  1.00D-05  SPARFAC =  1.00D+00  THRDLP  =  1.00D-07
 THRDIA  =  1.00D-10  THRDLS  =  1.00D-07  THRGPS  =  0.00D+00  THRKEX  =  0.00D+00  THRDIS  =  2.00D-01  THRVAR  =  1.00D-10
 THRLOC  =  1.00D-06  THRGAP  =  1.00D-06  THRLOCT = -1.00D+00  THRGAPT = -1.00D+00  THRORB  =  1.00D-06  THRMLTP =  0.00D+00
 THRCPQCI=  1.00D-10  KEXTA   =  0.00D+00  THRCOARS=  0.00D+00  SYMTOL  =  1.00D-06  GRADTOL =  1.00D-06  THROVL  =  1.00D-08
 THRORTH =  1.00D-08  GRID    =  1.00D-08  GRIDMAX =  1.00D-03  DTMAX   =  0.00D+00  THROCCDE=  1.00D-01  THROCCDE=  1.00D-01
 THRPRINT=  2.50D-01


 Variable memory set to 2000000000 words,  buffer space 

 ZSYMEL=NOSYM
 ZUNIT=ANG


Geometry recognized as XYZ

 SETTING NKERNA         =         1.00000000                                  
 SETTING NKERNB         =         1.00000000                                  
 SETTING GF             =     0.00000000D+00                                  
 SETTING SING           =         1.00000000                                  
 SETTING THRDUM         =     1.00000000D-04                                  
 SETTING GRIDTHR        =     1.00000000D-08                                  
 SETTING BASIS          =    AVQZ


 Recomputing integrals since basis changed


 Using spherical harmonics

 Library entry O      S aug-cc-pVQZ          selected for orbital group  1
 Library entry O      P aug-cc-pVQZ          selected for orbital group  1
 Library entry O      D aug-cc-pVQZ          selected for orbital group  1
 Library entry O      F aug-cc-pVQZ          selected for orbital group  1
 Library entry O      G aug-cc-pVQZ          selected for orbital group  1
 Library entry H      S aug-cc-pVQZ          selected for orbital group  2
 Library entry H      P aug-cc-pVQZ          selected for orbital group  2
 Library entry H      D aug-cc-pVQZ          selected for orbital group  2
 Library entry H      F aug-cc-pVQZ          selected for orbital group  2
 Library entry C      S aug-cc-pVQZ          selected for orbital group  3
 Library entry C      P aug-cc-pVQZ          selected for orbital group  3
 Library entry C      D aug-cc-pVQZ          selected for orbital group  3
 Library entry C      F aug-cc-pVQZ          selected for orbital group  3
 Library entry C      G aug-cc-pVQZ          selected for orbital group  3


 PROGRAM * SEWARD (Integral evaluation for generally contracted gaussian basis sets)     Author: Roland Lindh, 1990

 Geometry written to block  1 of record 700


 Point group  C1  



 ATOMIC COORDINATES

 NR  ATOM    CHARGE       X              Y              Z

   1  O17     8.00   -8.342762895    8.383580979    6.757282676
   2  H33     1.00   -7.349144898    9.034591629    5.278760956
   3  H34     1.00   -8.743006888    9.863803452    7.746365330
   4  C1      6.00   -6.193010455    2.801518980    2.403542658
   5  H41     1.00   -4.656285171    1.699997622    3.119937832
   6  H42     1.00   -5.973046335    4.726205038    2.982932688
   7  H43     1.00   -7.940251230    2.077186956    3.118237078
   8  H44     1.00   -6.176569838    2.685300823    0.384937212

 Bond lengths in Bohr (Angstrom)

 1-2  1.896606987  1-3  1.824702255  4-5  2.021904040  4-6  2.022002335  4-7  2.021953343
     ( 1.003641196)     ( 0.965590850)     ( 1.069945541)     ( 1.069997556)     ( 1.069971630)

 4-8  2.022015060
     ( 1.070004290)

 Bond angles

  2-1-3  105.01239280   5-4-6  109.53398059   5-4-7  109.65604535   5-4-8  108.43490854

  6-4-7  109.49436728   6-4-8  109.86987750   7-4-8  109.83468330

 NUCLEAR CHARGE:                   20
 NUMBER OF PRIMITIVE AOS:         578
 NUMBER OF SYMMETRY AOS:          474
 NUMBER OF CONTRACTIONS:          436   (  436A   )
 NUMBER OF CORE ORBITALS:           2   (    2A   )
 NUMBER OF VALENCE ORBITALS:       14   (   14A   )


 NUCLEAR REPULSION ENERGY   35.98231600


 Basis set:  JKFIT                   
 Basis size:  1104
 Attributes:
 Sphericals:   T
 Basis set:  MP2FIT                  
 Basis size:  1246
 Attributes:
 Sphericals:   T
 Basis set:  RI                      
 Basis size:   730
 Attributes:
 Sphericals:   T
 Basis set:  TDDFT                   
 Basis size:  1246
 Attributes:
 Sphericals:   T

 **********************************************************************************************************************************


 Eigenvalues of metric

         1 0.142E-04 0.208E-04 0.324E-04 0.357E-04 0.625E-04 0.763E-04 0.872E-04 0.951E-04


 Contracted 2-electron integrals neglected if value below      1.0D-14
 AO integral compression algorithm  1   Integral accuracy      1.0D-14

     22122.070 MB (compressed) written to integral file ( 55.2%)

     Node minimum: 5097.128 MB, node maximum: 6023.545 MB


 NUMBER OF SORTED TWO-ELECTRON INTEGRALS: 1134451344.     BUFFER LENGTH:  32768
 NUMBER OF SEGMENTS:  36  SEGMENT LENGTH:   31999984      RECORD LENGTH: 524288

 Memory used in sort:      32.56 MW

 SORT1 READ  5012305700. AND WROTE   930002393. INTEGRALS IN   2676 RECORDS. CPU TIME:   274.74 SEC, REAL TIME:   318.50 SEC
 SORT2 READ  3720716566. AND WROTE  4537853011. INTEGRALS IN  83488 RECORDS. CPU TIME:    15.98 SEC, REAL TIME:   114.19 SEC

 Node minimum:  1134427528.  Node maximum:  1134498978. integrals

 OPERATOR DM      FOR CENTER  0  COORDINATES:    0.000000    0.000000    0.000000


 **********************************************************************************************************************************
 DATASETS  * FILE   NREC   LENGTH (MB)   RECORD NAMES
              1      18       37.12       500      610      700      900      950      970     1000      129      960     1100   
                                          VAR    BASINP    GEOM    SYMINP    ZMAT    AOBASIS   BASIS     P2S    ABASIS      S 
                                         1400     1410     1200     1210     1080     1600     1650     1700   
                                           T        V       H0       H01     AOSYM     SMH    MOLCAS    OPER   

 PROGRAMS   *        TOTAL       INT
 CPU TIMES  *       354.82    354.56
 REAL TIME  *       537.82 SEC
 DISK USED  *        37.64 MB (local),       66.64 GB (total)
 GA USED    *         0.00 MB       (max)       0.00 MB       (current)
 **********************************************************************************************************************************


 PROGRAM * RHF-SCF (CLOSED SHELL)       Authors: W. Meyer, H.-J. Werner


 NUMBER OF ELECTRONS:      10+   10-    SPACE SYMMETRY=1    SPIN SYMMETRY: Singlet 
 CONVERGENCE THRESHOLDS:    1.00E-08 (Density)    1.00E-11 (Energy)
 MAX. NUMBER OF ITERATIONS:       60
 INTERPOLATION TYPE:            DIIS
 INTERPOLATION STEPS:              2 (START)      1 (STEP)
 LEVEL SHIFTS:                  0.00 (CLOSED)  0.00 (OPEN) 



 Orbital guess generated from atomic densities. Full valence occupancy:   16

 Molecular orbital dump at record        2100.2

 Initial occupancy:  10

 ITERATION    DDIFF          GRAD             ENERGY        2-EL.EN.            DIPOLE MOMENTS         DIIS   ORB.
    1      0.000D+00      0.000D+00      -116.21851579    157.691789    0.31327    1.08547   -0.26156    0    start
    2      0.000D+00      0.380D-02      -116.26291469    152.635062    0.14452    0.62237   -0.09858    1    diag
    3      0.273D-02      0.225D-02      -116.27683231    154.738304    0.18672    0.74095   -0.13925    2    diag
    4      0.951D-03      0.333D-03      -116.27750164    154.624777    0.18319    0.73040   -0.13590    3    diag
    5      0.204D-03      0.982D-04      -116.27757248    154.620227    0.18255    0.73014   -0.13506    4    diag
    6      0.834D-04      0.238D-04      -116.27757643    154.625894    0.18226    0.72940   -0.13474    5    diag
    7      0.225D-04      0.480D-05      -116.27757667    154.624289    0.18224    0.72942   -0.13471    6    diag
    8      0.651D-05      0.124D-05      -116.27757669    154.624467    0.18221    0.72937   -0.13466    7    diag
    9      0.139D-05      0.291D-06      -116.27757669    154.624440    0.18220    0.72935   -0.13465    8    diag
   10      0.424D-06      0.335D-07      -116.27757669    154.624440    0.18220    0.72935   -0.13465    9    orth
   11      0.435D-07      0.782D-08      -116.27757669    154.624442    0.18220    0.72935   -0.13465    9    diag
   12      0.101D-07      0.208D-08      -116.27757669    154.624441    0.18220    0.72935   -0.13465    9    diag
   13      0.257D-08      0.544D-09      -116.27757669    154.624442    0.18220    0.72935   -0.13465    0    orth

 Final occupancy:  10

 !RHF STATE  1.1 Energy              -116.277576689766
 Nuclear energy                        35.98231600
 One-electron energy                 -229.57211354
 Two-electron energy                   77.31222085
 Virial quotient                       -1.00087952
 !RHF STATE  1.1 Dipole moment          0.18220103     0.72934654    -0.13464897
 Dipole moment /Debye                   0.46307850     1.85369257    -0.34222114

 Orbital energies:

         1.1          2.1          3.1          4.1          5.1          6.1          7.1          8.1          9.1         10.1
    -20.569610   -11.191397    -1.339727    -0.945650    -0.704965    -0.579326    -0.546457    -0.544927    -0.543097    -0.508681

        11.1         12.1
      0.024579     0.035456


 HOMO     10.1    -0.508681 =     -13.8419eV
 LUMO     11.1     0.024579 =       0.6688eV
 LUMO-HOMO         0.533260 =      14.5107eV


 **********************************************************************************************************************************
 DATASETS  * FILE   NREC   LENGTH (MB)   RECORD NAMES
              1      18       37.12       500      610      700      900      950      970     1000      129      960     1100   
                                          VAR    BASINP    GEOM    SYMINP    ZMAT    AOBASIS   BASIS     P2S    ABASIS      S 
                                         1400     1410     1200     1210     1080     1600     1650     1700   
                                           T        V       H0       H01     AOSYM     SMH    MOLCAS    OPER   

              2       4        6.75       700     1000      520     2100   
                                         GEOM     BASIS   MCVARS     RHF  

 PROGRAMS   *        TOTAL    HF-SCF       INT
 CPU TIMES  *       574.66    219.83    354.56
 REAL TIME  *       777.46 SEC
 DISK USED  *        57.70 MB (local),       66.72 GB (total)
 SF USED    *         0.76 MB
 GA USED    *         0.00 MB       (max)       0.00 MB       (current)
 **********************************************************************************************************************************

 Basis set:  JKFIT                   
 Basis size:  1104
 Attributes:
 Sphericals:   T
 Basis set:  MP2FIT                  
 Basis size:  1246
 Attributes:
 Sphericals:   T
 Basis set:  RI                      
 Basis size:   730
 Attributes:
 Sphericals:   T
 Basis set:  TDDFT                   
 Basis size:  1246
 Attributes:
 Sphericals:   T

 PROGRAM * CCSD (Closed-shell coupled cluster)     Authors: C. Hampel, H.-J. Werner, 1991, M. Deegan, P.J. Knowles, 1992

                                  CCSD-F12 implementation by  H.-J. Werner, 2007

                   Density fitting integral evaluation by F.R. Manby, 2003,2007, G. Knizia, 2010



 Convergence thresholds:  THRVAR = 1.00D-08  THRDEN = 1.00D-10

 CCSD(T)     terms to be evaluated (factor= 1.000)


 Number of core orbitals:           2 (   2 )
 Number of closed-shell orbitals:   8 (   8 )
 Number of external orbitals:     426 ( 426 )

 Molecular orbitals read from record     2100.2  Type=RHF/CANONICAL (state 1.1)

 MP2-F12 correlation treatment (H.-J. Werner, 2006)
 ==================================================

 Using MP2-F12 with ansatz 3C(FIX)

 Using projected zeroth-order Hamiltonian (+Z)

 FOCKRIB=T FOCKRIC=T FOCKRIP=T CABSP=T CABSA=T CABSK=T CABSF=T GBC=F EBC=F DMAT=T NOFIK=T NOPAO=1 SOLVE=-1  USEPAO=0
 EXCH_A= T EXCH_B= F EXCH_C= F EXCH_P= F

 Geminal basis:    OPTFULL  GEM_TYPE=SLATER  BETA=1.0  NGEM=6

 Optimizing Gaussian exponents for each gem_beta

 Geminal optimization for beta= 1.0000
 Weight function:   m=0, omega= 1.4646

 Augmented Hessian optimization of geminal fit. Trust ratio= 0.40000
 Convergence reached after   2 iterations. Final gradient= 7.85D-16, Step= 4.26D-06, Delta= 1.28D-09

 Alpha:                 0.19532     0.81920     2.85917     9.50073    35.69989   197.79328
 Coeff:                 0.27070     0.30552     0.18297     0.10986     0.06810     0.04224


 All pairs explicitly correlated. Number of r12-pairs:           36

 Excluding core orbitals from MO domains

 AO(A)-basis ORBITAL           loaded. Number of functions:     436
 RI(R)-basis RI                loaded. Number of functions:     730
 DF-basis JKFIT                loaded. Number of functions:    1104

 Screening thresholds:   THRAO=  1.00D-10  THRMO=  1.00D-09  THRPROD=  1.00D-09
                         THRSW=  1.00D-05  THROV=  1.00D-12  THRAOF12= 1.00D-10

 CPU time for Fock operators                     12.08 sec

 Construction of ABS:
 Smallest eigenvalue of S          2.26E-04  (threshold= 1.00E-08)
 Ratio eigmin/eigmax               3.93E-05  (threshold= 1.00E-09)
 Smallest eigenvalue of S kept     2.26E-04  (threshold= 2.26E-04, 0 functions deleted, 730 kept)

 Construction of CABS:
 Smallest eigenvalue of S          1.51E-08  (threshold= 1.00E-08)
 Ratio eigmin/eigmax               1.51E-08  (threshold= 1.00E-09)
 Smallest eigenvalue of S kept     1.51E-08  (threshold= 1.51E-08, 0 functions deleted, 730 kept)

 CPU time for CABS singles                        2.21 sec

 CABS-singles contribution of  -0.00052291 patched into reference energy.
 New reference energy        -116.27809960

 AO(A)-basis ORBITAL           loaded. Number of functions:     436
 RI(R)-basis RI                loaded. Number of functions:     730
 DF-basis MP2FIT               loaded. Number of functions:    1246

 Screening thresholds:   THRAO=  1.00D-10  THRMO=  1.00D-09  THRPROD=  1.00D-09
                         THRSW=  1.00D-05  THROV=  1.00D-12  THRAOF12= 1.00D-10

 CPU time for 3-index integral evaluation        19.37 sec
 CPU time for first  half transformation          5.17 sec ( 2494.6 MFLOP/sec)
 CPU time for second half transformation          0.10 sec ( 1525.7 MFLOP/sec)
 CPU time for sorting                             0.22 sec
 CPU time for fitting                             1.83 sec ( 4058.6 MFLOP/sec)
 CPU time for tilde quantities                    2.35 sec ( 4286.3 MFLOP/sec)
 CPU time for assembly                           16.65 sec ( 4259.3 MFLOP/sec)
 CPU time for tranop_f12                         16.30 sec ( 4228.5 MFLOP/sec)
 CPU time for f12 integrals (total)              84.59 sec, Elapsed time:     86.90 sec
 F12-matrices built in  4 passes.
 F12-matrices built in  4 passes.
 F12-matrices built in  4 passes.
 F12-matrices built in  4 passes.
 FC-matrix built in  4 passes.
 CPU time for f12 matrices (total)                6.01 sec, Elapsed time:      6.18 sec

 Diagonal F12 approximation with fixed coefficients:  TSING= 0.500,  TTRIP= 0.250 (scaled by -1/beta)

 DF-MP2-F12 energy corrections:
 ==============================
 Approx.                                    Singlet             Triplet             Total
 DF-MP2-F12/3*C(DX,FIX)                -0.021213974589     -0.002106948417     -0.023320923006
 DF-MP2-F12/3*C(FIX)                   -0.019149055867     -0.001553047981     -0.020702103848
 DF-MP2-F12/3C(FIX)                    -0.019167207612     -0.001604106517     -0.020771314129

 DF-MP2-F12 correlation energies:
 ================================
 Approx.                                    Singlet             Triplet             Ecorr            Total Energy
 DF-MP2                                -0.341101522201     -0.158464908076     -0.499566430277   -116.777666034607
 DF-MP2-F12/3*C(DX,FIX)                -0.362315496790     -0.160571856493     -0.522887353283   -116.800986957613
 DF-MP2-F12/3*C(FIX)                   -0.360250578068     -0.160017956057     -0.520268534125   -116.798368138455
 DF-MP2-F12/3C(FIX)                    -0.360268729813     -0.160069014593     -0.520337744406   -116.798437348736

 SCS-DF-MP2 energies (F_SING= 1.20000  F_TRIP= 0.62222  F_PARALLEL= 0.33333):
 ============================================================================
 SCS-DF-MP2                            -0.507922213888   -116.786021818218
 SCS-DF-MP2-F12/3*C(DX,FIX)            -0.534689973522   -116.812789577852
 SCS-DF-MP2-F12/3*C(FIX)               -0.531867421895   -116.809967026225
 SCS-DF-MP2-F12/3C(FIX)                -0.531920973745   -116.810020578075
 Symmetry transformation completed.

 Number of N-1 electron functions:               8
 Number of N-2 electron functions:              36
 Number of singly external CSFs:              3408
 Number of doubly external CSFs:           5808936
 Total number of CSFs:                     5812345

 Pair and operator lists are different

 Length of J-op  integral file:               0.75 GB
 Length of K-op  integral file:               0.98 GB
 Length of 3-ext integral record:             0.00 MB

 Memory could be reduced to 828.63 Mwords without degradation in triples

 Integral transformation finished. Total CPU: 320.60 sec, npass=  1  Memory used: 389.45 MW

 Reference energy:                   -116.27809960

 Adding F12 terms to K(Cij), methodcc=6,  factor= 1.0

 ITER.      SQ.NORM     CORR.ENERGY   TOTAL ENERGY   ENERGY CHANGE        DEN1      VAR(S)    VAR(P)  DIIS     TIME  TIME/IT
   1      1.13441497    -0.51313346  -116.79123306    -0.01355760    -0.00154873  0.14D-02  0.20D-02  1  1   591.44   162.58
   2      1.14274886    -0.51377629  -116.79187590    -0.00064283    -0.01006253  0.29D-04  0.25D-03  2  2   751.12   162.49
   3      1.14582169    -0.51397190  -116.79207151    -0.00019561    -0.00215775  0.13D-04  0.14D-04  3  3   910.07   162.39
   4      1.14681990    -0.51399220  -116.79209180    -0.00002029    -0.00059294  0.68D-06  0.13D-05  4  4  1069.30   162.37
   5      1.14699142    -0.51399197  -116.79209157     0.00000023    -0.00004032  0.20D-06  0.91D-07  5  5  1229.43   162.32
   6      1.14703550    -0.51398915  -116.79208875     0.00000282    -0.00000634  0.22D-07  0.78D-08  6  6  1389.19   162.31
   7      1.14704739    -0.51398787  -116.79208748     0.00000127    -0.00000362  0.19D-08  0.75D-09  6  1  1548.62   162.28
   8      1.14704915    -0.51398794  -116.79208754    -0.00000006     0.00000042  0.27D-09  0.84D-10  6  3  1708.14   162.26
   9      1.14705022    -0.51398786  -116.79208747     0.00000007    -0.00000031  0.18D-10  0.14D-10  6  2  1867.94   162.26
  10      1.14705033    -0.51398786  -116.79208747     0.00000000     0.00000006  0.24D-11  0.15D-11  6  4  2027.80   162.24
  11      1.14705033    -0.51398786  -116.79208747     0.00000000     0.00000003  0.41D-12  0.22D-12  6  5  2187.68   162.20
  12      1.14705031    -0.51398786  -116.79208747    -0.00000000     0.00000001  0.89D-13  0.30D-13  6  6  2347.19   162.15
  13      1.14705029    -0.51398787  -116.79208747    -0.00000000     0.00000001  0.16D-13  0.43D-14  6  1  2506.52   162.11
  14      1.14705029    -0.51398787  -116.79208747    -0.00000000     0.00000000  0.23D-14  0.99D-15  6  3  2665.80   162.08
  15      1.14705028    -0.51398787  -116.79208747    -0.00000000     0.00000000  0.27D-15  0.14D-15  6  2  2825.19   162.03
  16      1.14705028    -0.51398787  -116.79208747    -0.00000000    -0.00000000  0.31D-16  0.18D-16  6  4  2984.73   161.99
  17      1.14705028    -0.51398787  -116.79208747     0.00000000    -0.00000000  0.69D-17  0.29D-17  6  5  3143.62   161.93

 Norm of t1 vector:      0.04997722      S-energy:     0.00000000      T1 diagnostic:  0.00883481
                                                                       D1 diagnostic:  0.01917471

 Adding energy correction from Wij-K(Fij), methodcc=6  factor= 1.0

  CCSD correlation energy              -0.513987866249
  MP2-F12 correction (uncoupled)       -0.020186786365
  C*T doubles correction               -0.000558647302
  f12b correction                       0.004656196262

   CPU time for triples:   2034.81 sec for i =  1 -  7 /  8 (~  68.8 % done)
   CPU time for triples:    816.40 sec for i =  8 -  8 /  8 (  100.0 % done)

 Total CPU time for triples:   2856.16 sec

  Ecorr(MP2)                           -0.499575859102
  Ecorr(MP2-F12)                       -0.520347173231
  Scale factor for triples energy       1.041577898033


 RESULTS
 =======

  Reference energy                   -116.277576689768
  F12 singles correction               -0.000522914562

 F12 singles corrections added to reference energy

  New reference energy               -116.278099604330

  F12a singlet correction              -0.019130610802
  F12a triplet correction              -0.001614822866
  F12a total correction                -0.020745433668

 F12a corrections for ansatz F12/3C(FIX) added to CCSD energy

  CCSD-F12a singlet pair energy        -0.388297187034
  CCSD-F12a triplet pair energy        -0.146436112990
  CCSD-F12a correlation energy         -0.534733299916

  Triples (T) contribution (scaled)    -0.017164667178
  Total correlation energy             -0.551897967095

  CCSD-F12a total energy             -116.812832904246
  CCSD[T]-F12a energy                -116.830569384651
  CCSD-T-F12a energy                 -116.829781276621
 !CCSD(T)-F12a total energy          -116.829997571425

 F12b corrections for ansatz F12/3C(FIX) added to CCSD(T)-F12a energy

  CCSD-F12b singlet pair energy        -0.383855826146
  CCSD-F12b triplet pair energy        -0.146221277616
  CCSD-F12b correlation energy         -0.530077103655

  Triples (T) contribution (scaled)    -0.017164667178
  Total correlation energy             -0.547241770833

  CCSD-F12b total energy             -116.808176707985
  CCSD[T]-F12b energy                -116.825913188389
  CCSD-T-F12b energy                 -116.825125080359
 !CCSD(T)-F12b total energy          -116.825341375163

 Timing summary (sec):

 STEP                 CPU(USER)    SYS     CPU(TOT)    WALL
 Transformation        321.84      7.49    329.33    331.19
 CCSD iterations      2709.54     28.24   2737.78   2753.12
 Triples              2856.16      5.96   2862.12   2866.51
 MP2-F12               112.35      2.91    115.26    115.41
 F12b energy           135.95      1.04    136.99    137.17

 Program statistics:

 Available memory in ccsd:              1999999554
 Min. memory needed in ccsd:              16971337
 Max. memory used in ccsd:                21987113
 Max. memory used in cckext:              15122080 (18 integral passes)



 **********************************************************************************************************************************
 DATASETS  * FILE   NREC   LENGTH (MB)   RECORD NAMES
              1      19     2602.04       500      610      700      900      950      970     1000      129      960     1100   
                                          VAR    BASINP    GEOM    SYMINP    ZMAT    AOBASIS   BASIS     P2S    ABASIS      S 
                                         1400     1410     1200     1210     1080     1600     1650     1700     1380   
                                           T        V       H0       H01     AOSYM     SMH    MOLCAS    OPER     JKOP   

              2       6       10.56       700     1000      520     2100     7360     7350   
                                         GEOM     BASIS   MCVARS     RHF    F12ABS    EF12   

 PROGRAMS   *        TOTAL   CCSD(T)    HF-SCF       INT
 CPU TIMES  *      6710.76   6136.10    219.83    354.56
 REAL TIME  *      6981.67 SEC
 DISK USED  *         3.24 GB (local),       77.56 GB (total)
 SF USED    *         5.12 GB
 GA USED    *         4.87 MB       (max)       0.00 MB       (current)
 **********************************************************************************************************************************

 Running procedure: SET_MONOMER1

 Dummy atoms: C1  H41  H42  H43  H44


 Recomputing one-electron integrals since nuclear charges changed


 PROGRAM * SEWARD (Integral evaluation for generally contracted gaussian basis sets)     Author: Roland Lindh, 1990

 Geometry written to block  1 of record 700


 Point group  C1  



 ATOMIC COORDINATES

 NR  ATOM    CHARGE       X              Y              Z

   1  O17     8.00   -8.342762895    8.383580979    6.757282676
   2  H33     1.00   -7.349144898    9.034591629    5.278760956
   3  H34     1.00   -8.743006888    9.863803452    7.746365330
   4  C1      0.00   -6.193010455    2.801518980    2.403542658
   5  H41     0.00   -4.656285171    1.699997622    3.119937832
   6  H42     0.00   -5.973046335    4.726205038    2.982932688
   7  H43     0.00   -7.940251230    2.077186956    3.118237078
   8  H44     0.00   -6.176569838    2.685300823    0.384937212

 Bond lengths in Bohr (Angstrom)

 1-2  1.896606987  1-3  1.824702255  4-5  2.021904040  4-6  2.022002335  4-7  2.021953343
     ( 1.003641196)     ( 0.965590850)     ( 1.069945541)     ( 1.069997556)     ( 1.069971630)

 4-8  2.022015060
     ( 1.070004290)

 Bond angles

  2-1-3  105.01239280   5-4-6  109.53398059   5-4-7  109.65604535   5-4-8  108.43490854

  6-4-7  109.49436728   6-4-8  109.86987750   7-4-8  109.83468330

 NUCLEAR CHARGE:                   10
 NUMBER OF PRIMITIVE AOS:         578
 NUMBER OF SYMMETRY AOS:          474
 NUMBER OF CONTRACTIONS:          436   (  436A   )
 NUMBER OF CORE ORBITALS:           1   (    1A   )
 NUMBER OF VALENCE ORBITALS:        6   (    6A   )

 MOLECULE CHANGED: INITIALIZING OCCUPATION AND DUMP RECORDS


 NUCLEAR REPULSION ENERGY    8.94098799

 Basis set:  JKFIT                   
 Basis size:  1104
 Attributes:
 Sphericals:   T
 Basis set:  MP2FIT                  
 Basis size:  1246
 Attributes:
 Sphericals:   T
 Basis set:  RI                      
 Basis size:   730
 Attributes:
 Sphericals:   T
 Basis set:  TDDFT                   
 Basis size:  1246
 Attributes:
 Sphericals:   T

 Eigenvalues of metric

         1 0.142E-04 0.208E-04 0.324E-04 0.357E-04 0.625E-04 0.763E-04 0.872E-04 0.951E-04


 Contracted 2-electron integrals neglected if value below      1.0D-14

 OPERATOR DM      FOR CENTER  0  COORDINATES:    0.000000    0.000000    0.000000


 **********************************************************************************************************************************
 DATASETS  * FILE   NREC   LENGTH (MB)   RECORD NAMES
              1      18       37.12       500      610      700      900      950      970     1000      129      960     1100   
                                          VAR    BASINP    GEOM    SYMINP    ZMAT    AOBASIS   BASIS     P2S    ABASIS      S 
                                         1400     1410     1200     1210     1080     1600     1650     1700   
                                           T        V       H0       H01     AOSYM     SMH    MOLCAS    OPER   

              2       7       10.59       700     1000      520     2100     7360     7350      200   
                                         GEOM     BASIS   MCVARS     RHF    F12ABS    EF12    OPTIONS    

 PROGRAMS   *        TOTAL       INT   CCSD(T)    HF-SCF       INT
 CPU TIMES  *      6711.18      0.41   6136.10    219.83    354.56
 REAL TIME  *      6982.63 SEC
 DISK USED  *         3.24 GB (local),       77.56 GB (total)
 SF USED    *         5.12 GB
 GA USED    *         4.87 MB       (max)       0.00 MB       (current)
 **********************************************************************************************************************************


 PROGRAM * RHF-SCF (CLOSED SHELL)       Authors: W. Meyer, H.-J. Werner


 NUMBER OF ELECTRONS:       5+    5-    SPACE SYMMETRY=1    SPIN SYMMETRY: Singlet 
 CONVERGENCE THRESHOLDS:    1.00E-08 (Density)    1.00E-11 (Energy)
 MAX. NUMBER OF ITERATIONS:       60
 INTERPOLATION TYPE:            DIIS
 INTERPOLATION STEPS:              2 (START)      1 (STEP)
 LEVEL SHIFTS:                  0.00 (CLOSED)  0.00 (OPEN) 



 Orbital guess generated from atomic densities. Full valence occupancy:    7

 Molecular orbital dump at record        2101.2

 Initial occupancy:   5

 ITERATION    DDIFF          GRAD             ENERGY        2-EL.EN.            DIPOLE MOMENTS         DIIS   ORB.
    1      0.000D+00      0.000D+00       -76.02321603     77.330756    0.31040    1.08948   -0.26178    0    start
    2      0.000D+00      0.468D-02       -76.05006509     73.648010    0.17330    0.63120   -0.14097    1    diag
    3      0.222D-02      0.300D-02       -76.06187635     75.287316    0.20640    0.74652   -0.16909    2    diag
    4      0.845D-03      0.280D-03       -76.06207623     75.195693    0.20389    0.74223   -0.16595    3    diag
    5      0.105D-03      0.798D-04       -76.06209865     75.210322    0.20289    0.74065   -0.16468    4    diag
    6      0.337D-04      0.162D-04       -76.06210016     75.209217    0.20261    0.74031   -0.16430    5    diag
    7      0.875D-05      0.332D-05       -76.06210024     75.209365    0.20253    0.74020   -0.16419    6    diag
    8      0.239D-05      0.611D-06       -76.06210024     75.209348    0.20252    0.74016   -0.16417    7    diag
    9      0.432D-06      0.839D-07       -76.06210024     75.209339    0.20252    0.74016   -0.16417    8    diag
   10      0.527D-07      0.203D-07       -76.06210024     75.209341    0.20252    0.74016   -0.16417    9    orth
   11      0.138D-07      0.484D-08       -76.06210024     75.209341    0.20252    0.74016   -0.16417    9    diag
   12      0.361D-08      0.940D-09       -76.06210024     75.209341    0.20252    0.74016   -0.16417    0    orth

 Final occupancy:   5

 !RHF STATE  1.1 Energy               -76.062100238681
 Nuclear energy                         8.94098799
 One-electron energy                 -122.60775878
 Two-electron energy                   37.60467055
 Virial quotient                       -1.00223875
 !RHF STATE  1.1 Dipole moment          0.20251601     0.74015742    -0.16417005
 Dipole moment /Debye                   0.51471063     1.88116928    -0.41725131

 Orbital energies:

         1.1          2.1          3.1          4.1          5.1          6.1          7.1
    -20.569139    -1.339151    -0.704100    -0.578637    -0.508182     0.021155     0.032818


 HOMO      5.1    -0.508182 =     -13.8283eV
 LUMO      6.1     0.021155 =       0.5757eV
 LUMO-HOMO         0.529337 =      14.4040eV


 **********************************************************************************************************************************
 DATASETS  * FILE   NREC   LENGTH (MB)   RECORD NAMES
              1      18       37.12       500      610      700      900      950      970     1000      129      960     1100   
                                          VAR    BASINP    GEOM    SYMINP    ZMAT    AOBASIS   BASIS     P2S    ABASIS      S 
                                         1400     1410     1200     1210     1080     1600     1650     1700   
                                           T        V       H0       H01     AOSYM     SMH    MOLCAS    OPER   

              2       8       17.39       700     1000      520     2100     7360     7350      200     2101   
                                         GEOM     BASIS   MCVARS     RHF    F12ABS    EF12    OPTIONS    RHF  

 PROGRAMS   *        TOTAL    HF-SCF       INT   CCSD(T)    HF-SCF       INT
 CPU TIMES  *      6911.31    200.13      0.41   6136.10    219.83    354.56
 REAL TIME  *      7200.42 SEC
 DISK USED  *         3.24 GB (local),       77.56 GB (total)
 SF USED    *         5.12 GB
 GA USED    *         4.87 MB       (max)       0.00 MB       (current)
 **********************************************************************************************************************************

 Basis set:  JKFIT                   
 Basis size:  1104
 Attributes:
 Sphericals:   T
 Basis set:  MP2FIT                  
 Basis size:  1246
 Attributes:
 Sphericals:   T
 Basis set:  RI                      
 Basis size:   730
 Attributes:
 Sphericals:   T
 Basis set:  TDDFT                   
 Basis size:  1246
 Attributes:
 Sphericals:   T

 PROGRAM * CCSD (Closed-shell coupled cluster)     Authors: C. Hampel, H.-J. Werner, 1991, M. Deegan, P.J. Knowles, 1992

                                  CCSD-F12 implementation by  H.-J. Werner, 2007

                   Density fitting integral evaluation by F.R. Manby, 2003,2007, G. Knizia, 2010



 Convergence thresholds:  THRVAR = 1.00D-08  THRDEN = 1.00D-10

 CCSD(T)     terms to be evaluated (factor= 1.000)


 Number of core orbitals:           1 (   1 )
 Number of closed-shell orbitals:   4 (   4 )
 Number of external orbitals:     431 ( 431 )

 Molecular orbitals read from record     2101.2  Type=RHF/CANONICAL (state 1.1)

 MP2-F12 correlation treatment (H.-J. Werner, 2006)
 ==================================================

 Using MP2-F12 with ansatz 3C(FIX)

 Using projected zeroth-order Hamiltonian (+Z)

 FOCKRIB=T FOCKRIC=T FOCKRIP=T CABSP=T CABSA=T CABSK=T CABSF=T GBC=F EBC=F DMAT=T NOFIK=T NOPAO=1 SOLVE=-1  USEPAO=0
 EXCH_A= T EXCH_B= F EXCH_C= F EXCH_P= F

 Geminal basis:    OPTFULL  GEM_TYPE=SLATER  BETA=1.0  NGEM=6

 Optimizing Gaussian exponents for each gem_beta

 Geminal optimization for beta= 1.0000
 Weight function:   m=0, omega= 1.4646

 Augmented Hessian optimization of geminal fit. Trust ratio= 0.40000
 Convergence reached after   2 iterations. Final gradient= 8.31D-16, Step= 4.24D-06, Delta= 1.28D-09

 Alpha:                 0.19532     0.81920     2.85917     9.50073    35.69989   197.79328
 Coeff:                 0.27070     0.30552     0.18297     0.10986     0.06810     0.04224


 All pairs explicitly correlated. Number of r12-pairs:           10

 Excluding core orbitals from MO domains

 AO(A)-basis ORBITAL           loaded. Number of functions:     436
 RI(R)-basis RI                loaded. Number of functions:     730
 DF-basis JKFIT                loaded. Number of functions:    1104

 Screening thresholds:   THRAO=  1.00D-10  THRMO=  1.00D-09  THRPROD=  1.00D-09
                         THRSW=  1.00D-05  THROV=  1.00D-12  THRAOF12= 1.00D-10

 CPU time for Fock operators                      9.80 sec

 Construction of ABS:
 Smallest eigenvalue of S          2.26E-04  (threshold= 1.00E-08)
 Ratio eigmin/eigmax               3.93E-05  (threshold= 1.00E-09)
 Smallest eigenvalue of S kept     2.26E-04  (threshold= 2.26E-04, 0 functions deleted, 730 kept)

 Construction of CABS:
 Smallest eigenvalue of S          1.51E-08  (threshold= 1.00E-08)
 Ratio eigmin/eigmax               1.51E-08  (threshold= 1.00E-09)
 Smallest eigenvalue of S kept     1.51E-08  (threshold= 1.51E-08, 0 functions deleted, 730 kept)

 CPU time for CABS singles                        2.20 sec

 CABS-singles contribution of  -0.00027705 patched into reference energy.
 New reference energy         -76.06237728

 AO(A)-basis ORBITAL           loaded. Number of functions:     436
 RI(R)-basis RI                loaded. Number of functions:     730
 DF-basis MP2FIT               loaded. Number of functions:    1246

 Screening thresholds:   THRAO=  1.00D-10  THRMO=  1.00D-09  THRPROD=  1.00D-09
                         THRSW=  1.00D-05  THROV=  1.00D-12  THRAOF12= 1.00D-10

 CPU time for 3-index integral evaluation        19.33 sec
 CPU time for first  half transformation          3.93 sec ( 1651.0 MFLOP/sec)
 CPU time for second half transformation          0.04 sec (  939.1 MFLOP/sec)
 CPU time for sorting                             0.12 sec
 CPU time for fitting                             1.08 sec ( 3438.5 MFLOP/sec)
 CPU time for tilde quantities                    1.54 sec (  899.2 MFLOP/sec)
 CPU time for assembly                            5.13 sec ( 3813.2 MFLOP/sec)
 CPU time for tranop_f12                          4.80 sec ( 3770.8 MFLOP/sec)
 CPU time for f12 integrals (total)              43.20 sec, Elapsed time:     44.17 sec
 F12-matrices built in  4 passes.
 F12-matrices built in  4 passes.
 F12-matrices built in  4 passes.
 F12-matrices built in  4 passes.
 FC-matrix built in  4 passes.
 CPU time for f12 matrices (total)                1.83 sec, Elapsed time:      1.83 sec

 Diagonal F12 approximation with fixed coefficients:  TSING= 0.500,  TTRIP= 0.250 (scaled by -1/beta)

 DF-MP2-F12 energy corrections:
 ==============================
 Approx.                                    Singlet             Triplet             Total
 DF-MP2-F12/3*C(DX,FIX)                -0.013718079191     -0.001529970314     -0.015248049505
 DF-MP2-F12/3*C(FIX)                   -0.012100702061     -0.001076795774     -0.013177497835
 DF-MP2-F12/3C(FIX)                    -0.012089515407     -0.001113887034     -0.013203402441

 DF-MP2-F12 correlation energies:
 ================================
 Approx.                                    Singlet             Triplet             Ecorr            Total Energy
 DF-MP2                                -0.186479965566     -0.101532825191     -0.288012790757    -76.350390075104
 DF-MP2-F12/3*C(DX,FIX)                -0.200198044757     -0.103062795505     -0.303260840262    -76.365638124608
 DF-MP2-F12/3*C(FIX)                   -0.198580667627     -0.102609620966     -0.301190288593    -76.363567572939
 DF-MP2-F12/3C(FIX)                    -0.198569480973     -0.102646712225     -0.301216193199    -76.363593477545

 SCS-DF-MP2 energies (F_SING= 1.20000  F_TRIP= 0.62222  F_PARALLEL= 0.33333):
 ============================================================================
 SCS-DF-MP2                            -0.286951938798    -76.349329223144
 SCS-DF-MP2-F12/3*C(DX,FIX)            -0.304365615356    -76.366742899702
 SCS-DF-MP2-F12/3*C(FIX)               -0.302142787531    -76.364520071877
 SCS-DF-MP2-F12/3C(FIX)                -0.302152442553    -76.364529726899
 Symmetry transformation completed.

 Number of N-1 electron functions:               4
 Number of N-2 electron functions:              10
 Number of singly external CSFs:              1724
 Number of doubly external CSFs:           1486950
 Total number of CSFs:                     1488675

 Pair and operator lists are different

 Length of J-op  integral file:             203.65 MB
 Length of K-op  integral file:             338.08 MB
 Length of 3-ext integral record:             0.00 MB

 Memory could be reduced to 526.20 Mwords without degradation in triples

 Integral transformation finished. Total CPU: 177.41 sec, npass=  1  Memory used: 214.75 MW

 Reference energy:                    -76.06237728

 Adding F12 terms to K(Cij), methodcc=6,  factor= 1.0

 ITER.      SQ.NORM     CORR.ENERGY   TOTAL ENERGY   ENERGY CHANGE        DEN1      VAR(S)    VAR(P)  DIIS     TIME  TIME/IT
   1      1.06391705    -0.28739185   -76.34976913     0.00062505     0.00687089  0.80D-03  0.11D-02  1  1   287.91    48.88
   2      1.06751599    -0.28719220   -76.34956949     0.00019964    -0.00493706  0.13D-04  0.12D-03  2  2   339.69    51.18
   3      1.06878063    -0.28729236   -76.34966964    -0.00010016    -0.00083468  0.10D-04  0.78D-05  3  3   387.64    50.60
   4      1.06935501    -0.28730775   -76.34968503    -0.00001539    -0.00034971  0.54D-06  0.74D-06  4  4   435.62    50.31
   5      1.06946376    -0.28730608   -76.34968336     0.00000167    -0.00002961  0.17D-06  0.55D-07  5  5   483.83    50.17
   6      1.06949763    -0.28730388   -76.34968117     0.00000219    -0.00000434  0.18D-07  0.44D-08  6  6   532.05    50.10
   7      1.06950692    -0.28730325   -76.34968054     0.00000063    -0.00000197  0.11D-08  0.54D-09  6  1   580.36    50.08
   8      1.06950846    -0.28730324   -76.34968053     0.00000001     0.00000006  0.15D-09  0.60D-10  6  2   628.66    50.05
   9      1.06950900    -0.28730323   -76.34968051     0.00000002     0.00000002  0.13D-10  0.90D-11  6  3   676.91    50.03
  10      1.06950911    -0.28730322   -76.34968051     0.00000000     0.00000002  0.19D-11  0.83D-12  6  4   725.19    50.01
  11      1.06950910    -0.28730322   -76.34968051    -0.00000000     0.00000002  0.41D-12  0.14D-12  6  5   773.57    50.00
  12      1.06950909    -0.28730322   -76.34968051    -0.00000000     0.00000000  0.81D-13  0.22D-13  6  6   822.15    50.01
  13      1.06950908    -0.28730322   -76.34968051    -0.00000000     0.00000000  0.12D-13  0.34D-14  6  1   870.85    50.02
  14      1.06950908    -0.28730322   -76.34968051    -0.00000000     0.00000000  0.13D-14  0.76D-15  6  2   919.41    50.01
  15      1.06950908    -0.28730322   -76.34968051    -0.00000000     0.00000000  0.15D-15  0.97D-16  6  3   967.66    50.01
  16      1.06950908    -0.28730322   -76.34968051    -0.00000000     0.00000000  0.18D-16  0.12D-16  6  4  1016.19    50.00

 Norm of t1 vector:      0.03725897      S-energy:    -0.00000000      T1 diagnostic:  0.00931474
                                                                       D1 diagnostic:  0.01893341

 Adding energy correction from Wij-K(Fij), methodcc=6  factor= 1.0

  CCSD correlation energy              -0.287303224753
  MP2-F12 correction (uncoupled)       -0.012744008701
  C*T doubles correction               -0.000431206884
  f12b correction                       0.002716649676


 Total CPU time for triples:    432.49 sec

  Ecorr(MP2)                           -0.288016892434
  Ecorr(MP2-F12)                       -0.301220294875
  Scale factor for triples energy       1.045842458509


 RESULTS
 =======

  Reference energy                    -76.062100238682
  F12 singles correction               -0.000277045664

 F12 singles corrections added to reference energy

  New reference energy                -76.062377284346

  F12a singlet correction              -0.012052705895
  F12a triplet correction              -0.001122509690
  F12a total correction                -0.013175215584

 F12a corrections for ansatz F12/3C(FIX) added to CCSD energy

  CCSD-F12a singlet pair energy        -0.209700846981
  CCSD-F12a triplet pair energy        -0.090777593310
  CCSD-F12a correlation energy         -0.300478440337

  Triples (T) contribution (scaled)    -0.009996485751
  Total correlation energy             -0.310474926088

  CCSD-F12a total energy              -76.362855724683
  CCSD[T]-F12a energy                 -76.373184910961
  CCSD-T-F12a energy                  -76.372707433208
 !CCSD(T)-F12a total energy           -76.372852210434

 F12b corrections for ansatz F12/3C(FIX) added to CCSD(T)-F12a energy

  CCSD-F12b singlet pair energy        -0.207130945293
  CCSD-F12b triplet pair energy        -0.090630845322
  CCSD-F12b correlation energy         -0.297761790661

  Triples (T) contribution (scaled)    -0.009996485751
  Total correlation energy             -0.307758276412

  CCSD-F12b total energy              -76.360139075008
  CCSD[T]-F12b energy                 -76.370468261285
  CCSD-T-F12b energy                  -76.369990783532
 !CCSD(T)-F12b total energy           -76.370135560759

 Timing summary (sec):

 STEP                 CPU(USER)    SYS     CPU(TOT)    WALL
 Transformation        177.81      4.35    182.16    182.67
 CCSD iterations       776.17     22.95    799.12    800.23
 Triples               432.49      1.03    433.52    434.09
 MP2-F12                62.29      1.26     63.55     63.63
 F12b energy            44.31      1.08     45.39     45.45

 Program statistics:

 Available memory in ccsd:              1999999871
 Min. memory needed in ccsd:               6763924
 Max. memory used in ccsd:                 7862874
 Max. memory used in cckext:               5171974 (17 integral passes)



 **********************************************************************************************************************************
 DATASETS  * FILE   NREC   LENGTH (MB)   RECORD NAMES
              1      19     1346.98       500      610      700      900      950      970     1000      129      960     1100   
                                          VAR    BASINP    GEOM    SYMINP    ZMAT    AOBASIS   BASIS     P2S    ABASIS      S 
                                         1400     1410     1200     1210     1080     1600     1650     1700     1380   
                                           T        V       H0       H01     AOSYM     SMH    MOLCAS    OPER     JKOP   

              2       8       17.39       700     1000      520     2100     7360     7350      200     2101   
                                         GEOM     BASIS   MCVARS     RHF    F12ABS    EF12    OPTIONS    RHF  

 PROGRAMS   *        TOTAL   CCSD(T)    HF-SCF       INT   CCSD(T)    HF-SCF       INT
 CPU TIMES  *      8404.64   1493.32    200.13      0.41   6136.10    219.83    354.56
 REAL TIME  *      8727.22 SEC
 DISK USED  *         3.24 GB (local),       77.56 GB (total)
 SF USED    *         5.12 GB
 GA USED    *         4.87 MB       (max)       0.00 MB       (current)
 **********************************************************************************************************************************

 Running procedure: SET_MONOMER2

 Dummy atoms: O17  H33  H34


 Recomputing one-electron integrals since nuclear charges changed


 PROGRAM * SEWARD (Integral evaluation for generally contracted gaussian basis sets)     Author: Roland Lindh, 1990

 Geometry written to block  1 of record 700


 Point group  C1  



 ATOMIC COORDINATES

 NR  ATOM    CHARGE       X              Y              Z

   1  O17     0.00   -8.342762895    8.383580979    6.757282676
   2  H33     0.00   -7.349144898    9.034591629    5.278760956
   3  H34     0.00   -8.743006888    9.863803452    7.746365330
   4  C1      6.00   -6.193010455    2.801518980    2.403542658
   5  H41     1.00   -4.656285171    1.699997622    3.119937832
   6  H42     1.00   -5.973046335    4.726205038    2.982932688
   7  H43     1.00   -7.940251230    2.077186956    3.118237078
   8  H44     1.00   -6.176569838    2.685300823    0.384937212

 Bond lengths in Bohr (Angstrom)

 1-2  1.896606987  1-3  1.824702255  4-5  2.021904040  4-6  2.022002335  4-7  2.021953343
     ( 1.003641196)     ( 0.965590850)     ( 1.069945541)     ( 1.069997556)     ( 1.069971630)

 4-8  2.022015060
     ( 1.070004290)

 Bond angles

  2-1-3  105.01239280   5-4-6  109.53398059   5-4-7  109.65604535   5-4-8  108.43490854

  6-4-7  109.49436728   6-4-8  109.86987750   7-4-8  109.83468330

 NUCLEAR CHARGE:                   10
 NUMBER OF PRIMITIVE AOS:         578
 NUMBER OF SYMMETRY AOS:          474
 NUMBER OF CONTRACTIONS:          436   (  436A   )
 NUMBER OF CORE ORBITALS:           1   (    1A   )
 NUMBER OF VALENCE ORBITALS:        8   (    8A   )

 MOLECULE CHANGED: INITIALIZING OCCUPATION AND DUMP RECORDS


 NUCLEAR REPULSION ENERGY   13.68681606

 Basis set:  JKFIT                   
 Basis size:  1104
 Attributes:
 Sphericals:   T
 Basis set:  MP2FIT                  
 Basis size:  1246
 Attributes:
 Sphericals:   T
 Basis set:  RI                      
 Basis size:   730
 Attributes:
 Sphericals:   T
 Basis set:  TDDFT                   
 Basis size:  1246
 Attributes:
 Sphericals:   T

 Eigenvalues of metric

         1 0.142E-04 0.208E-04 0.324E-04 0.357E-04 0.625E-04 0.763E-04 0.872E-04 0.951E-04


 Contracted 2-electron integrals neglected if value below      1.0D-14

 OPERATOR DM      FOR CENTER  0  COORDINATES:    0.000000    0.000000    0.000000


 **********************************************************************************************************************************
 DATASETS  * FILE   NREC   LENGTH (MB)   RECORD NAMES
              1      18       37.12       500      610      700      900      950      970     1000      129      960     1100   
                                          VAR    BASINP    GEOM    SYMINP    ZMAT    AOBASIS   BASIS     P2S    ABASIS      S 
                                         1400     1410     1200     1210     1080     1600     1650     1700   
                                           T        V       H0       H01     AOSYM     SMH    MOLCAS    OPER   

              2       8       17.39       700     1000      520     2100     7360     7350      200     2101   
                                         GEOM     BASIS   MCVARS     RHF    F12ABS    EF12    OPTIONS    RHF  

 PROGRAMS   *        TOTAL       INT   CCSD(T)    HF-SCF       INT   CCSD(T)    HF-SCF       INT
 CPU TIMES  *      8405.06      0.41   1493.32    200.13      0.41   6136.10    219.83    354.56
 REAL TIME  *      8728.03 SEC
 DISK USED  *         3.24 GB (local),       77.56 GB (total)
 SF USED    *         5.12 GB
 GA USED    *         4.87 MB       (max)       0.00 MB       (current)
 **********************************************************************************************************************************


 PROGRAM * RHF-SCF (CLOSED SHELL)       Authors: W. Meyer, H.-J. Werner


 NUMBER OF ELECTRONS:       5+    5-    SPACE SYMMETRY=1    SPIN SYMMETRY: Singlet 
 CONVERGENCE THRESHOLDS:    1.00E-08 (Density)    1.00E-11 (Energy)
 MAX. NUMBER OF ITERATIONS:       60
 INTERPOLATION TYPE:            DIIS
 INTERPOLATION STEPS:              2 (START)      1 (STEP)
 LEVEL SHIFTS:                  0.00 (CLOSED)  0.00 (OPEN) 



 Orbital guess generated from atomic densities. Full valence occupancy:    9

 Molecular orbital dump at record        2102.2

 Initial occupancy:   5

 ITERATION    DDIFF          GRAD             ENERGY        2-EL.EN.            DIPOLE MOMENTS         DIIS   ORB.
    1      0.000D+00      0.000D+00       -40.19609499     53.506286    0.00411   -0.00276   -0.00131    0    start
    2      0.000D+00      0.257D-02       -40.21334902     52.217622    0.00129   -0.00088   -0.00039    1    diag
    3      0.158D-02      0.998D-03       -40.21562493     52.672081    0.00182   -0.00124   -0.00055    2    diag
    4      0.442D-03      0.249D-03       -40.21594438     52.617268    0.00162   -0.00111   -0.00049    3    diag
    5      0.168D-03      0.322D-04       -40.21594987     52.619416    0.00159   -0.00109   -0.00048    4    diag
    6      0.422D-04      0.264D-05       -40.21594992     52.619552    0.00159   -0.00109   -0.00048    5    diag
    7      0.559D-05      0.212D-06       -40.21594992     52.619513    0.00159   -0.00109   -0.00048    6    diag
    8      0.225D-06      0.170D-07       -40.21594992     52.619514    0.00159   -0.00109   -0.00048    7    diag
    9      0.833D-07      0.217D-08       -40.21594992     52.619514    0.00159   -0.00109   -0.00048    8    diag
   10      0.819D-08      0.595D-09       -40.21594992     52.619514    0.00159   -0.00109   -0.00048    0    orth

 Final occupancy:   5

 !RHF STATE  1.1 Energy               -40.215949916489
 Nuclear energy                        13.68681606
 One-electron energy                  -80.21252315
 Two-electron energy                   26.30975717
 Virial quotient                       -0.99838101
 !RHF STATE  1.1 Dipole moment          0.00158853    -0.00108833    -0.00047618
 Dipole moment /Debye                   0.00403737    -0.00276607    -0.00121024

 Orbital energies:

         1.1          2.1          3.1          4.1          5.1          6.1          7.1
    -11.196223    -0.950661    -0.551889    -0.549954    -0.547776     0.023767     0.035574


 HOMO      5.1    -0.547776 =     -14.9057eV
 LUMO      6.1     0.023767 =       0.6467eV
 LUMO-HOMO         0.571543 =      15.5525eV


 **********************************************************************************************************************************
 DATASETS  * FILE   NREC   LENGTH (MB)   RECORD NAMES
              1      18       37.12       500      610      700      900      950      970     1000      129      960     1100   
                                          VAR    BASINP    GEOM    SYMINP    ZMAT    AOBASIS   BASIS     P2S    ABASIS      S 
                                         1400     1410     1200     1210     1080     1600     1650     1700   
                                           T        V       H0       H01     AOSYM     SMH    MOLCAS    OPER   

              2       9       27.51       700     1000      520     2100     7360     7350      200     2101     2102   
                                         GEOM     BASIS   MCVARS     RHF    F12ABS    EF12    OPTIONS    RHF      RHF  

 PROGRAMS   *        TOTAL    HF-SCF       INT   CCSD(T)    HF-SCF       INT   CCSD(T)    HF-SCF       INT
 CPU TIMES  *      8575.02    169.96      0.41   1493.32    200.13      0.41   6136.10    219.83    354.56
 REAL TIME  *      8912.37 SEC
 DISK USED  *         3.24 GB (local),       77.56 GB (total)
 SF USED    *         5.12 GB
 GA USED    *         4.87 MB       (max)       0.00 MB       (current)
 **********************************************************************************************************************************

 Basis set:  JKFIT                   
 Basis size:  1104
 Attributes:
 Sphericals:   T
 Basis set:  MP2FIT                  
 Basis size:  1246
 Attributes:
 Sphericals:   T
 Basis set:  RI                      
 Basis size:   730
 Attributes:
 Sphericals:   T
 Basis set:  TDDFT                   
 Basis size:  1246
 Attributes:
 Sphericals:   T

 PROGRAM * CCSD (Closed-shell coupled cluster)     Authors: C. Hampel, H.-J. Werner, 1991, M. Deegan, P.J. Knowles, 1992

                                  CCSD-F12 implementation by  H.-J. Werner, 2007

                   Density fitting integral evaluation by F.R. Manby, 2003,2007, G. Knizia, 2010



 Convergence thresholds:  THRVAR = 1.00D-08  THRDEN = 1.00D-10

 CCSD(T)     terms to be evaluated (factor= 1.000)


 Number of core orbitals:           1 (   1 )
 Number of closed-shell orbitals:   4 (   4 )
 Number of external orbitals:     431 ( 431 )

 Molecular orbitals read from record     2102.2  Type=RHF/CANONICAL (state 1.1)

 MP2-F12 correlation treatment (H.-J. Werner, 2006)
 ==================================================

 Using MP2-F12 with ansatz 3C(FIX)

 Using projected zeroth-order Hamiltonian (+Z)

 FOCKRIB=T FOCKRIC=T FOCKRIP=T CABSP=T CABSA=T CABSK=T CABSF=T GBC=F EBC=F DMAT=T NOFIK=T NOPAO=1 SOLVE=-1  USEPAO=0
 EXCH_A= T EXCH_B= F EXCH_C= F EXCH_P= F

 Geminal basis:    OPTFULL  GEM_TYPE=SLATER  BETA=1.0  NGEM=6

 Optimizing Gaussian exponents for each gem_beta

 Geminal optimization for beta= 1.0000
 Weight function:   m=0, omega= 1.4646

 Augmented Hessian optimization of geminal fit. Trust ratio= 0.40000
 Convergence reached after   2 iterations. Final gradient= 7.85D-16, Step= 4.26D-06, Delta= 1.28D-09

 Alpha:                 0.19532     0.81920     2.85917     9.50073    35.69989   197.79328
 Coeff:                 0.27070     0.30552     0.18297     0.10986     0.06810     0.04224


 All pairs explicitly correlated. Number of r12-pairs:           10

 Excluding core orbitals from MO domains

 AO(A)-basis ORBITAL           loaded. Number of functions:     436
 RI(R)-basis RI                loaded. Number of functions:     730
 DF-basis JKFIT                loaded. Number of functions:    1104

 Screening thresholds:   THRAO=  1.00D-10  THRMO=  1.00D-09  THRPROD=  1.00D-09
                         THRSW=  1.00D-05  THROV=  1.00D-12  THRAOF12= 1.00D-10

 CPU time for Fock operators                     10.12 sec

 Construction of ABS:
 Smallest eigenvalue of S          2.26E-04  (threshold= 1.00E-08)
 Ratio eigmin/eigmax               3.93E-05  (threshold= 1.00E-09)
 Smallest eigenvalue of S kept     2.26E-04  (threshold= 2.26E-04, 0 functions deleted, 730 kept)

 Construction of CABS:
 Smallest eigenvalue of S          1.51E-08  (threshold= 1.00E-08)
 Ratio eigmin/eigmax               1.51E-08  (threshold= 1.00E-09)
 Smallest eigenvalue of S kept     1.51E-08  (threshold= 1.51E-08, 0 functions deleted, 730 kept)

 CPU time for CABS singles                        2.23 sec

 CABS-singles contribution of  -0.00024585 patched into reference energy.
 New reference energy         -40.21619577

 AO(A)-basis ORBITAL           loaded. Number of functions:     436
 RI(R)-basis RI                loaded. Number of functions:     730
 DF-basis MP2FIT               loaded. Number of functions:    1246

 Screening thresholds:   THRAO=  1.00D-10  THRMO=  1.00D-09  THRPROD=  1.00D-09
                         THRSW=  1.00D-05  THROV=  1.00D-12  THRAOF12= 1.00D-10

 CPU time for 3-index integral evaluation        19.28 sec
 CPU time for first  half transformation          3.06 sec ( 2135.7 MFLOP/sec)
 CPU time for second half transformation          0.03 sec ( 1274.9 MFLOP/sec)
 CPU time for sorting                             0.08 sec
 CPU time for fitting                             1.48 sec ( 1573.5 MFLOP/sec)
 CPU time for tilde quantities                    1.57 sec ( 5513.9 MFLOP/sec)
 CPU time for assembly                            5.05 sec ( 3535.4 MFLOP/sec)
 CPU time for tranop_f12                          4.76 sec ( 3863.2 MFLOP/sec)
 CPU time for f12 integrals (total)              42.43 sec, Elapsed time:     43.25 sec
 F12-matrices built in  4 passes.
 F12-matrices built in  4 passes.
 F12-matrices built in  4 passes.
 F12-matrices built in  4 passes.
 FC-matrix built in  4 passes.
 CPU time for f12 matrices (total)                1.70 sec, Elapsed time:      1.75 sec

 Diagonal F12 approximation with fixed coefficients:  TSING= 0.500,  TTRIP= 0.250 (scaled by -1/beta)

 DF-MP2-F12 energy corrections:
 ==============================
 Approx.                                    Singlet             Triplet             Total
 DF-MP2-F12/3*C(DX,FIX)                -0.007492831332     -0.000574693386     -0.008067524717
 DF-MP2-F12/3*C(FIX)                   -0.007045708881     -0.000473295867     -0.007519004749
 DF-MP2-F12/3C(FIX)                    -0.007074846905     -0.000486820817     -0.007561667721

 DF-MP2-F12 correlation energies:
 ================================
 Approx.                                    Singlet             Triplet             Ecorr            Total Energy
 DF-MP2                                -0.154423718994     -0.056464272921     -0.210887991915    -40.427083761617
 DF-MP2-F12/3*C(DX,FIX)                -0.161916550326     -0.057038966307     -0.218955516633    -40.435151286334
 DF-MP2-F12/3*C(FIX)                   -0.161469427876     -0.056937568788     -0.218406996664    -40.434602766365
 DF-MP2-F12/3C(FIX)                    -0.161498565899     -0.056951093738     -0.218449659637    -40.434645429338

 SCS-DF-MP2 energies (F_SING= 1.20000  F_TRIP= 0.62222  F_PARALLEL= 0.33333):
 ============================================================================
 SCS-DF-MP2                            -0.220441788166    -40.436637557868
 SCS-DF-MP2-F12/3*C(DX,FIX)            -0.229790772760    -40.445986542461
 SCS-DF-MP2-F12/3*C(FIX)               -0.229191134030    -40.445386903732
 SCS-DF-MP2-F12/3C(FIX)                -0.229234515182    -40.445430284884
 Symmetry transformation completed.

 Number of N-1 electron functions:               4
 Number of N-2 electron functions:              10
 Number of singly external CSFs:              1724
 Number of doubly external CSFs:           1486950
 Total number of CSFs:                     1488675

 Pair and operator lists are different

 Length of J-op  integral file:             203.65 MB
 Length of K-op  integral file:             338.08 MB
 Length of 3-ext integral record:             0.00 MB

 Memory could be reduced to 526.20 Mwords without degradation in triples

 Integral transformation finished. Total CPU: 172.80 sec, npass=  1  Memory used: 214.75 MW

 Reference energy:                    -40.21619577

 Adding F12 terms to K(Cij), methodcc=6,  factor= 1.0

 ITER.      SQ.NORM     CORR.ENERGY   TOTAL ENERGY   ENERGY CHANGE        DEN1      VAR(S)    VAR(P)  DIIS     TIME  TIME/IT
   1      1.07024090    -0.22512178   -40.44131755    -0.01422844    -0.00847406  0.63D-03  0.94D-03  1  1   283.70    50.14
   2      1.07517150    -0.22597194   -40.44216771    -0.00085016    -0.00530356  0.15D-04  0.10D-03  2  2   331.61    49.84
   3      1.07679444    -0.22605975   -40.44225552    -0.00008781    -0.00117765  0.22D-05  0.59D-05  3  3   381.52    50.39
   4      1.07717745    -0.22606704   -40.44226281    -0.00000729    -0.00020556  0.14D-06  0.33D-06  4  4   429.38    50.08
   5      1.07722951    -0.22606867   -40.44226444    -0.00000163    -0.00000894  0.11D-07  0.21D-07  5  5   477.22    49.92
   6      1.07723810    -0.22606738   -40.44226315     0.00000130    -0.00000328  0.76D-09  0.16D-08  6  6   525.52    49.90
   7      1.07723945    -0.22606705   -40.44226282     0.00000033    -0.00000084  0.50D-10  0.12D-09  6  1   573.70    49.89
   8      1.07723942    -0.22606712   -40.44226289    -0.00000007     0.00000020  0.52D-11  0.68D-11  6  3   621.91    49.86
   9      1.07723955    -0.22606711   -40.44226288     0.00000002    -0.00000009  0.37D-12  0.54D-12  6  2   670.29    49.85
  10      1.07723956    -0.22606710   -40.44226287     0.00000000     0.00000001  0.49D-13  0.56D-13  6  4   718.63    49.84
  11      1.07723956    -0.22606710   -40.44226287     0.00000000     0.00000000  0.46D-14  0.57D-14  6  5   766.81    49.83
  12      1.07723956    -0.22606710   -40.44226287     0.00000000     0.00000000  0.11D-15  0.62D-15  6  6   814.84    49.82
  13      1.07723956    -0.22606710   -40.44226287    -0.00000000     0.00000000  0.77D-17  0.67D-16  6  1   862.71    49.78
  14      1.07723956    -0.22606710   -40.44226287    -0.00000000     0.00000000  0.12D-17  0.87D-17  6  3   910.65    49.75

 Norm of t1 vector:      0.03291682      S-energy:    -0.00000000      T1 diagnostic:  0.00822921
                                                                       D1 diagnostic:  0.01319257

 Adding energy correction from Wij-K(Fij), methodcc=6  factor= 1.0

  CCSD correlation energy              -0.226067101892
  MP2-F12 correction (uncoupled)       -0.007437851339
  C*T doubles correction               -0.000126647840
  f12b correction                       0.001936527445

 Total CPU time for triples:    431.18 sec

  Ecorr(MP2)                           -0.210893340110
  Ecorr(MP2-F12)                       -0.218455007831
  Scale factor for triples energy       1.035855412587


 RESULTS
 =======

  Reference energy                    -40.215949916489
  F12 singles correction               -0.000245853212

 F12 singles corrections added to reference energy

  New reference energy                -40.216195769701

  F12a singlet correction              -0.007075254968
  F12a triplet correction              -0.000489244211
  F12a total correction                -0.007564499179

 F12a corrections for ansatz F12/3C(FIX) added to CCSD energy

  CCSD-F12a singlet pair energy        -0.178450470087
  CCSD-F12a triplet pair energy        -0.055181130979
  CCSD-F12a correlation energy         -0.233631601071

  Triples (T) contribution (scaled)    -0.007053184452
  Total correlation energy             -0.240684785524

  CCSD-F12a total energy              -40.449827370773
  CCSD[T]-F12a energy                 -40.457117083493
  CCSD-T-F12a energy                  -40.456810705360
 !CCSD(T)-F12a total energy           -40.456880555225

 F12b corrections for ansatz F12/3C(FIX) added to CCSD(T)-F12a energy

  CCSD-F12b singlet pair energy        -0.176581499078
  CCSD-F12b triplet pair energy        -0.055113574543
  CCSD-F12b correlation energy         -0.231695073627

  Triples (T) contribution (scaled)    -0.007053184452
  Total correlation energy             -0.238748258079

  CCSD-F12b total energy              -40.447890843328
  CCSD[T]-F12b energy                 -40.455180556048
  CCSD-T-F12b energy                  -40.454874177915
 !CCSD(T)-F12b total energy           -40.454944027780

 Timing summary (sec):

 STEP                 CPU(USER)    SYS     CPU(TOT)    WALL
 Transformation        173.20      4.37    177.57    177.98
 CCSD iterations       675.85     19.94    695.79    696.74
 Triples               431.18      0.92    432.10    432.66
 MP2-F12                61.69      1.08     62.77     62.85
 F12b energy            43.83      1.31     45.14     45.21

 Program statistics:

 Available memory in ccsd:              1999999866
 Min. memory needed in ccsd:               6763924
 Max. memory used in ccsd:                 7862874
 Max. memory used in cckext:               5171974 (15 integral passes)



 **********************************************************************************************************************************
 DATASETS  * FILE   NREC   LENGTH (MB)   RECORD NAMES
              1      19     1346.98       500      610      700      900      950      970     1000      129      960     1100   
                                          VAR    BASINP    GEOM    SYMINP    ZMAT    AOBASIS   BASIS     P2S    ABASIS      S 
                                         1400     1410     1200     1210     1080     1600     1650     1700     1380   
                                           T        V       H0       H01     AOSYM     SMH    MOLCAS    OPER     JKOP   

              2       9       27.51       700     1000      520     2100     7360     7350      200     2101     2102   
                                         GEOM     BASIS   MCVARS     RHF    F12ABS    EF12    OPTIONS    RHF      RHF  

 PROGRAMS   *        TOTAL   CCSD(T)    HF-SCF       INT   CCSD(T)    HF-SCF       INT   CCSD(T)    HF-SCF       INT
 CPU TIMES  *      9961.02   1385.99    169.96      0.41   1493.32    200.13      0.41   6136.10    219.83    354.56
 REAL TIME  *     10328.55 SEC
 DISK USED  *         3.24 GB (local),       77.56 GB (total)
 SF USED    *         5.12 GB
 GA USED    *         4.87 MB       (max)       0.00 MB       (current)
 **********************************************************************************************************************************
 Molecular orbitals read from record     2102.2  Type=RHF/CANONICAL (state 1.1)
 Occupation numbers read from record     2102.2  Type=RHF/RHF (state 1.1)
 Orbital energies read from record       2102.2  Type=RHF/CANONICAL (state 1.1)
 Redundancy group numbers read from rec  2102.2  Type=RHF/RHF (state 1.1)

 CCSD(T)-F12/aug-cc-pVQZ energy=    -40.454944027780

     CCSD(T)-F12          HF-SCF     CCSD(T)-F12          HF-SCF     CCSD(T)-F12          HF-SCF
    -40.45494403    -40.21594992    -76.37013556    -76.06210024   -116.82534138   -116.27757669
 **********************************************************************************************************************************
 Molpro calculation terminated
