
 Primary working directories    : /scratch/klimes/383252/molpro.F6AWCT6ukS
 Secondary working directories  : /scratch/klimes/383252/molpro.F6AWCT6ukS
 Wavefunction directory         : /scratch/klimes/383252/
 Main file repository           : /scratch/klimes/383252/molpro.F6AWCT6ukS/

 id        : karlovklimes

 Nodes                      nprocs
 nc-07.cc.karlov.mff.cuni.cz    4

 Using customized tuning parameters: mindgm=1; mindgv=20; mindgc=4; mindgr=1; noblas=0; minvec=7
 default implementation of scratch files=sf  


 Variables initialized (930), CPU time= 0.01 sec
                                                                                 !gdirect
 memory,2000,m
 gthresh,orbital=1d-10,energy=1d-10,grid=1d-8
 
 symmetry,nosym
 angstrom
 geometry={
 O18        -6.356200000000      0.392700000000      3.232000000000
 H35        -6.218200000000     -0.218800000000      2.485700000000
 H36        -5.588500000000      0.246100000000      3.819100000000
 C1        -3.277200000000      1.482500000000      1.271900000000
 H41        -2.464000000000      0.899600000000      1.651000000000
 H42        -3.160800000000      2.501000000000      1.578500000000
 H43        -4.201800000000      1.099200000000      1.650100000000
 H44        -3.268500000000      1.421000000000      0.203700000000
 }
 
 nkerna=1
 nkernb=1
 
 gf=0
 sing=1
 thrdum=1d-4
 gridthr=1d-8
 
 basis={
 set,orbital
 default,avqz
 set,jkfit
 default,av5z/jkfit
 set,mp2fit
 default,av5z/mp2fit
 set,ri
 default,av5z/optri
 set,tddft
 default,av5z/mp2fit
 }
 
 proc set_monomer1
 dummy,4,5,6,7,8
 endproc
 
 proc set_monomer2
 dummy,1,2,3
 endproc
 
                                                                                 !12 energy
 {hf,accu=1.d-16}
 {ccsd(t)-f12,df_basis=mp2fit,df_basis_exch=jkfit,ri_basis=ri,scale_trip=1,THRAOF12=1d-10}
 
 set_monomer1
 {hf,accu=1.d-16}
 {ccsd(t)-f12,df_basis=mp2fit,df_basis_exch=jkfit,ri_basis=ri,scale_trip=1,THRAOF12=1d-10}
 
 set_monomer2
 {hf,accu=1.d-16}
 {ccsd(t)-f12,df_basis=mp2fit,df_basis_exch=jkfit,ri_basis=ri,scale_trip=1,THRAOF12=1d-10}
 
 Commands  initialized (760), CPU time= 0.02 sec, 617 directives.
 Default parameters read. Elapsed time= 0.17 sec

 Checking input...
 Passed
1


                                         ***  PROGRAM SYSTEM MOLPRO  ***
                                       Copyright, TTI GmbH Stuttgart, 2015
                                    Version 2019.1 linked Jan 14 2019 13:09:19


 **********************************************************************************************************************************
 LABEL *                                                                                 
  64 bit mpp version                                                                     DATE: 11-Mar-20          TIME: 18:08:25  
 **********************************************************************************************************************************

 SHA1:             d688ac825633d238f2093ded1675ba87ccd55965
 **********************************************************************************************************************************

 THRESHOLDS:

 ZERO    =  1.00D-12  ONEINT  =  1.00D-12  TWOINT  =  1.00D-11  PREFAC  =  1.00D-14  XXXXXX  =  1.00D-09  EORDER  =  1.00D-04
 ENERGY  =  1.00D-10  ETEST   =  0.00D+00  EDENS   =  0.00D+00  THRDEDEF=  1.00D-06  GRADIENT=  1.00D-02  STEP    =  1.00D-03
 ORBITAL =  1.00D-10  CIVEC   =  1.00D-05  COEFF   =  1.00D-04  PRINTCI =  5.00D-02  PUNCHCI =  9.90D+01  OPTGRAD =  3.00D-04
 OPTENERG=  1.00D-06  OPTSTEP =  3.00D-04  THRGRAD =  1.00D-10  COMPRESS=  1.00D-11  VARMIN  =  1.00D-07  VARMAX  =  1.00D-03
 THRDOUB =  0.00D+00  THRDIV  =  1.00D-05  THRRED  =  1.00D-07  THRPSP  =  1.00D+00  THRDC   =  1.00D-10  THRCS   =  1.00D-10
 THRNRM  =  1.00D-08  THREQ   =  0.00D+00  THRDE   =  1.00D+00  THRREF  =  1.00D-05  SPARFAC =  1.00D+00  THRDLP  =  1.00D-07
 THRDIA  =  1.00D-10  THRDLS  =  1.00D-07  THRGPS  =  0.00D+00  THRKEX  =  0.00D+00  THRDIS  =  2.00D-01  THRVAR  =  1.00D-10
 THRLOC  =  1.00D-06  THRGAP  =  1.00D-06  THRLOCT = -1.00D+00  THRGAPT = -1.00D+00  THRORB  =  1.00D-06  THRMLTP =  0.00D+00
 THRCPQCI=  1.00D-10  KEXTA   =  0.00D+00  THRCOARS=  0.00D+00  SYMTOL  =  1.00D-06  GRADTOL =  1.00D-06  THROVL  =  1.00D-08
 THRORTH =  1.00D-08  GRID    =  1.00D-08  GRIDMAX =  1.00D-03  DTMAX   =  0.00D+00  THROCCDE=  1.00D-01  THROCCDE=  1.00D-01
 THRPRINT=  2.50D-01


 Variable memory set to 2000000000 words,  buffer space 

 ZSYMEL=NOSYM
 ZUNIT=ANG


Geometry recognized as XYZ

 SETTING NKERNA         =         1.00000000                                  
 SETTING NKERNB         =         1.00000000                                  
 SETTING GF             =     0.00000000D+00                                  
 SETTING SING           =         1.00000000                                  
 SETTING THRDUM         =     1.00000000D-04                                  
 SETTING GRIDTHR        =     1.00000000D-08                                  
 SETTING BASIS          =    AVQZ


 Recomputing integrals since basis changed


 Using spherical harmonics

 Library entry O      S aug-cc-pVQZ          selected for orbital group  1
 Library entry O      P aug-cc-pVQZ          selected for orbital group  1
 Library entry O      D aug-cc-pVQZ          selected for orbital group  1
 Library entry O      F aug-cc-pVQZ          selected for orbital group  1
 Library entry O      G aug-cc-pVQZ          selected for orbital group  1
 Library entry H      S aug-cc-pVQZ          selected for orbital group  2
 Library entry H      P aug-cc-pVQZ          selected for orbital group  2
 Library entry H      D aug-cc-pVQZ          selected for orbital group  2
 Library entry H      F aug-cc-pVQZ          selected for orbital group  2
 Library entry C      S aug-cc-pVQZ          selected for orbital group  3
 Library entry C      P aug-cc-pVQZ          selected for orbital group  3
 Library entry C      D aug-cc-pVQZ          selected for orbital group  3
 Library entry C      F aug-cc-pVQZ          selected for orbital group  3
 Library entry C      G aug-cc-pVQZ          selected for orbital group  3


 PROGRAM * SEWARD (Integral evaluation for generally contracted gaussian basis sets)     Author: Roland Lindh, 1990

 Geometry written to block  1 of record 700


 Point group  C1  



 ATOMIC COORDINATES

 NR  ATOM    CHARGE       X              Y              Z

   1  O18     8.00  -12.011477193    0.742095449    6.107594835
   2  H35     1.00  -11.750694988   -0.413472076    4.697292228
   3  H36     1.00  -10.560734447    0.465061599    7.217053042
   4  C1      6.00   -6.193010455    2.801518980    2.403542658
   5  H41     1.00   -4.656285171    1.699997622    3.119937832
   6  H42     1.00   -5.973046335    4.726205038    2.982932688
   7  H43     1.00   -7.940251230    2.077186956    3.118237078
   8  H44     1.00   -6.176569838    2.685300823    0.384937212

 Bond lengths in Bohr (Angstrom)

 1-2  1.841818967  1-3  1.847241128  4-5  2.021904040  4-6  2.022002335  4-7  2.021953343
     ( 0.974648624)     ( 0.977517908)     ( 1.069945541)     ( 1.069997556)     ( 1.069971630)

 4-8  2.022015060
     ( 1.070004290)

 Bond angles

  2-1-3  104.74973043   5-4-6  109.53398059   5-4-7  109.65604535   5-4-8  108.43490854

  6-4-7  109.49436728   6-4-8  109.86987750   7-4-8  109.83468330

 NUCLEAR CHARGE:                   20
 NUMBER OF PRIMITIVE AOS:         578
 NUMBER OF SYMMETRY AOS:          474
 NUMBER OF CONTRACTIONS:          436   (  436A   )
 NUMBER OF CORE ORBITALS:           2   (    2A   )
 NUMBER OF VALENCE ORBITALS:       14   (   14A   )


 NUCLEAR REPULSION ENERGY   36.79874832


 Basis set:  JKFIT                   
 Basis size:  1104
 Attributes:
 Sphericals:   T
 Basis set:  MP2FIT                  
 Basis size:  1246
 Attributes:
 Sphericals:   T
 Basis set:  RI                      
 Basis size:   730
 Attributes:
 Sphericals:   T
 Basis set:  TDDFT                   
 Basis size:  1246
 Attributes:
 Sphericals:   T

 **********************************************************************************************************************************


 Eigenvalues of metric

         1 0.106E-04 0.165E-04 0.290E-04 0.334E-04 0.477E-04 0.620E-04 0.893E-04 0.103E-03


 Contracted 2-electron integrals neglected if value below      1.0D-14
 AO integral compression algorithm  1   Integral accuracy      1.0D-14

     24055.906 MB (compressed) written to integral file ( 60.0%)

     Node minimum: 5505.286 MB, node maximum: 6541.541 MB


 NUMBER OF SORTED TWO-ELECTRON INTEGRALS: 1134451344.     BUFFER LENGTH:  32768
 NUMBER OF SEGMENTS:  36  SEGMENT LENGTH:   31999984      RECORD LENGTH: 524288

 Memory used in sort:      32.56 MW

 SORT1 READ  5012305700. AND WROTE   983803414. INTEGRALS IN   2831 RECORDS. CPU TIME:   392.92 SEC, REAL TIME:   444.28 SEC
 SORT2 READ  3936236959. AND WROTE  4537853011. INTEGRALS IN  92192 RECORDS. CPU TIME:    18.33 SEC, REAL TIME:   116.19 SEC

 Node minimum:  1134427528.  Node maximum:  1134498978. integrals

 OPERATOR DM      FOR CENTER  0  COORDINATES:    0.000000    0.000000    0.000000


 **********************************************************************************************************************************
 DATASETS  * FILE   NREC   LENGTH (MB)   RECORD NAMES
              1      18       37.12       500      610      700      900      950      970     1000      129      960     1100   
                                          VAR    BASINP    GEOM    SYMINP    ZMAT    AOBASIS   BASIS     P2S    ABASIS      S 
                                         1400     1410     1200     1210     1080     1600     1650     1700   
                                           T        V       H0       H01     AOSYM     SMH    MOLCAS    OPER   

 PROGRAMS   *        TOTAL       INT
 CPU TIMES  *       475.88    475.65
 REAL TIME  *       673.19 SEC
 DISK USED  *        37.64 MB (local),       71.24 GB (total)
 GA USED    *         0.00 MB       (max)       0.00 MB       (current)
 **********************************************************************************************************************************


 PROGRAM * RHF-SCF (CLOSED SHELL)       Authors: W. Meyer, H.-J. Werner


 NUMBER OF ELECTRONS:      10+   10-    SPACE SYMMETRY=1    SPIN SYMMETRY: Singlet 
 CONVERGENCE THRESHOLDS:    1.00E-08 (Density)    1.00E-11 (Energy)
 MAX. NUMBER OF ITERATIONS:       60
 INTERPOLATION TYPE:            DIIS
 INTERPOLATION STEPS:              2 (START)      1 (STEP)
 LEVEL SHIFTS:                  0.00 (CLOSED)  0.00 (OPEN) 



 Orbital guess generated from atomic densities. Full valence occupancy:   16

 Molecular orbital dump at record        2100.2

 Initial occupancy:  10

 ITERATION    DDIFF          GRAD             ENERGY        2-EL.EN.            DIPOLE MOMENTS         DIIS   ORB.
    1      0.000D+00      0.000D+00      -116.22115351    158.949486    0.87180   -0.73694   -0.14815    0    start
    2      0.000D+00      0.378D-02      -116.26520617    154.180812    0.49258   -0.39007   -0.08905    1    diag
    3      0.273D-02      0.220D-02      -116.27849877    156.182786    0.58751   -0.47970   -0.10352    2    diag
    4      0.941D-03      0.332D-03      -116.27915614    156.068793    0.57828   -0.47384   -0.10191    3    diag
    5      0.205D-03      0.971D-04      -116.27922561    156.064158    0.57797   -0.47318   -0.10225    4    diag
    6      0.824D-04      0.238D-04      -116.27922962    156.069772    0.57747   -0.47257   -0.10237    5    diag
    7      0.224D-04      0.492D-05      -116.27922987    156.068096    0.57753   -0.47255   -0.10243    6    diag
    8      0.646D-05      0.126D-05      -116.27922989    156.068276    0.57751   -0.47248   -0.10246    7    diag
    9      0.136D-05      0.286D-06      -116.27922989    156.068245    0.57750   -0.47246   -0.10247    8    diag
   10      0.408D-06      0.359D-07      -116.27922989    156.068247    0.57750   -0.47246   -0.10247    9    orth
   11      0.435D-07      0.963D-08      -116.27922989    156.068248    0.57750   -0.47246   -0.10247    9    diag
   12      0.109D-07      0.277D-08      -116.27922989    156.068247    0.57750   -0.47246   -0.10247    9    diag
   13      0.331D-08      0.734D-09      -116.27922989    156.068248    0.57750   -0.47246   -0.10247    0    orth

 Final occupancy:  10

 !RHF STATE  1.1 Energy              -116.279229893782
 Nuclear energy                        36.79874832
 One-electron energy                 -231.11210208
 Two-electron energy                   78.03412386
 Virial quotient                       -1.00059729
 !RHF STATE  1.1 Dipole moment          0.57750286    -0.47246017    -0.10246682
 Dipole moment /Debye                   1.46776973    -1.20079531    -0.26042761

 Orbital energies:

         1.1          2.1          3.1          4.1          5.1          6.1          7.1          8.1          9.1         10.1
    -20.568430   -11.198114    -1.344261    -0.953146    -0.708954    -0.582770    -0.555191    -0.552760    -0.550497    -0.507804

        11.1         12.1
      0.022638     0.037600


 HOMO     10.1    -0.507804 =     -13.8181eV
 LUMO     11.1     0.022638 =       0.6160eV
 LUMO-HOMO         0.530442 =      14.4341eV


 **********************************************************************************************************************************
 DATASETS  * FILE   NREC   LENGTH (MB)   RECORD NAMES
              1      18       37.12       500      610      700      900      950      970     1000      129      960     1100   
                                          VAR    BASINP    GEOM    SYMINP    ZMAT    AOBASIS   BASIS     P2S    ABASIS      S 
                                         1400     1410     1200     1210     1080     1600     1650     1700   
                                           T        V       H0       H01     AOSYM     SMH    MOLCAS    OPER   

              2       4        6.75       700     1000      520     2100   
                                         GEOM     BASIS   MCVARS     RHF  

 PROGRAMS   *        TOTAL    HF-SCF       INT
 CPU TIMES  *       711.67    235.79    475.65
 REAL TIME  *       931.11 SEC
 DISK USED  *        57.70 MB (local),       71.32 GB (total)
 SF USED    *         0.76 MB
 GA USED    *         0.00 MB       (max)       0.00 MB       (current)
 **********************************************************************************************************************************

 Basis set:  JKFIT                   
 Basis size:  1104
 Attributes:
 Sphericals:   T
 Basis set:  MP2FIT                  
 Basis size:  1246
 Attributes:
 Sphericals:   T
 Basis set:  RI                      
 Basis size:   730
 Attributes:
 Sphericals:   T
 Basis set:  TDDFT                   
 Basis size:  1246
 Attributes:
 Sphericals:   T

 PROGRAM * CCSD (Closed-shell coupled cluster)     Authors: C. Hampel, H.-J. Werner, 1991, M. Deegan, P.J. Knowles, 1992

                                  CCSD-F12 implementation by  H.-J. Werner, 2007

                   Density fitting integral evaluation by F.R. Manby, 2003,2007, G. Knizia, 2010



 Convergence thresholds:  THRVAR = 1.00D-08  THRDEN = 1.00D-10

 CCSD(T)     terms to be evaluated (factor= 1.000)


 Number of core orbitals:           2 (   2 )
 Number of closed-shell orbitals:   8 (   8 )
 Number of external orbitals:     426 ( 426 )

 Molecular orbitals read from record     2100.2  Type=RHF/CANONICAL (state 1.1)

 MP2-F12 correlation treatment (H.-J. Werner, 2006)
 ==================================================

 Using MP2-F12 with ansatz 3C(FIX)

 Using projected zeroth-order Hamiltonian (+Z)

 FOCKRIB=T FOCKRIC=T FOCKRIP=T CABSP=T CABSA=T CABSK=T CABSF=T GBC=F EBC=F DMAT=T NOFIK=T NOPAO=1 SOLVE=-1  USEPAO=0
 EXCH_A= T EXCH_B= F EXCH_C= F EXCH_P= F

 Geminal basis:    OPTFULL  GEM_TYPE=SLATER  BETA=1.0  NGEM=6

 Optimizing Gaussian exponents for each gem_beta

 Geminal optimization for beta= 1.0000
 Weight function:   m=0, omega= 1.4646

 Augmented Hessian optimization of geminal fit. Trust ratio= 0.40000
 Convergence reached after   2 iterations. Final gradient= 7.85D-16, Step= 4.26D-06, Delta= 1.28D-09

 Alpha:                 0.19532     0.81920     2.85917     9.50073    35.69989   197.79328
 Coeff:                 0.27070     0.30552     0.18297     0.10986     0.06810     0.04224


 All pairs explicitly correlated. Number of r12-pairs:           36

 Excluding core orbitals from MO domains

 AO(A)-basis ORBITAL           loaded. Number of functions:     436
 RI(R)-basis RI                loaded. Number of functions:     730
 DF-basis JKFIT                loaded. Number of functions:    1104

 Screening thresholds:   THRAO=  1.00D-10  THRMO=  1.00D-09  THRPROD=  1.00D-09
                         THRSW=  1.00D-05  THROV=  1.00D-12  THRAOF12= 1.00D-10

 CPU time for Fock operators                     12.23 sec

 Construction of ABS:
 Smallest eigenvalue of S          2.24E-04  (threshold= 1.00E-08)
 Ratio eigmin/eigmax               3.89E-05  (threshold= 1.00E-09)
 Smallest eigenvalue of S kept     2.24E-04  (threshold= 2.24E-04, 0 functions deleted, 730 kept)

 Construction of CABS:
 Smallest eigenvalue of S          1.35E-08  (threshold= 1.00E-08)
 Ratio eigmin/eigmax               1.35E-08  (threshold= 1.00E-09)
 Smallest eigenvalue of S kept     1.35E-08  (threshold= 1.35E-08, 0 functions deleted, 730 kept)

 CPU time for CABS singles                        2.22 sec

 CABS-singles contribution of  -0.00053756 patched into reference energy.
 New reference energy        -116.27976745

 AO(A)-basis ORBITAL           loaded. Number of functions:     436
 RI(R)-basis RI                loaded. Number of functions:     730
 DF-basis MP2FIT               loaded. Number of functions:    1246

 Screening thresholds:   THRAO=  1.00D-10  THRMO=  1.00D-09  THRPROD=  1.00D-09
                         THRSW=  1.00D-05  THROV=  1.00D-12  THRAOF12= 1.00D-10

 CPU time for 3-index integral evaluation        19.90 sec
 CPU time for first  half transformation          4.86 sec ( 2687.3 MFLOP/sec)
 CPU time for second half transformation          0.10 sec ( 1622.6 MFLOP/sec)
 CPU time for sorting                             0.19 sec
 CPU time for fitting                             1.84 sec ( 4036.5 MFLOP/sec)
 CPU time for tilde quantities                    2.29 sec ( 4398.6 MFLOP/sec)
 CPU time for assembly                           16.25 sec ( 4364.2 MFLOP/sec)
 CPU time for tranop_f12                         16.01 sec ( 4305.1 MFLOP/sec)
 CPU time for f12 integrals (total)              83.63 sec, Elapsed time:     85.75 sec
 F12-matrices built in  4 passes.
 F12-matrices built in  4 passes.
 F12-matrices built in  4 passes.
 F12-matrices built in  4 passes.
 FC-matrix built in  4 passes.
 CPU time for f12 matrices (total)                6.49 sec, Elapsed time:      6.63 sec

 Diagonal F12 approximation with fixed coefficients:  TSING= 0.500,  TTRIP= 0.250 (scaled by -1/beta)

 DF-MP2-F12 energy corrections:
 ==============================
 Approx.                                    Singlet             Triplet             Total
 DF-MP2-F12/3*C(DX,FIX)                -0.021209323170     -0.002108618146     -0.023317941316
 DF-MP2-F12/3*C(FIX)                   -0.019137207859     -0.001553365437     -0.020690573296
 DF-MP2-F12/3C(FIX)                    -0.019152070318     -0.001605083733     -0.020757154051

 DF-MP2-F12 correlation energies:
 ================================
 Approx.                                    Singlet             Triplet             Ecorr            Total Energy
 DF-MP2                                -0.340758342921     -0.158562173237     -0.499320516158   -116.779087966910
 DF-MP2-F12/3*C(DX,FIX)                -0.361967666090     -0.160670791383     -0.522638457474   -116.802405908226
 DF-MP2-F12/3*C(FIX)                   -0.359895550779     -0.160115538674     -0.520011089454   -116.799778540206
 DF-MP2-F12/3C(FIX)                    -0.359910413239     -0.160167256970     -0.520077670209   -116.799845120961

 SCS-DF-MP2 energies (F_SING= 1.20000  F_TRIP= 0.62222  F_PARALLEL= 0.33333):
 ============================================================================
 SCS-DF-MP2                            -0.507570919297   -116.787338370049
 SCS-DF-MP2-F12/3*C(DX,FIX)            -0.534334136169   -116.814101586921
 SCS-DF-MP2-F12/3*C(FIX)               -0.531502107222   -116.811269557974
 SCS-DF-MP2-F12/3C(FIX)                -0.531552122446   -116.811319573198
 Symmetry transformation completed.

 Number of N-1 electron functions:               8
 Number of N-2 electron functions:              36
 Number of singly external CSFs:              3408
 Number of doubly external CSFs:           5808936
 Total number of CSFs:                     5812345

 Pair and operator lists are different

 Length of J-op  integral file:               0.75 GB
 Length of K-op  integral file:               0.98 GB
 Length of 3-ext integral record:             0.00 MB

 Memory could be reduced to 828.63 Mwords without degradation in triples

 Integral transformation finished. Total CPU: 309.78 sec, npass=  1  Memory used: 389.45 MW

 Reference energy:                   -116.27976745

 Adding F12 terms to K(Cij), methodcc=6,  factor= 1.0

 ITER.      SQ.NORM     CORR.ENERGY   TOTAL ENERGY   ENERGY CHANGE        DEN1      VAR(S)    VAR(P)  DIIS     TIME  TIME/IT
   1      1.13393819    -0.51297105  -116.79273850    -0.01364136    -0.00174090  0.14D-02  0.20D-02  1  1   584.99   163.48
   2      1.14219877    -0.51361861  -116.79338606    -0.00064756    -0.00999893  0.29D-04  0.24D-03  2  2   747.92   164.56
   3      1.14522068    -0.51380816  -116.79357561    -0.00018955    -0.00212081  0.13D-04  0.14D-04  3  3   911.33   165.37
   4      1.14619594    -0.51382652  -116.79359397    -0.00001837    -0.00058082  0.67D-06  0.13D-05  4  4  1075.09   165.67
   5      1.14636578    -0.51382623  -116.79359368     0.00000029    -0.00004075  0.22D-06  0.92D-07  5  5  1238.93   165.76
   6      1.14641066    -0.51382332  -116.79359077     0.00000292    -0.00000641  0.23D-07  0.81D-08  6  6  1403.38   165.91
   7      1.14642289    -0.51382202  -116.79358947     0.00000129    -0.00000369  0.20D-08  0.89D-09  6  1  1566.73   166.05
   8      1.14642463    -0.51382201  -116.79358946     0.00000001     0.00000026  0.40D-09  0.11D-09  6  3  1730.37   166.03
   9      1.14642588    -0.51382194  -116.79358940     0.00000007    -0.00000035  0.33D-10  0.18D-10  6  2  1893.97   166.02
  10      1.14642608    -0.51382194  -116.79358939     0.00000000     0.00000006  0.30D-11  0.22D-11  6  4  2057.81   166.02
  11      1.14642605    -0.51382195  -116.79358940    -0.00000000     0.00000005  0.59D-12  0.31D-12  6  5  2221.73   166.02
  12      1.14642604    -0.51382195  -116.79358940    -0.00000000     0.00000002  0.10D-12  0.37D-13  6  6  2385.71   166.03
  13      1.14642603    -0.51382195  -116.79358940    -0.00000000     0.00000001  0.32D-13  0.90D-14  6  5  2550.20   166.08
  14      1.14642602    -0.51382195  -116.79358940    -0.00000000     0.00000000  0.40D-14  0.11D-14  6  1  2713.52   166.07
  15      1.14642602    -0.51382195  -116.79358940    -0.00000000     0.00000000  0.38D-15  0.17D-15  6  2  2876.96   166.05
  16      1.14642602    -0.51382195  -116.79358940     0.00000000    -0.00000000  0.77D-16  0.21D-16  6  3  3041.70   166.09
  17      1.14642602    -0.51382195  -116.79358940     0.00000000    -0.00000000  0.19D-16  0.43D-17  6  4  3202.67   165.91

 Norm of t1 vector:      0.05003363      S-energy:     0.00000000      T1 diagnostic:  0.00884478
                                                                       D1 diagnostic:  0.01960987

 Adding energy correction from Wij-K(Fij), methodcc=6  factor= 1.0

  CCSD correlation energy              -0.513821948748
  MP2-F12 correction (uncoupled)       -0.020199278554
  C*T doubles correction               -0.000542332006
  f12b correction                       0.004649609323

   CPU time for triples:   1939.11 sec for i =  1 -  7 /  8 (~  68.8 % done)
   CPU time for triples:    935.53 sec for i =  8 -  8 /  8 (  100.0 % done)

 Total CPU time for triples:   2874.74 sec

  Ecorr(MP2)                           -0.499329689832
  Ecorr(MP2-F12)                       -0.520086843883
  Scale factor for triples energy       1.041570037740


 RESULTS
 =======

  Reference energy                   -116.279229893781
  F12 singles correction               -0.000537556971

 F12 singles corrections added to reference energy

  New reference energy               -116.279767450752

  F12a singlet correction              -0.019125576782
  F12a triplet correction              -0.001616033778
  F12a total correction                -0.020741610560

 F12a corrections for ansatz F12/3C(FIX) added to CCSD energy

  CCSD-F12a singlet pair energy        -0.387785994735
  CCSD-F12a triplet pair energy        -0.146777564670
  CCSD-F12a correlation energy         -0.534563559308

  Triples (T) contribution (scaled)    -0.017161342616
  Total correlation energy             -0.551724901924

  CCSD-F12a total energy             -116.814331010060
  CCSD[T]-F12a energy                -116.832059273003
  CCSD-T-F12a energy                 -116.831278277273
 !CCSD(T)-F12a total energy          -116.831492352676

 F12b corrections for ansatz F12/3C(FIX) added to CCSD(T)-F12a energy

  CCSD-F12b singlet pair energy        -0.383351499174
  CCSD-F12b triplet pair energy        -0.146562450908
  CCSD-F12b correlation energy         -0.529913949985

  Triples (T) contribution (scaled)    -0.017161342616
  Total correlation energy             -0.547075292601

  CCSD-F12b total energy             -116.809681400737
  CCSD[T]-F12b energy                -116.827409663680
  CCSD-T-F12b energy                 -116.826628667950
 !CCSD(T)-F12b total energy          -116.826842743353

 Timing summary (sec):

 STEP                 CPU(USER)    SYS     CPU(TOT)    WALL
 Transformation        310.97      7.41    318.38    321.48
 CCSD iterations      2779.67     29.05   2808.72   2820.76
 Triples              2874.74      6.26   2881.00   2885.18
 MP2-F12               112.12      2.68    114.80    115.04
 F12b energy           136.58      1.25    137.83    138.03

 Program statistics:

 Available memory in ccsd:              1999999554
 Min. memory needed in ccsd:              16971337
 Max. memory used in ccsd:                21987113
 Max. memory used in cckext:              15122080 (18 integral passes)



 **********************************************************************************************************************************
 DATASETS  * FILE   NREC   LENGTH (MB)   RECORD NAMES
              1      19     2602.04       500      610      700      900      950      970     1000      129      960     1100   
                                          VAR    BASINP    GEOM    SYMINP    ZMAT    AOBASIS   BASIS     P2S    ABASIS      S 
                                         1400     1410     1200     1210     1080     1600     1650     1700     1380   
                                           T        V       H0       H01     AOSYM     SMH    MOLCAS    OPER     JKOP   

              2       6       10.56       700     1000      520     2100     7360     7350   
                                         GEOM     BASIS   MCVARS     RHF    F12ABS    EF12   

 PROGRAMS   *        TOTAL   CCSD(T)    HF-SCF       INT
 CPU TIMES  *      6926.02   6214.34    235.79    475.65
 REAL TIME  *      7212.44 SEC
 DISK USED  *         3.24 GB (local),       82.17 GB (total)
 SF USED    *         5.12 GB
 GA USED    *         4.87 MB       (max)       0.00 MB       (current)
 **********************************************************************************************************************************

 Running procedure: SET_MONOMER1

 Dummy atoms: C1  H41  H42  H43  H44


 Recomputing one-electron integrals since nuclear charges changed


 PROGRAM * SEWARD (Integral evaluation for generally contracted gaussian basis sets)     Author: Roland Lindh, 1990

 Geometry written to block  1 of record 700


 Point group  C1  



 ATOMIC COORDINATES

 NR  ATOM    CHARGE       X              Y              Z

   1  O18     8.00  -12.011477193    0.742095449    6.107594835
   2  H35     1.00  -11.750694988   -0.413472076    4.697292228
   3  H36     1.00  -10.560734447    0.465061599    7.217053042
   4  C1      0.00   -6.193010455    2.801518980    2.403542658
   5  H41     0.00   -4.656285171    1.699997622    3.119937832
   6  H42     0.00   -5.973046335    4.726205038    2.982932688
   7  H43     0.00   -7.940251230    2.077186956    3.118237078
   8  H44     0.00   -6.176569838    2.685300823    0.384937212

 Bond lengths in Bohr (Angstrom)

 1-2  1.841818967  1-3  1.847241128  4-5  2.021904040  4-6  2.022002335  4-7  2.021953343
     ( 0.974648624)     ( 0.977517908)     ( 1.069945541)     ( 1.069997556)     ( 1.069971630)

 4-8  2.022015060
     ( 1.070004290)

 Bond angles

  2-1-3  104.74973043   5-4-6  109.53398059   5-4-7  109.65604535   5-4-8  108.43490854

  6-4-7  109.49436728   6-4-8  109.86987750   7-4-8  109.83468330

 NUCLEAR CHARGE:                   10
 NUMBER OF PRIMITIVE AOS:         578
 NUMBER OF SYMMETRY AOS:          474
 NUMBER OF CONTRACTIONS:          436   (  436A   )
 NUMBER OF CORE ORBITALS:           1   (    1A   )
 NUMBER OF VALENCE ORBITALS:        6   (    6A   )

 MOLECULE CHANGED: INITIALIZING OCCUPATION AND DUMP RECORDS


 NUCLEAR REPULSION ENERGY    9.01656758

 Basis set:  JKFIT                   
 Basis size:  1104
 Attributes:
 Sphericals:   T
 Basis set:  MP2FIT                  
 Basis size:  1246
 Attributes:
 Sphericals:   T
 Basis set:  RI                      
 Basis size:   730
 Attributes:
 Sphericals:   T
 Basis set:  TDDFT                   
 Basis size:  1246
 Attributes:
 Sphericals:   T

 Eigenvalues of metric

         1 0.106E-04 0.165E-04 0.290E-04 0.334E-04 0.477E-04 0.620E-04 0.893E-04 0.103E-03


 Contracted 2-electron integrals neglected if value below      1.0D-14

 OPERATOR DM      FOR CENTER  0  COORDINATES:    0.000000    0.000000    0.000000


 **********************************************************************************************************************************
 DATASETS  * FILE   NREC   LENGTH (MB)   RECORD NAMES
              1      18       37.12       500      610      700      900      950      970     1000      129      960     1100   
                                          VAR    BASINP    GEOM    SYMINP    ZMAT    AOBASIS   BASIS     P2S    ABASIS      S 
                                         1400     1410     1200     1210     1080     1600     1650     1700   
                                           T        V       H0       H01     AOSYM     SMH    MOLCAS    OPER   

              2       7       10.59       700     1000      520     2100     7360     7350      200   
                                         GEOM     BASIS   MCVARS     RHF    F12ABS    EF12    OPTIONS    

 PROGRAMS   *        TOTAL       INT   CCSD(T)    HF-SCF       INT
 CPU TIMES  *      6926.45      0.42   6214.34    235.79    475.65
 REAL TIME  *      7213.43 SEC
 DISK USED  *         3.24 GB (local),       82.17 GB (total)
 SF USED    *         5.12 GB
 GA USED    *         4.87 MB       (max)       0.00 MB       (current)
 **********************************************************************************************************************************


 PROGRAM * RHF-SCF (CLOSED SHELL)       Authors: W. Meyer, H.-J. Werner


 NUMBER OF ELECTRONS:       5+    5-    SPACE SYMMETRY=1    SPIN SYMMETRY: Singlet 
 CONVERGENCE THRESHOLDS:    1.00E-08 (Density)    1.00E-11 (Energy)
 MAX. NUMBER OF ITERATIONS:       60
 INTERPOLATION TYPE:            DIIS
 INTERPOLATION STEPS:              2 (START)      1 (STEP)
 LEVEL SHIFTS:                  0.00 (CLOSED)  0.00 (OPEN) 



 Orbital guess generated from atomic densities. Full valence occupancy:    7

 Molecular orbital dump at record        2101.2

 Initial occupancy:   5

 ITERATION    DDIFF          GRAD             ENERGY        2-EL.EN.            DIPOLE MOMENTS         DIIS   ORB.
    1      0.000D+00      0.000D+00       -76.02547008     77.431263    0.87672   -0.73321   -0.15324    0    start
    2      0.000D+00      0.467D-02       -76.05230191     73.786391    0.50905   -0.42626   -0.08985    1    diag
    3      0.223D-02      0.297D-02       -76.06381438     75.403661    0.60070   -0.50290   -0.10582    2    diag
    4      0.843D-03      0.278D-03       -76.06400721     75.312413    0.59704   -0.49994   -0.10535    3    diag
    5      0.104D-03      0.775D-04       -76.06402792     75.326766    0.59569   -0.49887   -0.10518    4    diag
    6      0.324D-04      0.153D-04       -76.06402924     75.325756    0.59540   -0.49864   -0.10515    5    diag
    7      0.816D-05      0.310D-05       -76.06402930     75.325902    0.59531   -0.49856   -0.10514    6    diag
    8      0.221D-05      0.582D-06       -76.06402931     75.325887    0.59528   -0.49854   -0.10513    7    diag
    9      0.409D-06      0.767D-07       -76.06402931     75.325879    0.59528   -0.49854   -0.10513    8    diag
   10      0.505D-07      0.170D-07       -76.06402931     75.325882    0.59528   -0.49854   -0.10513    9    orth
   11      0.128D-07      0.295D-08       -76.06402931     75.325881    0.59527   -0.49854   -0.10513    9    diag
   12      0.246D-08      0.477D-09       -76.06402931     75.325881    0.59527   -0.49854   -0.10513    0    orth

 Final occupancy:   5

 !RHF STATE  1.1 Energy               -76.064029306102
 Nuclear energy                         9.01656758
 One-electron energy                 -122.74353759
 Two-electron energy                   37.66294071
 Virial quotient                       -1.00188155
 !RHF STATE  1.1 Dipole moment          0.59527498    -0.49853647    -0.10513262
 Dipole moment /Debye                   1.51293899    -1.26707031    -0.26720296

 Orbital energies:

         1.1          2.1          3.1          4.1          5.1          6.1          7.1
    -20.567880    -1.343151    -0.708009    -0.580896    -0.508892     0.017114     0.035739


 HOMO      5.1    -0.508892 =     -13.8477eV
 LUMO      6.1     0.017114 =       0.4657eV
 LUMO-HOMO         0.526006 =      14.3133eV


 **********************************************************************************************************************************
 DATASETS  * FILE   NREC   LENGTH (MB)   RECORD NAMES
              1      18       37.12       500      610      700      900      950      970     1000      129      960     1100   
                                          VAR    BASINP    GEOM    SYMINP    ZMAT    AOBASIS   BASIS     P2S    ABASIS      S 
                                         1400     1410     1200     1210     1080     1600     1650     1700   
                                           T        V       H0       H01     AOSYM     SMH    MOLCAS    OPER   

              2       8       17.39       700     1000      520     2100     7360     7350      200     2101   
                                         GEOM     BASIS   MCVARS     RHF    F12ABS    EF12    OPTIONS    RHF  

 PROGRAMS   *        TOTAL    HF-SCF       INT   CCSD(T)    HF-SCF       INT
 CPU TIMES  *      7141.19    214.74      0.42   6214.34    235.79    475.65
 REAL TIME  *      7446.26 SEC
 DISK USED  *         3.24 GB (local),       82.17 GB (total)
 SF USED    *         5.12 GB
 GA USED    *         4.87 MB       (max)       0.00 MB       (current)
 **********************************************************************************************************************************

 Basis set:  JKFIT                   
 Basis size:  1104
 Attributes:
 Sphericals:   T
 Basis set:  MP2FIT                  
 Basis size:  1246
 Attributes:
 Sphericals:   T
 Basis set:  RI                      
 Basis size:   730
 Attributes:
 Sphericals:   T
 Basis set:  TDDFT                   
 Basis size:  1246
 Attributes:
 Sphericals:   T

 PROGRAM * CCSD (Closed-shell coupled cluster)     Authors: C. Hampel, H.-J. Werner, 1991, M. Deegan, P.J. Knowles, 1992

                                  CCSD-F12 implementation by  H.-J. Werner, 2007

                   Density fitting integral evaluation by F.R. Manby, 2003,2007, G. Knizia, 2010



 Convergence thresholds:  THRVAR = 1.00D-08  THRDEN = 1.00D-10

 CCSD(T)     terms to be evaluated (factor= 1.000)


 Number of core orbitals:           1 (   1 )
 Number of closed-shell orbitals:   4 (   4 )
 Number of external orbitals:     431 ( 431 )

 Molecular orbitals read from record     2101.2  Type=RHF/CANONICAL (state 1.1)

 MP2-F12 correlation treatment (H.-J. Werner, 2006)
 ==================================================

 Using MP2-F12 with ansatz 3C(FIX)

 Using projected zeroth-order Hamiltonian (+Z)

 FOCKRIB=T FOCKRIC=T FOCKRIP=T CABSP=T CABSA=T CABSK=T CABSF=T GBC=F EBC=F DMAT=T NOFIK=T NOPAO=1 SOLVE=-1  USEPAO=0
 EXCH_A= T EXCH_B= F EXCH_C= F EXCH_P= F

 Geminal basis:    OPTFULL  GEM_TYPE=SLATER  BETA=1.0  NGEM=6

 Optimizing Gaussian exponents for each gem_beta

 Geminal optimization for beta= 1.0000
 Weight function:   m=0, omega= 1.4646

 Augmented Hessian optimization of geminal fit. Trust ratio= 0.40000
 Convergence reached after   2 iterations. Final gradient= 8.31D-16, Step= 4.24D-06, Delta= 1.28D-09

 Alpha:                 0.19532     0.81920     2.85917     9.50073    35.69989   197.79328
 Coeff:                 0.27070     0.30552     0.18297     0.10986     0.06810     0.04224


 All pairs explicitly correlated. Number of r12-pairs:           10

 Excluding core orbitals from MO domains

 AO(A)-basis ORBITAL           loaded. Number of functions:     436
 RI(R)-basis RI                loaded. Number of functions:     730
 DF-basis JKFIT                loaded. Number of functions:    1104

 Screening thresholds:   THRAO=  1.00D-10  THRMO=  1.00D-09  THRPROD=  1.00D-09
                         THRSW=  1.00D-05  THROV=  1.00D-12  THRAOF12= 1.00D-10

 CPU time for Fock operators                     10.22 sec

 Construction of ABS:
 Smallest eigenvalue of S          2.24E-04  (threshold= 1.00E-08)
 Ratio eigmin/eigmax               3.89E-05  (threshold= 1.00E-09)
 Smallest eigenvalue of S kept     2.24E-04  (threshold= 2.24E-04, 0 functions deleted, 730 kept)

 Construction of CABS:
 Smallest eigenvalue of S          1.35E-08  (threshold= 1.00E-08)
 Ratio eigmin/eigmax               1.35E-08  (threshold= 1.00E-09)
 Smallest eigenvalue of S kept     1.35E-08  (threshold= 1.35E-08, 0 functions deleted, 730 kept)

 CPU time for CABS singles                        2.32 sec

 CABS-singles contribution of  -0.00029223 patched into reference energy.
 New reference energy         -76.06432154

 AO(A)-basis ORBITAL           loaded. Number of functions:     436
 RI(R)-basis RI                loaded. Number of functions:     730
 DF-basis MP2FIT               loaded. Number of functions:    1246

 Screening thresholds:   THRAO=  1.00D-10  THRMO=  1.00D-09  THRPROD=  1.00D-09
                         THRSW=  1.00D-05  THROV=  1.00D-12  THRAOF12= 1.00D-10

 CPU time for 3-index integral evaluation        20.11 sec
 CPU time for first  half transformation          3.30 sec ( 1987.5 MFLOP/sec)
 CPU time for second half transformation          0.05 sec (  768.8 MFLOP/sec)
 CPU time for sorting                             0.09 sec
 CPU time for fitting                             1.21 sec ( 4891.1 MFLOP/sec)
 CPU time for tilde quantities                    1.38 sec ( 5280.8 MFLOP/sec)
 CPU time for assembly                            5.16 sec ( 3460.0 MFLOP/sec)
 CPU time for tranop_f12                          5.01 sec ( 3451.8 MFLOP/sec)
 CPU time for f12 integrals (total)              43.59 sec, Elapsed time:     44.46 sec
 F12-matrices built in  4 passes.
 F12-matrices built in  4 passes.
 F12-matrices built in  4 passes.
 F12-matrices built in  4 passes.
 FC-matrix built in  4 passes.
 CPU time for f12 matrices (total)                1.83 sec, Elapsed time:      1.84 sec

 Diagonal F12 approximation with fixed coefficients:  TSING= 0.500,  TTRIP= 0.250 (scaled by -1/beta)

 DF-MP2-F12 energy corrections:
 ==============================
 Approx.                                    Singlet             Triplet             Total
 DF-MP2-F12/3*C(DX,FIX)                -0.013701633527     -0.001529072541     -0.015230706068
 DF-MP2-F12/3*C(FIX)                   -0.012077297381     -0.001074462952     -0.013151760333
 DF-MP2-F12/3C(FIX)                    -0.012062575127     -0.001111855420     -0.013174430547

 DF-MP2-F12 correlation energies:
 ================================
 Approx.                                    Singlet             Triplet             Ecorr            Total Energy
 DF-MP2                                -0.186089264436     -0.101322300566     -0.287411565002    -76.351733100100
 DF-MP2-F12/3*C(DX,FIX)                -0.199790897963     -0.102851373107     -0.302642271070    -76.366963806168
 DF-MP2-F12/3*C(FIX)                   -0.198166561816     -0.102396763518     -0.300563325335    -76.364884860433
 DF-MP2-F12/3C(FIX)                    -0.198151839563     -0.102434155986     -0.300585995549    -76.364907530647

 SCS-DF-MP2 energies (F_SING= 1.20000  F_TRIP= 0.62222  F_PARALLEL= 0.33333):
 ============================================================================
 SCS-DF-MP2                            -0.286352104342    -76.350673639440
 SCS-DF-MP2-F12/3*C(DX,FIX)            -0.303745487489    -76.368067022587
 SCS-DF-MP2-F12/3*C(FIX)               -0.301513415924    -76.365834951022
 SCS-DF-MP2-F12/3C(FIX)                -0.301519015645    -76.365840550743
 Symmetry transformation completed.

 Number of N-1 electron functions:               4
 Number of N-2 electron functions:              10
 Number of singly external CSFs:              1724
 Number of doubly external CSFs:           1486950
 Total number of CSFs:                     1488675

 Pair and operator lists are different

 Length of J-op  integral file:             203.65 MB
 Length of K-op  integral file:             338.08 MB
 Length of 3-ext integral record:             0.00 MB

 Memory could be reduced to 526.20 Mwords without degradation in triples

 Integral transformation finished. Total CPU: 168.43 sec, npass=  1  Memory used: 214.75 MW

 Reference energy:                    -76.06432154

 Adding F12 terms to K(Cij), methodcc=6,  factor= 1.0

 ITER.      SQ.NORM     CORR.ENERGY   TOTAL ENERGY   ENERGY CHANGE        DEN1      VAR(S)    VAR(P)  DIIS     TIME  TIME/IT
   1      1.06336991    -0.28686031   -76.35118184     0.00055518     0.00669059  0.78D-03  0.10D-02  1  1   281.28    50.35
   2      1.06687638    -0.28666292   -76.35098445     0.00019739    -0.00485911  0.13D-04  0.11D-03  2  2   330.96    50.77
   3      1.06808971    -0.28675791   -76.35107945    -0.00009500    -0.00081283  0.97D-05  0.74D-05  3  3   380.60    50.93
   4      1.06863503    -0.28677266   -76.35109420    -0.00001475    -0.00033569  0.53D-06  0.72D-06  4  4   430.38    51.00
   5      1.06873955    -0.28677105   -76.35109258     0.00000162    -0.00002989  0.17D-06  0.56D-07  5  5   480.31    51.09
   6      1.06877232    -0.28676893   -76.35109046     0.00000212    -0.00000393  0.20D-07  0.47D-08  6  6   530.20    51.14
   7      1.06878160    -0.28676832   -76.35108986     0.00000060    -0.00000188  0.15D-08  0.73D-09  6  1   579.98    51.17
   8      1.06878299    -0.28676830   -76.35108984     0.00000002     0.00000019  0.31D-09  0.94D-10  6  3   629.91    51.20
   9      1.06878399    -0.28676825   -76.35108978     0.00000005    -0.00000025  0.21D-10  0.10D-10  6  2   679.94    51.22
  10      1.06878418    -0.28676824   -76.35108977     0.00000001     0.00000001  0.19D-11  0.11D-11  6  4   729.63    51.22
  11      1.06878417    -0.28676824   -76.35108977    -0.00000000     0.00000003  0.45D-12  0.16D-12  6  5   779.36    51.22
  12      1.06878417    -0.28676824   -76.35108977    -0.00000000     0.00000001  0.75D-13  0.23D-13  6  6   828.77    51.19
  13      1.06878416    -0.28676824   -76.35108977    -0.00000000     0.00000000  0.13D-13  0.40D-14  6  1   876.39    51.01
  14      1.06878416    -0.28676824   -76.35108978    -0.00000000     0.00000000  0.19D-14  0.71D-15  6  3   923.07    50.81
  15      1.06878416    -0.28676824   -76.35108978    -0.00000000    -0.00000000  0.17D-15  0.10D-15  6  2   970.03    50.66
  16      1.06878416    -0.28676824   -76.35108978     0.00000000    -0.00000000  0.37D-16  0.16D-16  6  4  1016.84    50.50

 Norm of t1 vector:      0.03663648      S-energy:    -0.00000000      T1 diagnostic:  0.00915912
                                                                       D1 diagnostic:  0.01859558

 Adding energy correction from Wij-K(Fij), methodcc=6  factor= 1.0

  CCSD correlation energy              -0.286768240259
  MP2-F12 correction (uncoupled)       -0.012742435990
  C*T doubles correction               -0.000414650016
  f12b correction                       0.002707589770


 Total CPU time for triples:    451.16 sec

  Ecorr(MP2)                           -0.287415483369
  Ecorr(MP2-F12)                       -0.300589913916
  Scale factor for triples energy       1.045837581166


 RESULTS
 =======

  Reference energy                    -76.064029306101
  F12 singles correction               -0.000292228997

 F12 singles corrections added to reference energy

  New reference energy                -76.064321535098

  F12a singlet correction              -0.012036111049
  F12a triplet correction              -0.001120974957
  F12a total correction                -0.013157086006

 F12a corrections for ansatz F12/3C(FIX) added to CCSD energy

  CCSD-F12a singlet pair energy        -0.209186634391
  CCSD-F12a triplet pair energy        -0.090738691828
  CCSD-F12a correlation energy         -0.299925326265

  Triples (T) contribution (scaled)    -0.009906893477
  Total correlation energy             -0.309832219742

  CCSD-F12a total energy              -76.364246861363
  CCSD[T]-F12a energy                 -76.374478458653
  CCSD-T-F12a energy                  -76.374012897454
 !CCSD(T)-F12a total energy           -76.374153754840

 F12b corrections for ansatz F12/3C(FIX) added to CCSD(T)-F12a energy

  CCSD-F12b singlet pair energy        -0.206625524239
  CCSD-F12b triplet pair energy        -0.090592212210
  CCSD-F12b correlation energy         -0.297217736495

  Triples (T) contribution (scaled)    -0.009906893477
  Total correlation energy             -0.307124629972

  CCSD-F12b total energy              -76.361539271593
  CCSD[T]-F12b energy                 -76.371770868883
  CCSD-T-F12b energy                  -76.371305307684
 !CCSD(T)-F12b total energy           -76.371446165070

 Timing summary (sec):

 STEP                 CPU(USER)    SYS     CPU(TOT)    WALL
 Transformation        168.81      4.03    172.84    173.05
 CCSD iterations       784.69     22.44    807.13    808.23
 Triples               451.16      1.02    452.18    452.81
 MP2-F12                63.43      0.98     64.41     64.48
 F12b energy            43.08      1.37     44.45     44.52

 Program statistics:

 Available memory in ccsd:              1999999871
 Min. memory needed in ccsd:               6763924
 Max. memory used in ccsd:                 7862874
 Max. memory used in cckext:               5171974 (17 integral passes)



 **********************************************************************************************************************************
 DATASETS  * FILE   NREC   LENGTH (MB)   RECORD NAMES
              1      19     1346.98       500      610      700      900      950      970     1000      129      960     1100   
                                          VAR    BASINP    GEOM    SYMINP    ZMAT    AOBASIS   BASIS     P2S    ABASIS      S 
                                         1400     1410     1200     1210     1080     1600     1650     1700     1380   
                                           T        V       H0       H01     AOSYM     SMH    MOLCAS    OPER     JKOP   

              2       8       17.39       700     1000      520     2100     7360     7350      200     2101   
                                         GEOM     BASIS   MCVARS     RHF    F12ABS    EF12    OPTIONS    RHF  

 PROGRAMS   *        TOTAL   CCSD(T)    HF-SCF       INT   CCSD(T)    HF-SCF       INT
 CPU TIMES  *      8652.65   1511.45    214.74      0.42   6214.34    235.79    475.65
 REAL TIME  *      8990.11 SEC
 DISK USED  *         3.24 GB (local),       82.17 GB (total)
 SF USED    *         5.12 GB
 GA USED    *         4.87 MB       (max)       0.00 MB       (current)
 **********************************************************************************************************************************

 Running procedure: SET_MONOMER2

 Dummy atoms: O18  H35  H36


 Recomputing one-electron integrals since nuclear charges changed


 PROGRAM * SEWARD (Integral evaluation for generally contracted gaussian basis sets)     Author: Roland Lindh, 1990

 Geometry written to block  1 of record 700


 Point group  C1  



 ATOMIC COORDINATES

 NR  ATOM    CHARGE       X              Y              Z

   1  O18     0.00  -12.011477193    0.742095449    6.107594835
   2  H35     0.00  -11.750694988   -0.413472076    4.697292228
   3  H36     0.00  -10.560734447    0.465061599    7.217053042
   4  C1      6.00   -6.193010455    2.801518980    2.403542658
   5  H41     1.00   -4.656285171    1.699997622    3.119937832
   6  H42     1.00   -5.973046335    4.726205038    2.982932688
   7  H43     1.00   -7.940251230    2.077186956    3.118237078
   8  H44     1.00   -6.176569838    2.685300823    0.384937212

 Bond lengths in Bohr (Angstrom)

 1-2  1.841818967  1-3  1.847241128  4-5  2.021904040  4-6  2.022002335  4-7  2.021953343
     ( 0.974648624)     ( 0.977517908)     ( 1.069945541)     ( 1.069997556)     ( 1.069971630)

 4-8  2.022015060
     ( 1.070004290)

 Bond angles

  2-1-3  104.74973043   5-4-6  109.53398059   5-4-7  109.65604535   5-4-8  108.43490854

  6-4-7  109.49436728   6-4-8  109.86987750   7-4-8  109.83468330

 NUCLEAR CHARGE:                   10
 NUMBER OF PRIMITIVE AOS:         578
 NUMBER OF SYMMETRY AOS:          474
 NUMBER OF CONTRACTIONS:          436   (  436A   )
 NUMBER OF CORE ORBITALS:           1   (    1A   )
 NUMBER OF VALENCE ORBITALS:        8   (    8A   )

 MOLECULE CHANGED: INITIALIZING OCCUPATION AND DUMP RECORDS


 NUCLEAR REPULSION ENERGY   13.68681606

 Basis set:  JKFIT                   
 Basis size:  1104
 Attributes:
 Sphericals:   T
 Basis set:  MP2FIT                  
 Basis size:  1246
 Attributes:
 Sphericals:   T
 Basis set:  RI                      
 Basis size:   730
 Attributes:
 Sphericals:   T
 Basis set:  TDDFT                   
 Basis size:  1246
 Attributes:
 Sphericals:   T

 Eigenvalues of metric

         1 0.106E-04 0.165E-04 0.290E-04 0.334E-04 0.477E-04 0.620E-04 0.893E-04 0.103E-03


 Contracted 2-electron integrals neglected if value below      1.0D-14

 OPERATOR DM      FOR CENTER  0  COORDINATES:    0.000000    0.000000    0.000000


 **********************************************************************************************************************************
 DATASETS  * FILE   NREC   LENGTH (MB)   RECORD NAMES
              1      18       37.12       500      610      700      900      950      970     1000      129      960     1100   
                                          VAR    BASINP    GEOM    SYMINP    ZMAT    AOBASIS   BASIS     P2S    ABASIS      S 
                                         1400     1410     1200     1210     1080     1600     1650     1700   
                                           T        V       H0       H01     AOSYM     SMH    MOLCAS    OPER   

              2       8       17.39       700     1000      520     2100     7360     7350      200     2101   
                                         GEOM     BASIS   MCVARS     RHF    F12ABS    EF12    OPTIONS    RHF  

 PROGRAMS   *        TOTAL       INT   CCSD(T)    HF-SCF       INT   CCSD(T)    HF-SCF       INT
 CPU TIMES  *      8653.07      0.41   1511.45    214.74      0.42   6214.34    235.79    475.65
 REAL TIME  *      8990.95 SEC
 DISK USED  *         3.24 GB (local),       82.17 GB (total)
 SF USED    *         5.12 GB
 GA USED    *         4.87 MB       (max)       0.00 MB       (current)
 **********************************************************************************************************************************


 PROGRAM * RHF-SCF (CLOSED SHELL)       Authors: W. Meyer, H.-J. Werner


 NUMBER OF ELECTRONS:       5+    5-    SPACE SYMMETRY=1    SPIN SYMMETRY: Singlet 
 CONVERGENCE THRESHOLDS:    1.00E-08 (Density)    1.00E-11 (Energy)
 MAX. NUMBER OF ITERATIONS:       60
 INTERPOLATION TYPE:            DIIS
 INTERPOLATION STEPS:              2 (START)      1 (STEP)
 LEVEL SHIFTS:                  0.00 (CLOSED)  0.00 (OPEN) 



 Orbital guess generated from atomic densities. Full valence occupancy:    9

 Molecular orbital dump at record        2102.2

 Initial occupancy:   5

 ITERATION    DDIFF          GRAD             ENERGY        2-EL.EN.            DIPOLE MOMENTS         DIIS   ORB.
    1      0.000D+00      0.000D+00       -40.19609618     53.506301    0.00411   -0.00276   -0.00131    0    start
    2      0.000D+00      0.257D-02       -40.21335037     52.217632    0.00129   -0.00087   -0.00039    1    diag
    3      0.159D-02      0.998D-03       -40.21562631     52.672093    0.00182   -0.00123   -0.00056    2    diag
    4      0.442D-03      0.249D-03       -40.21594577     52.617280    0.00162   -0.00110   -0.00049    3    diag
    5      0.169D-03      0.322D-04       -40.21595126     52.619428    0.00159   -0.00108   -0.00048    4    diag
    6      0.419D-04      0.264D-05       -40.21595130     52.619564    0.00159   -0.00108   -0.00048    5    diag
    7      0.552D-05      0.212D-06       -40.21595130     52.619525    0.00159   -0.00108   -0.00048    6    diag
    8      0.242D-06      0.170D-07       -40.21595130     52.619526    0.00159   -0.00108   -0.00048    7    diag
    9      0.833D-07      0.217D-08       -40.21595130     52.619526    0.00159   -0.00108   -0.00048    8    diag
   10      0.823D-08      0.594D-09       -40.21595130     52.619526    0.00159   -0.00108   -0.00048    0    orth

 Final occupancy:   5

 !RHF STATE  1.1 Energy               -40.215951302907
 Nuclear energy                        13.68681606
 One-electron energy                  -80.21253049
 Two-electron energy                   26.30976313
 Virial quotient                       -0.99838105
 !RHF STATE  1.1 Dipole moment          0.00159093    -0.00107961    -0.00048133
 Dipole moment /Debye                   0.00404347    -0.00274392    -0.00122333

 Orbital energies:

         1.1          2.1          3.1          4.1          5.1          6.1          7.1
    -11.196223    -0.950661    -0.551889    -0.549954    -0.547776     0.024084     0.038841


 HOMO      5.1    -0.547776 =     -14.9057eV
 LUMO      6.1     0.024084 =       0.6554eV
 LUMO-HOMO         0.571860 =      15.5611eV


 **********************************************************************************************************************************
 DATASETS  * FILE   NREC   LENGTH (MB)   RECORD NAMES
              1      18       37.12       500      610      700      900      950      970     1000      129      960     1100   
                                          VAR    BASINP    GEOM    SYMINP    ZMAT    AOBASIS   BASIS     P2S    ABASIS      S 
                                         1400     1410     1200     1210     1080     1600     1650     1700   
                                           T        V       H0       H01     AOSYM     SMH    MOLCAS    OPER   

              2       9       27.51       700     1000      520     2100     7360     7350      200     2101     2102   
                                         GEOM     BASIS   MCVARS     RHF    F12ABS    EF12    OPTIONS    RHF      RHF  

 PROGRAMS   *        TOTAL    HF-SCF       INT   CCSD(T)    HF-SCF       INT   CCSD(T)    HF-SCF       INT
 CPU TIMES  *      8832.37    179.30      0.41   1511.45    214.74      0.42   6214.34    235.79    475.65
 REAL TIME  *      9185.43 SEC
 DISK USED  *         3.24 GB (local),       82.17 GB (total)
 SF USED    *         5.12 GB
 GA USED    *         4.87 MB       (max)       0.00 MB       (current)
 **********************************************************************************************************************************

 Basis set:  JKFIT                   
 Basis size:  1104
 Attributes:
 Sphericals:   T
 Basis set:  MP2FIT                  
 Basis size:  1246
 Attributes:
 Sphericals:   T
 Basis set:  RI                      
 Basis size:   730
 Attributes:
 Sphericals:   T
 Basis set:  TDDFT                   
 Basis size:  1246
 Attributes:
 Sphericals:   T

 PROGRAM * CCSD (Closed-shell coupled cluster)     Authors: C. Hampel, H.-J. Werner, 1991, M. Deegan, P.J. Knowles, 1992

                                  CCSD-F12 implementation by  H.-J. Werner, 2007

                   Density fitting integral evaluation by F.R. Manby, 2003,2007, G. Knizia, 2010



 Convergence thresholds:  THRVAR = 1.00D-08  THRDEN = 1.00D-10

 CCSD(T)     terms to be evaluated (factor= 1.000)


 Number of core orbitals:           1 (   1 )
 Number of closed-shell orbitals:   4 (   4 )
 Number of external orbitals:     431 ( 431 )

 Molecular orbitals read from record     2102.2  Type=RHF/CANONICAL (state 1.1)

 MP2-F12 correlation treatment (H.-J. Werner, 2006)
 ==================================================

 Using MP2-F12 with ansatz 3C(FIX)

 Using projected zeroth-order Hamiltonian (+Z)

 FOCKRIB=T FOCKRIC=T FOCKRIP=T CABSP=T CABSA=T CABSK=T CABSF=T GBC=F EBC=F DMAT=T NOFIK=T NOPAO=1 SOLVE=-1  USEPAO=0
 EXCH_A= T EXCH_B= F EXCH_C= F EXCH_P= F

 Geminal basis:    OPTFULL  GEM_TYPE=SLATER  BETA=1.0  NGEM=6

 Optimizing Gaussian exponents for each gem_beta

 Geminal optimization for beta= 1.0000
 Weight function:   m=0, omega= 1.4646

 Augmented Hessian optimization of geminal fit. Trust ratio= 0.40000
 Convergence reached after   2 iterations. Final gradient= 7.85D-16, Step= 4.26D-06, Delta= 1.28D-09

 Alpha:                 0.19532     0.81920     2.85917     9.50073    35.69989   197.79328
 Coeff:                 0.27070     0.30552     0.18297     0.10986     0.06810     0.04224


 All pairs explicitly correlated. Number of r12-pairs:           10

 Excluding core orbitals from MO domains

 AO(A)-basis ORBITAL           loaded. Number of functions:     436
 RI(R)-basis RI                loaded. Number of functions:     730
 DF-basis JKFIT                loaded. Number of functions:    1104

 Screening thresholds:   THRAO=  1.00D-10  THRMO=  1.00D-09  THRPROD=  1.00D-09
                         THRSW=  1.00D-05  THROV=  1.00D-12  THRAOF12= 1.00D-10

 CPU time for Fock operators                     10.48 sec

 Construction of ABS:
 Smallest eigenvalue of S          2.24E-04  (threshold= 1.00E-08)
 Ratio eigmin/eigmax               3.89E-05  (threshold= 1.00E-09)
 Smallest eigenvalue of S kept     2.24E-04  (threshold= 2.24E-04, 0 functions deleted, 730 kept)

 Construction of CABS:
 Smallest eigenvalue of S          1.35E-08  (threshold= 1.00E-08)
 Ratio eigmin/eigmax               1.35E-08  (threshold= 1.00E-09)
 Smallest eigenvalue of S kept     1.35E-08  (threshold= 1.35E-08, 0 functions deleted, 730 kept)

 CPU time for CABS singles                        2.30 sec

 CABS-singles contribution of  -0.00024536 patched into reference energy.
 New reference energy         -40.21619666

 AO(A)-basis ORBITAL           loaded. Number of functions:     436
 RI(R)-basis RI                loaded. Number of functions:     730
 DF-basis MP2FIT               loaded. Number of functions:    1246

 Screening thresholds:   THRAO=  1.00D-10  THRMO=  1.00D-09  THRPROD=  1.00D-09
                         THRSW=  1.00D-05  THROV=  1.00D-12  THRAOF12= 1.00D-10

 CPU time for 3-index integral evaluation        20.12 sec
 CPU time for first  half transformation          3.31 sec ( 1981.0 MFLOP/sec)
 CPU time for second half transformation          0.03 sec ( 1281.3 MFLOP/sec)
 CPU time for sorting                             0.09 sec
 CPU time for fitting                             1.58 sec (  896.1 MFLOP/sec)
 CPU time for tilde quantities                    1.44 sec ( 5039.2 MFLOP/sec)
 CPU time for assembly                            4.73 sec ( 3774.5 MFLOP/sec)
 CPU time for tranop_f12                          4.67 sec ( 3823.7 MFLOP/sec)
 CPU time for f12 integrals (total)              43.41 sec, Elapsed time:     44.31 sec
 F12-matrices built in  4 passes.
 F12-matrices built in  4 passes.
 F12-matrices built in  4 passes.
 F12-matrices built in  4 passes.
 FC-matrix built in  4 passes.
 CPU time for f12 matrices (total)                1.60 sec, Elapsed time:      1.63 sec

 Diagonal F12 approximation with fixed coefficients:  TSING= 0.500,  TTRIP= 0.250 (scaled by -1/beta)

 DF-MP2-F12 energy corrections:
 ==============================
 Approx.                                    Singlet             Triplet             Total
 DF-MP2-F12/3*C(DX,FIX)                -0.007487091679     -0.000574097110     -0.008061188789
 DF-MP2-F12/3*C(FIX)                   -0.007040015989     -0.000472728568     -0.007512744557
 DF-MP2-F12/3C(FIX)                    -0.007069210832     -0.000486350558     -0.007555561391

 DF-MP2-F12 correlation energies:
 ================================
 Approx.                                    Singlet             Triplet             Ecorr            Total Energy
 DF-MP2                                -0.154429976054     -0.056464835952     -0.210894812006    -40.427091470034
 DF-MP2-F12/3*C(DX,FIX)                -0.161917067733     -0.057038933062     -0.218956000795    -40.435152658823
 DF-MP2-F12/3*C(FIX)                   -0.161469992044     -0.056937564519     -0.218407556563    -40.434604214591
 DF-MP2-F12/3C(FIX)                    -0.161499186887     -0.056951186510     -0.218450373397    -40.434647031425

 SCS-DF-MP2 energies (F_SING= 1.20000  F_TRIP= 0.62222  F_PARALLEL= 0.33333):
 ============================================================================
 SCS-DF-MP2                            -0.220449646969    -40.436646304996
 SCS-DF-MP2-F12/3*C(DX,FIX)            -0.229791372963    -40.445988030991
 SCS-DF-MP2-F12/3*C(FIX)               -0.229191808376    -40.445388466403
 SCS-DF-MP2-F12/3C(FIX)                -0.229235318093    -40.445431976121
 Symmetry transformation completed.

 Number of N-1 electron functions:               4
 Number of N-2 electron functions:              10
 Number of singly external CSFs:              1724
 Number of doubly external CSFs:           1486950
 Total number of CSFs:                     1488675

 Pair and operator lists are different

 Length of J-op  integral file:             203.65 MB
 Length of K-op  integral file:             338.08 MB
 Length of 3-ext integral record:             0.00 MB

 Memory could be reduced to 526.20 Mwords without degradation in triples

 Integral transformation finished. Total CPU: 167.73 sec, npass=  1  Memory used: 214.75 MW

 Reference energy:                    -40.21619666

 Adding F12 terms to K(Cij), methodcc=6,  factor= 1.0

 ITER.      SQ.NORM     CORR.ENERGY   TOTAL ENERGY   ENERGY CHANGE        DEN1      VAR(S)    VAR(P)  DIIS     TIME  TIME/IT
   1      1.07024152    -0.22512733   -40.44132398    -0.01422721    -0.00847265  0.63D-03  0.94D-03  1  1   279.90    50.10
   2      1.07517194    -0.22597786   -40.44217452    -0.00085053    -0.00530359  0.15D-04  0.10D-03  2  2   329.44    50.58
   3      1.07679527    -0.22606565   -40.44226230    -0.00008779    -0.00117809  0.22D-05  0.60D-05  3  3   379.13    50.71
   4      1.07717830    -0.22607292   -40.44226958    -0.00000727    -0.00020557  0.14D-06  0.33D-06  4  4   428.66    50.76
   5      1.07723040    -0.22607455   -40.44227121    -0.00000163    -0.00000897  0.11D-07  0.21D-07  5  5   478.05    50.78
   6      1.07723899    -0.22607326   -40.44226992     0.00000128    -0.00000325  0.79D-09  0.16D-08  6  6   527.50    50.81
   7      1.07724036    -0.22607293   -40.44226959     0.00000033    -0.00000086  0.52D-10  0.12D-09  6  1   576.58    50.79
   8      1.07724034    -0.22607300   -40.44226966    -0.00000007     0.00000020  0.55D-11  0.76D-11  6  3   625.95    50.78
   9      1.07724048    -0.22607298   -40.44226964     0.00000002    -0.00000009  0.42D-12  0.61D-12  6  2   675.29    50.77
  10      1.07724048    -0.22607298   -40.44226964     0.00000000     0.00000001  0.52D-13  0.60D-13  6  4   723.74    50.68
  11      1.07724048    -0.22607298   -40.44226964     0.00000000     0.00000000  0.48D-14  0.60D-14  6  5   770.65    50.46
  12      1.07724048    -0.22607298   -40.44226964     0.00000000     0.00000000  0.12D-15  0.66D-15  6  6   817.62    50.29
  13      1.07724048    -0.22607298   -40.44226964    -0.00000000     0.00000000  0.81D-17  0.69D-16  6  1   864.07    50.10
  14      1.07724048    -0.22607298   -40.44226964    -0.00000000     0.00000000  0.11D-17  0.84D-17  6  3   911.07    49.98

 Norm of t1 vector:      0.03291624      S-energy:    -0.00000000      T1 diagnostic:  0.00822906
                                                                       D1 diagnostic:  0.01319198

 Adding energy correction from Wij-K(Fij), methodcc=6  factor= 1.0

  CCSD correlation energy              -0.226072979151
  MP2-F12 correction (uncoupled)       -0.007432304304
  C*T doubles correction               -0.000126183144
  f12b correction                       0.001935102555

 Total CPU time for triples:    421.91 sec

  Ecorr(MP2)                           -0.210900116179
  Ecorr(MP2-F12)                       -0.218455677570
  Scale factor for triples energy       1.035825306917


 RESULTS
 =======

  Reference energy                    -40.215951302906
  F12 singles correction               -0.000245355122

 F12 singles corrections added to reference energy

  New reference energy                -40.216196658028

  F12a singlet correction              -0.007069776161
  F12a triplet correction              -0.000488711288
  F12a total correction                -0.007558487449

 F12a corrections for ansatz F12/3C(FIX) added to CCSD energy

  CCSD-F12a singlet pair energy        -0.178450354406
  CCSD-F12a triplet pair energy        -0.055181112188
  CCSD-F12a correlation energy         -0.233631466599

  Triples (T) contribution (scaled)    -0.007053462790
  Total correlation energy             -0.240684929390

  CCSD-F12a total energy              -40.449828124627
  CCSD[T]-F12a energy                 -40.457118100882
  CCSD-T-F12a energy                  -40.456811744726
 !CCSD(T)-F12a total energy           -40.456881587418

 F12b corrections for ansatz F12/3C(FIX) added to CCSD(T)-F12a energy

  CCSD-F12b singlet pair energy        -0.176582731269
  CCSD-F12b triplet pair energy        -0.055113632771
  CCSD-F12b correlation energy         -0.231696364045

  Triples (T) contribution (scaled)    -0.007053462790
  Total correlation energy             -0.238749826835

  CCSD-F12b total energy              -40.447893022073
  CCSD[T]-F12b energy                 -40.455182998328
  CCSD-T-F12b energy                  -40.454876642172
 !CCSD(T)-F12b total energy           -40.454946484863

 Timing summary (sec):

 STEP                 CPU(USER)    SYS     CPU(TOT)    WALL
 Transformation        168.10      3.90    172.00    172.22
 CCSD iterations       680.00     18.92    698.92    699.87
 Triples               421.91      0.84    422.75    423.25
 MP2-F12                63.06      1.14     64.20     64.31
 F12b energy            42.83      1.23     44.06     44.13

 Program statistics:

 Available memory in ccsd:              1999999866
 Min. memory needed in ccsd:               6763924
 Max. memory used in ccsd:                 7862874
 Max. memory used in cckext:               5171974 (15 integral passes)



 **********************************************************************************************************************************
 DATASETS  * FILE   NREC   LENGTH (MB)   RECORD NAMES
              1      19     1346.98       500      610      700      900      950      970     1000      129      960     1100   
                                          VAR    BASINP    GEOM    SYMINP    ZMAT    AOBASIS   BASIS     P2S    ABASIS      S 
                                         1400     1410     1200     1210     1080     1600     1650     1700     1380   
                                           T        V       H0       H01     AOSYM     SMH    MOLCAS    OPER     JKOP   

              2       9       27.51       700     1000      520     2100     7360     7350      200     2101     2102   
                                         GEOM     BASIS   MCVARS     RHF    F12ABS    EF12    OPTIONS    RHF      RHF  

 PROGRAMS   *        TOTAL   CCSD(T)    HF-SCF       INT   CCSD(T)    HF-SCF       INT   CCSD(T)    HF-SCF       INT
 CPU TIMES  *     10208.55   1376.17    179.30      0.41   1511.45    214.74      0.42   6214.34    235.79    475.65
 REAL TIME  *     10589.95 SEC
 DISK USED  *         3.24 GB (local),       82.17 GB (total)
 SF USED    *         5.12 GB
 GA USED    *         4.87 MB       (max)       0.00 MB       (current)
 **********************************************************************************************************************************
 Molecular orbitals read from record     2102.2  Type=RHF/CANONICAL (state 1.1)
 Occupation numbers read from record     2102.2  Type=RHF/RHF (state 1.1)
 Orbital energies read from record       2102.2  Type=RHF/CANONICAL (state 1.1)
 Redundancy group numbers read from rec  2102.2  Type=RHF/RHF (state 1.1)

 CCSD(T)-F12/aug-cc-pVQZ energy=    -40.454946484863

     CCSD(T)-F12          HF-SCF     CCSD(T)-F12          HF-SCF     CCSD(T)-F12          HF-SCF
    -40.45494648    -40.21595130    -76.37144617    -76.06402931   -116.82684274   -116.27922989
 **********************************************************************************************************************************
 Molpro calculation terminated
