
 Primary working directories    : /scratch/klimes/383253/molpro.DZtfij2owk
 Secondary working directories  : /scratch/klimes/383253/molpro.DZtfij2owk
 Wavefunction directory         : /scratch/klimes/383253/
 Main file repository           : /scratch/klimes/383253/molpro.DZtfij2owk/

 id        : karlovklimes

 Nodes                      nprocs
 nc-07.cc.karlov.mff.cuni.cz    4

 Using customized tuning parameters: mindgm=1; mindgv=20; mindgc=4; mindgr=1; noblas=0; minvec=7
 default implementation of scratch files=sf  


 Variables initialized (930), CPU time= 0.01 sec
                                                                                 !gdirect
 memory,2000,m
 gthresh,orbital=1d-10,energy=1d-10,grid=1d-8
 
 symmetry,nosym
 angstrom
 geometry={
 O19        -6.574800000000      3.149500000000     -0.152800000000
 H37        -7.467300000000      3.443900000000     -0.376700000000
 H38        -6.567400000000      3.105000000000      0.858500000000
 C1        -3.277200000000      1.482500000000      1.271900000000
 H41        -2.464000000000      0.899600000000      1.651000000000
 H42        -3.160800000000      2.501000000000      1.578500000000
 H43        -4.201800000000      1.099200000000      1.650100000000
 H44        -3.268500000000      1.421000000000      0.203700000000
 }
 
 nkerna=1
 nkernb=1
 
 gf=0
 sing=1
 thrdum=1d-4
 gridthr=1d-8
 
 basis={
 set,orbital
 default,avqz
 set,jkfit
 default,av5z/jkfit
 set,mp2fit
 default,av5z/mp2fit
 set,ri
 default,av5z/optri
 set,tddft
 default,av5z/mp2fit
 }
 
 proc set_monomer1
 dummy,4,5,6,7,8
 endproc
 
 proc set_monomer2
 dummy,1,2,3
 endproc
 
                                                                                 !12 energy
 {hf,accu=1.d-16}
 {ccsd(t)-f12,df_basis=mp2fit,df_basis_exch=jkfit,ri_basis=ri,scale_trip=1,THRAOF12=1d-10}
 
 set_monomer1
 {hf,accu=1.d-16}
 {ccsd(t)-f12,df_basis=mp2fit,df_basis_exch=jkfit,ri_basis=ri,scale_trip=1,THRAOF12=1d-10}
 
 set_monomer2
 {hf,accu=1.d-16}
 {ccsd(t)-f12,df_basis=mp2fit,df_basis_exch=jkfit,ri_basis=ri,scale_trip=1,THRAOF12=1d-10}
 
 Commands  initialized (760), CPU time= 0.01 sec, 617 directives.
 Default parameters read. Elapsed time= 0.22 sec

 Checking input...
 Passed
1


                                         ***  PROGRAM SYSTEM MOLPRO  ***
                                       Copyright, TTI GmbH Stuttgart, 2015
                                    Version 2019.1 linked Jan 14 2019 13:09:19


 **********************************************************************************************************************************
 LABEL *                                                                                 
  64 bit mpp version                                                                     DATE: 11-Mar-20          TIME: 18:08:25  
 **********************************************************************************************************************************

 SHA1:             d688ac825633d238f2093ded1675ba87ccd55965
 **********************************************************************************************************************************

 THRESHOLDS:

 ZERO    =  1.00D-12  ONEINT  =  1.00D-12  TWOINT  =  1.00D-11  PREFAC  =  1.00D-14  XXXXXX  =  1.00D-09  EORDER  =  1.00D-04
 ENERGY  =  1.00D-10  ETEST   =  0.00D+00  EDENS   =  0.00D+00  THRDEDEF=  1.00D-06  GRADIENT=  1.00D-02  STEP    =  1.00D-03
 ORBITAL =  1.00D-10  CIVEC   =  1.00D-05  COEFF   =  1.00D-04  PRINTCI =  5.00D-02  PUNCHCI =  9.90D+01  OPTGRAD =  3.00D-04
 OPTENERG=  1.00D-06  OPTSTEP =  3.00D-04  THRGRAD =  1.00D-10  COMPRESS=  1.00D-11  VARMIN  =  1.00D-07  VARMAX  =  1.00D-03
 THRDOUB =  0.00D+00  THRDIV  =  1.00D-05  THRRED  =  1.00D-07  THRPSP  =  1.00D+00  THRDC   =  1.00D-10  THRCS   =  1.00D-10
 THRNRM  =  1.00D-08  THREQ   =  0.00D+00  THRDE   =  1.00D+00  THRREF  =  1.00D-05  SPARFAC =  1.00D+00  THRDLP  =  1.00D-07
 THRDIA  =  1.00D-10  THRDLS  =  1.00D-07  THRGPS  =  0.00D+00  THRKEX  =  0.00D+00  THRDIS  =  2.00D-01  THRVAR  =  1.00D-10
 THRLOC  =  1.00D-06  THRGAP  =  1.00D-06  THRLOCT = -1.00D+00  THRGAPT = -1.00D+00  THRORB  =  1.00D-06  THRMLTP =  0.00D+00
 THRCPQCI=  1.00D-10  KEXTA   =  0.00D+00  THRCOARS=  0.00D+00  SYMTOL  =  1.00D-06  GRADTOL =  1.00D-06  THROVL  =  1.00D-08
 THRORTH =  1.00D-08  GRID    =  1.00D-08  GRIDMAX =  1.00D-03  DTMAX   =  0.00D+00  THROCCDE=  1.00D-01  THROCCDE=  1.00D-01
 THRPRINT=  2.50D-01


 Variable memory set to 2000000000 words,  buffer space 

 ZSYMEL=NOSYM
 ZUNIT=ANG


Geometry recognized as XYZ

 SETTING NKERNA         =         1.00000000                                  
 SETTING NKERNB         =         1.00000000                                  
 SETTING GF             =     0.00000000D+00                                  
 SETTING SING           =         1.00000000                                  
 SETTING THRDUM         =     1.00000000D-04                                  
 SETTING GRIDTHR        =     1.00000000D-08                                  
 SETTING BASIS          =    AVQZ


 Recomputing integrals since basis changed


 Using spherical harmonics

 Library entry O      S aug-cc-pVQZ          selected for orbital group  1
 Library entry O      P aug-cc-pVQZ          selected for orbital group  1
 Library entry O      D aug-cc-pVQZ          selected for orbital group  1
 Library entry O      F aug-cc-pVQZ          selected for orbital group  1
 Library entry O      G aug-cc-pVQZ          selected for orbital group  1
 Library entry H      S aug-cc-pVQZ          selected for orbital group  2
 Library entry H      P aug-cc-pVQZ          selected for orbital group  2
 Library entry H      D aug-cc-pVQZ          selected for orbital group  2
 Library entry H      F aug-cc-pVQZ          selected for orbital group  2
 Library entry C      S aug-cc-pVQZ          selected for orbital group  3
 Library entry C      P aug-cc-pVQZ          selected for orbital group  3
 Library entry C      D aug-cc-pVQZ          selected for orbital group  3
 Library entry C      F aug-cc-pVQZ          selected for orbital group  3
 Library entry C      G aug-cc-pVQZ          selected for orbital group  3


 PROGRAM * SEWARD (Integral evaluation for generally contracted gaussian basis sets)     Author: Roland Lindh, 1990

 Geometry written to block  1 of record 700


 Point group  C1  



 ATOMIC COORDINATES

 NR  ATOM    CHARGE       X              Y              Z

   1  O19     8.00  -12.424571324    5.951692429   -0.288750152
   2  H37     1.00  -14.111151890    6.508027800   -0.711859831
   3  H38     1.00  -12.410587350    5.867599617    1.622329878
   4  C1      6.00   -6.193010455    2.801518980    2.403542658
   5  H41     1.00   -4.656285171    1.699997622    3.119937832
   6  H42     1.00   -5.973046335    4.726205038    2.982932688
   7  H43     1.00   -7.940251230    2.077186956    3.118237078
   8  H44     1.00   -6.176569838    2.685300823    0.384937212

 Bond lengths in Bohr (Angstrom)

 1-2  1.825673808  1-3  1.912980406  4-5  2.021904040  4-6  2.022002335  4-7  2.021953343
     ( 0.966104974)     ( 1.012305636)     ( 1.069945541)     ( 1.069997556)     ( 1.069971630)

 4-8  2.022015060
     ( 1.070004290)

 Bond angles

  2-1-3  104.57658282   5-4-6  109.53398059   5-4-7  109.65604535   5-4-8  108.43490854

  6-4-7  109.49436728   6-4-8  109.86987750   7-4-8  109.83468330

 NUCLEAR CHARGE:                   20
 NUMBER OF PRIMITIVE AOS:         578
 NUMBER OF SYMMETRY AOS:          474
 NUMBER OF CONTRACTIONS:          436   (  436A   )
 NUMBER OF CORE ORBITALS:           2   (    2A   )
 NUMBER OF VALENCE ORBITALS:       14   (   14A   )


 NUCLEAR REPULSION ENERGY   35.73898765


 Basis set:  JKFIT                   
 Basis size:  1104
 Attributes:
 Sphericals:   T
 Basis set:  MP2FIT                  
 Basis size:  1246
 Attributes:
 Sphericals:   T
 Basis set:  RI                      
 Basis size:   730
 Attributes:
 Sphericals:   T
 Basis set:  TDDFT                   
 Basis size:  1246
 Attributes:
 Sphericals:   T

 **********************************************************************************************************************************


 Eigenvalues of metric

         1 0.149E-04 0.190E-04 0.365E-04 0.380E-04 0.631E-04 0.890E-04 0.923E-04 0.953E-04


 Contracted 2-electron integrals neglected if value below      1.0D-14
 AO integral compression algorithm  1   Integral accuracy      1.0D-14

     21735.932 MB (compressed) written to integral file ( 54.2%)

     Node minimum: 4911.006 MB, node maximum: 6129.975 MB


 NUMBER OF SORTED TWO-ELECTRON INTEGRALS: 1134451344.     BUFFER LENGTH:  32768
 NUMBER OF SEGMENTS:  36  SEGMENT LENGTH:   31999984      RECORD LENGTH: 524288

 Memory used in sort:      32.56 MW

 SORT1 READ  5012305700. AND WROTE   926695835. INTEGRALS IN   2668 RECORDS. CPU TIME:   257.90 SEC, REAL TIME:   323.63 SEC
 SORT2 READ  3705088815. AND WROTE  4537853011. INTEGRALS IN  93536 RECORDS. CPU TIME:    18.74 SEC, REAL TIME:   109.94 SEC

 Node minimum:  1134427528.  Node maximum:  1134498978. integrals

 OPERATOR DM      FOR CENTER  0  COORDINATES:    0.000000    0.000000    0.000000


 **********************************************************************************************************************************
 DATASETS  * FILE   NREC   LENGTH (MB)   RECORD NAMES
              1      18       37.12       500      610      700      900      950      970     1000      129      960     1100   
                                          VAR    BASINP    GEOM    SYMINP    ZMAT    AOBASIS   BASIS     P2S    ABASIS      S 
                                         1400     1410     1200     1210     1080     1600     1650     1700   
                                           T        V       H0       H01     AOSYM     SMH    MOLCAS    OPER   

 PROGRAMS   *        TOTAL       INT
 CPU TIMES  *       339.51    339.28
 REAL TIME  *       537.83 SEC
 DISK USED  *        37.64 MB (local),       66.19 GB (total)
 GA USED    *         0.00 MB       (max)       0.00 MB       (current)
 **********************************************************************************************************************************


 PROGRAM * RHF-SCF (CLOSED SHELL)       Authors: W. Meyer, H.-J. Werner


 NUMBER OF ELECTRONS:      10+   10-    SPACE SYMMETRY=1    SPIN SYMMETRY: Singlet 
 CONVERGENCE THRESHOLDS:    1.00E-08 (Density)    1.00E-11 (Energy)
 MAX. NUMBER OF ITERATIONS:       60
 INTERPOLATION TYPE:            DIIS
 INTERPOLATION STEPS:              2 (START)      1 (STEP)
 LEVEL SHIFTS:                  0.00 (CLOSED)  0.00 (OPEN) 



 Orbital guess generated from atomic densities. Full valence occupancy:   16

 Molecular orbital dump at record        2100.2

 Initial occupancy:  10

 ITERATION    DDIFF          GRAD             ENERGY        2-EL.EN.            DIPOLE MOMENTS         DIIS   ORB.
    1      0.000D+00      0.000D+00      -116.21762675    157.248652   -0.84406    0.23582    0.77341    0    start
    2      0.000D+00      0.380D-02      -116.26197219    152.156906   -0.49389    0.14423    0.38811    1    diag
    3      0.274D-02      0.227D-02      -116.27613129    154.275905   -0.58596    0.16780    0.48480    2    diag
    4      0.965D-03      0.333D-03      -116.27680210    154.162415   -0.57892    0.16571    0.47509    3    diag
    5      0.204D-03      0.989D-04      -116.27687421    154.157195   -0.57938    0.16591    0.47369    4    diag
    6      0.834D-04      0.241D-04      -116.27687830    154.162882   -0.57901    0.16583    0.47280    5    diag
    7      0.224D-04      0.499D-05      -116.27687857    154.161195   -0.57909    0.16586    0.47272    6    diag
    8      0.676D-05      0.132D-05      -116.27687859    154.161380   -0.57908    0.16586    0.47262    7    diag
    9      0.160D-05      0.297D-06      -116.27687859    154.161352   -0.57906    0.16585    0.47260    8    diag
   10      0.461D-06      0.338D-07      -116.27687859    154.161353   -0.57906    0.16585    0.47260    9    orth
   11      0.445D-07      0.813D-08      -116.27687859    154.161354   -0.57906    0.16585    0.47260    9    diag
   12      0.962D-08      0.211D-08      -116.27687859    154.161354   -0.57906    0.16585    0.47260    0    orth

 Final occupancy:  10

 !RHF STATE  1.1 Energy              -116.276878590885
 Nuclear energy                        35.73898765
 One-electron energy                 -229.09654327
 Two-electron energy                   77.08067703
 Virial quotient                       -1.00101016
 !RHF STATE  1.1 Dipole moment         -0.57906382     0.16585361     0.47259753
 Dipole moment /Debye                  -1.47173703     0.42153022     1.20114443

 Orbital energies:

         1.1          2.1          3.1          4.1          5.1          6.1          7.1          8.1          9.1         10.1
    -20.569683   -11.191871    -1.337028    -0.946236    -0.700611    -0.578230    -0.547861    -0.545942    -0.542540    -0.507592

        11.1         12.1
      0.024287     0.035015


 HOMO     10.1    -0.507592 =     -13.8123eV
 LUMO     11.1     0.024287 =       0.6609eV
 LUMO-HOMO         0.531879 =      14.4732eV


 **********************************************************************************************************************************
 DATASETS  * FILE   NREC   LENGTH (MB)   RECORD NAMES
              1      18       37.12       500      610      700      900      950      970     1000      129      960     1100   
                                          VAR    BASINP    GEOM    SYMINP    ZMAT    AOBASIS   BASIS     P2S    ABASIS      S 
                                         1400     1410     1200     1210     1080     1600     1650     1700   
                                           T        V       H0       H01     AOSYM     SMH    MOLCAS    OPER   

              2       4        6.75       700     1000      520     2100   
                                         GEOM     BASIS   MCVARS     RHF  

 PROGRAMS   *        TOTAL    HF-SCF       INT
 CPU TIMES  *       535.74    196.23    339.28
 REAL TIME  *       751.98 SEC
 DISK USED  *        57.70 MB (local),       66.27 GB (total)
 SF USED    *         0.76 MB
 GA USED    *         0.00 MB       (max)       0.00 MB       (current)
 **********************************************************************************************************************************

 Basis set:  JKFIT                   
 Basis size:  1104
 Attributes:
 Sphericals:   T
 Basis set:  MP2FIT                  
 Basis size:  1246
 Attributes:
 Sphericals:   T
 Basis set:  RI                      
 Basis size:   730
 Attributes:
 Sphericals:   T
 Basis set:  TDDFT                   
 Basis size:  1246
 Attributes:
 Sphericals:   T

 PROGRAM * CCSD (Closed-shell coupled cluster)     Authors: C. Hampel, H.-J. Werner, 1991, M. Deegan, P.J. Knowles, 1992

                                  CCSD-F12 implementation by  H.-J. Werner, 2007

                   Density fitting integral evaluation by F.R. Manby, 2003,2007, G. Knizia, 2010



 Convergence thresholds:  THRVAR = 1.00D-08  THRDEN = 1.00D-10

 CCSD(T)     terms to be evaluated (factor= 1.000)


 Number of core orbitals:           2 (   2 )
 Number of closed-shell orbitals:   8 (   8 )
 Number of external orbitals:     426 ( 426 )

 Molecular orbitals read from record     2100.2  Type=RHF/CANONICAL (state 1.1)

 MP2-F12 correlation treatment (H.-J. Werner, 2006)
 ==================================================

 Using MP2-F12 with ansatz 3C(FIX)

 Using projected zeroth-order Hamiltonian (+Z)

 FOCKRIB=T FOCKRIC=T FOCKRIP=T CABSP=T CABSA=T CABSK=T CABSF=T GBC=F EBC=F DMAT=T NOFIK=T NOPAO=1 SOLVE=-1  USEPAO=0
 EXCH_A= T EXCH_B= F EXCH_C= F EXCH_P= F

 Geminal basis:    OPTFULL  GEM_TYPE=SLATER  BETA=1.0  NGEM=6

 Optimizing Gaussian exponents for each gem_beta

 Geminal optimization for beta= 1.0000
 Weight function:   m=0, omega= 1.4646

 Augmented Hessian optimization of geminal fit. Trust ratio= 0.40000
 Convergence reached after   2 iterations. Final gradient= 7.85D-16, Step= 4.26D-06, Delta= 1.28D-09

 Alpha:                 0.19532     0.81920     2.85917     9.50073    35.69989   197.79328
 Coeff:                 0.27070     0.30552     0.18297     0.10986     0.06810     0.04224


 All pairs explicitly correlated. Number of r12-pairs:           36

 Excluding core orbitals from MO domains

 AO(A)-basis ORBITAL           loaded. Number of functions:     436
 RI(R)-basis RI                loaded. Number of functions:     730
 DF-basis JKFIT                loaded. Number of functions:    1104

 Screening thresholds:   THRAO=  1.00D-10  THRMO=  1.00D-09  THRPROD=  1.00D-09
                         THRSW=  1.00D-05  THROV=  1.00D-12  THRAOF12= 1.00D-10

 CPU time for Fock operators                     11.59 sec

 Construction of ABS:
 Smallest eigenvalue of S          2.27E-04  (threshold= 1.00E-08)
 Ratio eigmin/eigmax               3.94E-05  (threshold= 1.00E-09)
 Smallest eigenvalue of S kept     2.27E-04  (threshold= 2.27E-04, 0 functions deleted, 730 kept)

 Construction of CABS:
 Smallest eigenvalue of S          1.54E-08  (threshold= 1.00E-08)
 Ratio eigmin/eigmax               1.54E-08  (threshold= 1.00E-09)
 Smallest eigenvalue of S kept     1.54E-08  (threshold= 1.54E-08, 0 functions deleted, 730 kept)

 CPU time for CABS singles                        2.20 sec

 CABS-singles contribution of  -0.00052162 patched into reference energy.
 New reference energy        -116.27740021

 AO(A)-basis ORBITAL           loaded. Number of functions:     436
 RI(R)-basis RI                loaded. Number of functions:     730
 DF-basis MP2FIT               loaded. Number of functions:    1246

 Screening thresholds:   THRAO=  1.00D-10  THRMO=  1.00D-09  THRPROD=  1.00D-09
                         THRSW=  1.00D-05  THROV=  1.00D-12  THRAOF12= 1.00D-10

 CPU time for 3-index integral evaluation        18.80 sec
 CPU time for first  half transformation          4.28 sec ( 3057.1 MFLOP/sec)
 CPU time for second half transformation          0.09 sec ( 1720.7 MFLOP/sec)
 CPU time for sorting                             0.17 sec
 CPU time for fitting                             1.80 sec ( 4126.2 MFLOP/sec)
 CPU time for tilde quantities                    2.29 sec ( 4398.6 MFLOP/sec)
 CPU time for assembly                           16.28 sec ( 4356.1 MFLOP/sec)
 CPU time for tranop_f12                         16.08 sec ( 4286.3 MFLOP/sec)
 CPU time for f12 integrals (total)              82.18 sec, Elapsed time:     84.10 sec
 F12-matrices built in  4 passes.
 F12-matrices built in  4 passes.
 F12-matrices built in  4 passes.
 F12-matrices built in  4 passes.
 FC-matrix built in  4 passes.
 CPU time for f12 matrices (total)                5.91 sec, Elapsed time:      6.03 sec

 Diagonal F12 approximation with fixed coefficients:  TSING= 0.500,  TTRIP= 0.250 (scaled by -1/beta)

 DF-MP2-F12 energy corrections:
 ==============================
 Approx.                                    Singlet             Triplet             Total
 DF-MP2-F12/3*C(DX,FIX)                -0.021222871496     -0.002107849930     -0.023330721427
 DF-MP2-F12/3*C(FIX)                   -0.019159156159     -0.001554631952     -0.020713788111
 DF-MP2-F12/3C(FIX)                    -0.019178394448     -0.001605454249     -0.020783848697

 DF-MP2-F12 correlation energies:
 ================================
 Approx.                                    Singlet             Triplet             Ecorr            Total Energy
 DF-MP2                                -0.341278128227     -0.158485851828     -0.499763980055   -116.777164188699
 DF-MP2-F12/3*C(DX,FIX)                -0.362500999724     -0.160593701758     -0.523094701482   -116.800494910126
 DF-MP2-F12/3*C(FIX)                   -0.360437284386     -0.160040483780     -0.520477768166   -116.797877976810
 DF-MP2-F12/3C(FIX)                    -0.360456522675     -0.160091306076     -0.520547828751   -116.797948037396

 SCS-DF-MP2 energies (F_SING= 1.20000  F_TRIP= 0.62222  F_PARALLEL= 0.33333):
 ============================================================================
 SCS-DF-MP2                            -0.508147172787   -116.785547381432
 SCS-DF-MP2-F12/3*C(DX,FIX)            -0.534926169651   -116.812326378295
 SCS-DF-MP2-F12/3*C(FIX)               -0.532105486726   -116.809505695370
 SCS-DF-MP2-F12/3C(FIX)                -0.532160195435   -116.809560404080
 Symmetry transformation completed.

 Number of N-1 electron functions:               8
 Number of N-2 electron functions:              36
 Number of singly external CSFs:              3408
 Number of doubly external CSFs:           5808936
 Total number of CSFs:                     5812345

 Pair and operator lists are different

 Length of J-op  integral file:               0.75 GB
 Length of K-op  integral file:               0.98 GB
 Length of 3-ext integral record:             0.00 MB

 Memory could be reduced to 828.63 Mwords without degradation in triples

 Integral transformation finished. Total CPU: 303.33 sec, npass=  1  Memory used: 389.45 MW

 Reference energy:                   -116.27740021

 Adding F12 terms to K(Cij), methodcc=6,  factor= 1.0

 ITER.      SQ.NORM     CORR.ENERGY   TOTAL ENERGY   ENERGY CHANGE        DEN1      VAR(S)    VAR(P)  DIIS     TIME  TIME/IT
   1      1.13466353    -0.51328450  -116.79068471    -0.01351102    -0.00143906  0.15D-02  0.20D-02  1  1   574.37   162.90
   2      1.14304420    -0.51392754  -116.79132775    -0.00064304    -0.01010229  0.30D-04  0.25D-03  2  2   733.48   162.27
   3      1.14615168    -0.51412668  -116.79152689    -0.00019913    -0.00217605  0.13D-04  0.15D-04  3  3   892.68   161.95
   4      1.14716677    -0.51414753  -116.79154774    -0.00002085    -0.00060116  0.71D-06  0.13D-05  4  4  1051.71   161.77
   5      1.14734207    -0.51414726  -116.79154747     0.00000028    -0.00004118  0.21D-06  0.93D-07  5  5  1211.02   161.66
   6      1.14738712    -0.51414438  -116.79154459     0.00000288    -0.00000645  0.23D-07  0.80D-08  6  6  1370.47   161.62
   7      1.14739925    -0.51414308  -116.79154329     0.00000130    -0.00000364  0.20D-08  0.78D-09  6  1  1530.39   161.69
   8      1.14740107    -0.51414314  -116.79154335    -0.00000007     0.00000044  0.28D-09  0.89D-10  6  3  1689.49   161.62
   9      1.14740215    -0.51414307  -116.79154328     0.00000008    -0.00000031  0.19D-10  0.15D-10  6  2  1849.36   161.62
  10      1.14740226    -0.51414307  -116.79154327     0.00000000     0.00000006  0.26D-11  0.16D-11  6  4  2009.17   161.63
  11      1.14740227    -0.51414307  -116.79154327     0.00000000     0.00000003  0.44D-12  0.24D-12  6  5  2168.09   161.56
  12      1.14740225    -0.51414307  -116.79154327    -0.00000000     0.00000001  0.95D-13  0.31D-13  6  6  2326.71   161.46
  13      1.14740223    -0.51414307  -116.79154328    -0.00000000     0.00000001  0.17D-13  0.46D-14  6  1  2485.61   161.42
  14      1.14740222    -0.51414307  -116.79154328    -0.00000000     0.00000000  0.24D-14  0.11D-14  6  3  2644.45   161.37
  15      1.14740222    -0.51414307  -116.79154328    -0.00000000     0.00000000  0.29D-15  0.16D-15  6  2  2803.22   161.33
  16      1.14740222    -0.51414307  -116.79154328    -0.00000000    -0.00000000  0.34D-16  0.20D-16  6  4  2962.17   161.29
  17      1.14740222    -0.51414307  -116.79154328     0.00000000    -0.00000000  0.76D-17  0.33D-17  6  5  3120.71   161.25

 Norm of t1 vector:      0.05030640      S-energy:    -0.00000000      T1 diagnostic:  0.00889300
                                                                       D1 diagnostic:  0.01935890

 Adding energy correction from Wij-K(Fij), methodcc=6  factor= 1.0

  CCSD correlation energy              -0.514143068579
  MP2-F12 correction (uncoupled)       -0.020192323901
  C*T doubles correction               -0.000563393040
  f12b correction                       0.004660691419

   CPU time for triples:   1814.09 sec for i =  1 -  7 /  8 (~  68.8 % done)
   CPU time for triples:   1006.14 sec for i =  8 -  8 /  8 (  100.0 % done)

 Total CPU time for triples:   2820.29 sec

  Ecorr(MP2)                           -0.499773481921
  Ecorr(MP2-F12)                       -0.520557330618
  Scale factor for triples energy       1.041586537599


 RESULTS
 =======

  Reference energy                   -116.276878590889
  F12 singles correction               -0.000521617755

 F12 singles corrections added to reference energy

  New reference energy               -116.277400208644

  F12a singlet correction              -0.019139431487
  F12a triplet correction              -0.001616285454
  F12a total correction                -0.020755716941

 F12a corrections for ansatz F12/3C(FIX) added to CCSD energy

  CCSD-F12a singlet pair energy        -0.388549862494
  CCSD-F12a triplet pair energy        -0.146348922778
  CCSD-F12a correlation energy         -0.534898785520

  Triples (T) contribution (scaled)    -0.017186684223
  Total correlation energy             -0.552085469743

  CCSD-F12a total energy             -116.812298994164
  CCSD[T]-F12a energy                -116.830062284545
  CCSD-T-F12a energy                 -116.829267460515
 !CCSD(T)-F12a total energy          -116.829485678387

 F12b corrections for ansatz F12/3C(FIX) added to CCSD(T)-F12a energy

  CCSD-F12b singlet pair energy        -0.384104062820
  CCSD-F12b triplet pair energy        -0.146134031033
  CCSD-F12b correlation energy         -0.530238094101

  Triples (T) contribution (scaled)    -0.017186684223
  Total correlation energy             -0.547424778324

  CCSD-F12b total energy             -116.807638302745
  CCSD[T]-F12b energy                -116.825401593126
  CCSD-T-F12b energy                 -116.824606769096
 !CCSD(T)-F12b total energy          -116.824824986968

 Timing summary (sec):

 STEP                 CPU(USER)    SYS     CPU(TOT)    WALL
 Transformation        304.53      6.13    310.66    312.19
 CCSD iterations      2706.99     27.37   2734.36   2741.41
 Triples              2820.29      5.90   2826.19   2830.29
 MP2-F12               109.29      2.35    111.64    111.82
 F12b energy           135.41      1.25    136.66    136.85

 Program statistics:

 Available memory in ccsd:              1999999554
 Min. memory needed in ccsd:              16971337
 Max. memory used in ccsd:                21987113
 Max. memory used in cckext:              15122080 (18 integral passes)



 **********************************************************************************************************************************
 DATASETS  * FILE   NREC   LENGTH (MB)   RECORD NAMES
              1      19     2602.04       500      610      700      900      950      970     1000      129      960     1100   
                                          VAR    BASINP    GEOM    SYMINP    ZMAT    AOBASIS   BASIS     P2S    ABASIS      S 
                                         1400     1410     1200     1210     1080     1600     1650     1700     1380   
                                           T        V       H0       H01     AOSYM     SMH    MOLCAS    OPER     JKOP   

              2       6       10.56       700     1000      520     2100     7360     7350   
                                         GEOM     BASIS   MCVARS     RHF    F12ABS    EF12   

 PROGRAMS   *        TOTAL   CCSD(T)    HF-SCF       INT
 CPU TIMES  *      6612.52   6076.77    196.23    339.28
 REAL TIME  *      6885.48 SEC
 DISK USED  *         3.24 GB (local),       77.12 GB (total)
 SF USED    *         5.12 GB
 GA USED    *         4.87 MB       (max)       0.00 MB       (current)
 **********************************************************************************************************************************

 Running procedure: SET_MONOMER1

 Dummy atoms: C1  H41  H42  H43  H44


 Recomputing one-electron integrals since nuclear charges changed


 PROGRAM * SEWARD (Integral evaluation for generally contracted gaussian basis sets)     Author: Roland Lindh, 1990

 Geometry written to block  1 of record 700


 Point group  C1  



 ATOMIC COORDINATES

 NR  ATOM    CHARGE       X              Y              Z

   1  O19     8.00  -12.424571324    5.951692429   -0.288750152
   2  H37     1.00  -14.111151890    6.508027800   -0.711859831
   3  H38     1.00  -12.410587350    5.867599617    1.622329878
   4  C1      0.00   -6.193010455    2.801518980    2.403542658
   5  H41     0.00   -4.656285171    1.699997622    3.119937832
   6  H42     0.00   -5.973046335    4.726205038    2.982932688
   7  H43     0.00   -7.940251230    2.077186956    3.118237078
   8  H44     0.00   -6.176569838    2.685300823    0.384937212

 Bond lengths in Bohr (Angstrom)

 1-2  1.825673808  1-3  1.912980406  4-5  2.021904040  4-6  2.022002335  4-7  2.021953343
     ( 0.966104974)     ( 1.012305636)     ( 1.069945541)     ( 1.069997556)     ( 1.069971630)

 4-8  2.022015060
     ( 1.070004290)

 Bond angles

  2-1-3  104.57658282   5-4-6  109.53398059   5-4-7  109.65604535   5-4-8  108.43490854

  6-4-7  109.49436728   6-4-8  109.86987750   7-4-8  109.83468330

 NUCLEAR CHARGE:                   10
 NUMBER OF PRIMITIVE AOS:         578
 NUMBER OF SYMMETRY AOS:          474
 NUMBER OF CONTRACTIONS:          436   (  436A   )
 NUMBER OF CORE ORBITALS:           1   (    1A   )
 NUMBER OF VALENCE ORBITALS:        6   (    6A   )

 MOLECULE CHANGED: INITIALIZING OCCUPATION AND DUMP RECORDS


 NUCLEAR REPULSION ENERGY    8.90195171

 Basis set:  JKFIT                   
 Basis size:  1104
 Attributes:
 Sphericals:   T
 Basis set:  MP2FIT                  
 Basis size:  1246
 Attributes:
 Sphericals:   T
 Basis set:  RI                      
 Basis size:   730
 Attributes:
 Sphericals:   T
 Basis set:  TDDFT                   
 Basis size:  1246
 Attributes:
 Sphericals:   T

 Eigenvalues of metric

         1 0.149E-04 0.190E-04 0.365E-04 0.380E-04 0.631E-04 0.890E-04 0.923E-04 0.953E-04


 Contracted 2-electron integrals neglected if value below      1.0D-14

 OPERATOR DM      FOR CENTER  0  COORDINATES:    0.000000    0.000000    0.000000


 **********************************************************************************************************************************
 DATASETS  * FILE   NREC   LENGTH (MB)   RECORD NAMES
              1      18       37.12       500      610      700      900      950      970     1000      129      960     1100   
                                          VAR    BASINP    GEOM    SYMINP    ZMAT    AOBASIS   BASIS     P2S    ABASIS      S 
                                         1400     1410     1200     1210     1080     1600     1650     1700   
                                           T        V       H0       H01     AOSYM     SMH    MOLCAS    OPER   

              2       7       10.59       700     1000      520     2100     7360     7350      200   
                                         GEOM     BASIS   MCVARS     RHF    F12ABS    EF12    OPTIONS    

 PROGRAMS   *        TOTAL       INT   CCSD(T)    HF-SCF       INT
 CPU TIMES  *      6612.91      0.38   6076.77    196.23    339.28
 REAL TIME  *      6886.48 SEC
 DISK USED  *         3.24 GB (local),       77.12 GB (total)
 SF USED    *         5.12 GB
 GA USED    *         4.87 MB       (max)       0.00 MB       (current)
 **********************************************************************************************************************************


 PROGRAM * RHF-SCF (CLOSED SHELL)       Authors: W. Meyer, H.-J. Werner


 NUMBER OF ELECTRONS:       5+    5-    SPACE SYMMETRY=1    SPIN SYMMETRY: Singlet 
 CONVERGENCE THRESHOLDS:    1.00E-08 (Density)    1.00E-11 (Energy)
 MAX. NUMBER OF ITERATIONS:       60
 INTERPOLATION TYPE:            DIIS
 INTERPOLATION STEPS:              2 (START)      1 (STEP)
 LEVEL SHIFTS:                  0.00 (CLOSED)  0.00 (OPEN) 



 Orbital guess generated from atomic densities. Full valence occupancy:    7

 Molecular orbital dump at record        2101.2

 Initial occupancy:   5

 ITERATION    DDIFF          GRAD             ENERGY        2-EL.EN.            DIPOLE MOMENTS         DIIS   ORB.
    1      0.000D+00      0.000D+00       -76.02188619     77.274798   -0.84871    0.23879    0.77537    0    start
    2      0.000D+00      0.468D-02       -76.04879855     73.571888   -0.49452    0.13991    0.43287    1    diag
    3      0.222D-02      0.302D-02       -76.06080323     75.224228   -0.58515    0.16538    0.51642    2    diag
    4      0.855D-03      0.282D-03       -76.06100705     75.132296   -0.58274    0.16486    0.51044    3    diag
    5      0.108D-03      0.812D-04       -76.06103057     75.147203   -0.58193    0.16470    0.50808    4    diag
    6      0.366D-04      0.166D-04       -76.06103219     75.146040   -0.58180    0.16469    0.50741    5    diag
    7      0.995D-05      0.345D-05       -76.06103227     75.146188   -0.58175    0.16468    0.50723    6    diag
    8      0.275D-05      0.621D-06       -76.06103228     75.146170   -0.58172    0.16467    0.50719    7    diag
    9      0.485D-06      0.863D-07       -76.06103228     75.146161   -0.58172    0.16467    0.50719    8    diag
   10      0.535D-07      0.214D-07       -76.06103228     75.146163   -0.58172    0.16467    0.50719    9    orth
   11      0.129D-07      0.544D-08       -76.06103228     75.146163   -0.58172    0.16467    0.50719    9    diag
   12      0.378D-08      0.103D-08       -76.06103228     75.146163   -0.58172    0.16467    0.50719    0    orth

 Final occupancy:   5

 !RHF STATE  1.1 Energy               -76.061032276346
 Nuclear energy                         8.90195171
 One-electron energy                 -122.53606556
 Two-electron energy                   37.57308158
 Virial quotient                       -1.00241556
 !RHF STATE  1.1 Dipole moment         -0.58172018     0.16467368     0.50718518
 Dipole moment /Debye                  -1.47848838     0.41853132     1.28905170

 Orbital energies:

         1.1          2.1          3.1          4.1          5.1          6.1          7.1
    -20.570079    -1.337396    -0.700962    -0.578524    -0.507990     0.020899     0.031925


 HOMO      5.1    -0.507990 =     -13.8231eV
 LUMO      6.1     0.020899 =       0.5687eV
 LUMO-HOMO         0.528889 =      14.3918eV


 **********************************************************************************************************************************
 DATASETS  * FILE   NREC   LENGTH (MB)   RECORD NAMES
              1      18       37.12       500      610      700      900      950      970     1000      129      960     1100   
                                          VAR    BASINP    GEOM    SYMINP    ZMAT    AOBASIS   BASIS     P2S    ABASIS      S 
                                         1400     1410     1200     1210     1080     1600     1650     1700   
                                           T        V       H0       H01     AOSYM     SMH    MOLCAS    OPER   

              2       8       17.39       700     1000      520     2100     7360     7350      200     2101   
                                         GEOM     BASIS   MCVARS     RHF    F12ABS    EF12    OPTIONS    RHF  

 PROGRAMS   *        TOTAL    HF-SCF       INT   CCSD(T)    HF-SCF       INT
 CPU TIMES  *      6811.56    198.64      0.38   6076.77    196.23    339.28
 REAL TIME  *      7101.56 SEC
 DISK USED  *         3.24 GB (local),       77.12 GB (total)
 SF USED    *         5.12 GB
 GA USED    *         4.87 MB       (max)       0.00 MB       (current)
 **********************************************************************************************************************************

 Basis set:  JKFIT                   
 Basis size:  1104
 Attributes:
 Sphericals:   T
 Basis set:  MP2FIT                  
 Basis size:  1246
 Attributes:
 Sphericals:   T
 Basis set:  RI                      
 Basis size:   730
 Attributes:
 Sphericals:   T
 Basis set:  TDDFT                   
 Basis size:  1246
 Attributes:
 Sphericals:   T

 PROGRAM * CCSD (Closed-shell coupled cluster)     Authors: C. Hampel, H.-J. Werner, 1991, M. Deegan, P.J. Knowles, 1992

                                  CCSD-F12 implementation by  H.-J. Werner, 2007

                   Density fitting integral evaluation by F.R. Manby, 2003,2007, G. Knizia, 2010



 Convergence thresholds:  THRVAR = 1.00D-08  THRDEN = 1.00D-10

 CCSD(T)     terms to be evaluated (factor= 1.000)


 Number of core orbitals:           1 (   1 )
 Number of closed-shell orbitals:   4 (   4 )
 Number of external orbitals:     431 ( 431 )

 Molecular orbitals read from record     2101.2  Type=RHF/CANONICAL (state 1.1)

 MP2-F12 correlation treatment (H.-J. Werner, 2006)
 ==================================================

 Using MP2-F12 with ansatz 3C(FIX)

 Using projected zeroth-order Hamiltonian (+Z)

 FOCKRIB=T FOCKRIC=T FOCKRIP=T CABSP=T CABSA=T CABSK=T CABSF=T GBC=F EBC=F DMAT=T NOFIK=T NOPAO=1 SOLVE=-1  USEPAO=0
 EXCH_A= T EXCH_B= F EXCH_C= F EXCH_P= F

 Geminal basis:    OPTFULL  GEM_TYPE=SLATER  BETA=1.0  NGEM=6

 Optimizing Gaussian exponents for each gem_beta

 Geminal optimization for beta= 1.0000
 Weight function:   m=0, omega= 1.4646

 Augmented Hessian optimization of geminal fit. Trust ratio= 0.40000
 Convergence reached after   2 iterations. Final gradient= 8.31D-16, Step= 4.24D-06, Delta= 1.28D-09

 Alpha:                 0.19532     0.81920     2.85917     9.50073    35.69989   197.79328
 Coeff:                 0.27070     0.30552     0.18297     0.10986     0.06810     0.04224


 All pairs explicitly correlated. Number of r12-pairs:           10

 Excluding core orbitals from MO domains

 AO(A)-basis ORBITAL           loaded. Number of functions:     436
 RI(R)-basis RI                loaded. Number of functions:     730
 DF-basis JKFIT                loaded. Number of functions:    1104

 Screening thresholds:   THRAO=  1.00D-10  THRMO=  1.00D-09  THRPROD=  1.00D-09
                         THRSW=  1.00D-05  THROV=  1.00D-12  THRAOF12= 1.00D-10

 CPU time for Fock operators                      9.67 sec

 Construction of ABS:
 Smallest eigenvalue of S          2.27E-04  (threshold= 1.00E-08)
 Ratio eigmin/eigmax               3.94E-05  (threshold= 1.00E-09)
 Smallest eigenvalue of S kept     2.27E-04  (threshold= 2.27E-04, 0 functions deleted, 730 kept)

 Construction of CABS:
 Smallest eigenvalue of S          1.54E-08  (threshold= 1.00E-08)
 Ratio eigmin/eigmax               1.54E-08  (threshold= 1.00E-09)
 Smallest eigenvalue of S kept     1.54E-08  (threshold= 1.54E-08, 0 functions deleted, 730 kept)

 CPU time for CABS singles                        2.21 sec

 CABS-singles contribution of  -0.00027706 patched into reference energy.
 New reference energy         -76.06130934

 AO(A)-basis ORBITAL           loaded. Number of functions:     436
 RI(R)-basis RI                loaded. Number of functions:     730
 DF-basis MP2FIT               loaded. Number of functions:    1246

 Screening thresholds:   THRAO=  1.00D-10  THRMO=  1.00D-09  THRPROD=  1.00D-09
                         THRSW=  1.00D-05  THROV=  1.00D-12  THRAOF12= 1.00D-10

 CPU time for 3-index integral evaluation        18.90 sec
 CPU time for first  half transformation          2.89 sec ( 2235.0 MFLOP/sec)
 CPU time for second half transformation          0.04 sec (  951.4 MFLOP/sec)
 CPU time for sorting                             0.10 sec
 CPU time for fitting                             1.39 sec (  974.0 MFLOP/sec)
 CPU time for tilde quantities                    1.42 sec ( 5110.2 MFLOP/sec)
 CPU time for assembly                            4.80 sec ( 3522.1 MFLOP/sec)
 CPU time for tranop_f12                          4.78 sec ( 3612.0 MFLOP/sec)
 CPU time for f12 integrals (total)              41.57 sec, Elapsed time:     42.41 sec
 F12-matrices built in  4 passes.
 F12-matrices built in  4 passes.
 F12-matrices built in  4 passes.
 F12-matrices built in  4 passes.
 FC-matrix built in  4 passes.
 CPU time for f12 matrices (total)                1.71 sec, Elapsed time:      1.75 sec

 Diagonal F12 approximation with fixed coefficients:  TSING= 0.500,  TTRIP= 0.250 (scaled by -1/beta)

 DF-MP2-F12 energy corrections:
 ==============================
 Approx.                                    Singlet             Triplet             Total
 DF-MP2-F12/3*C(DX,FIX)                -0.013721993132     -0.001530534872     -0.015252528004
 DF-MP2-F12/3*C(FIX)                   -0.012105506626     -0.001077952037     -0.013183458664
 DF-MP2-F12/3C(FIX)                    -0.012095838225     -0.001114889474     -0.013210727699

 DF-MP2-F12 correlation energies:
 ================================
 Approx.                                    Singlet             Triplet             Ecorr            Total Energy
 DF-MP2                                -0.186724184266     -0.101664270452     -0.288388454718    -76.349697791892
 DF-MP2-F12/3*C(DX,FIX)                -0.200446177398     -0.103194805324     -0.303640982722    -76.364950319896
 DF-MP2-F12/3*C(FIX)                   -0.198829690892     -0.102742222489     -0.301571913382    -76.362881250556
 DF-MP2-F12/3C(FIX)                    -0.198820022491     -0.102779159926     -0.301599182417    -76.362908519591

 SCS-DF-MP2 energies (F_SING= 1.20000  F_TRIP= 0.62222  F_PARALLEL= 0.33333):
 ============================================================================
 SCS-DF-MP2                            -0.287326789400    -76.348636126575
 SCS-DF-MP2-F12/3*C(DX,FIX)            -0.304745513968    -76.366054851142
 SCS-DF-MP2-F12/3*C(FIX)               -0.302524123064    -76.363833460239
 SCS-DF-MP2-F12/3C(FIX)                -0.302535504276    -76.363844841451
 Symmetry transformation completed.

 Number of N-1 electron functions:               4
 Number of N-2 electron functions:              10
 Number of singly external CSFs:              1724
 Number of doubly external CSFs:           1486950
 Total number of CSFs:                     1488675

 Pair and operator lists are different

 Length of J-op  integral file:             203.65 MB
 Length of K-op  integral file:             338.08 MB
 Length of 3-ext integral record:             0.00 MB

 Memory could be reduced to 526.20 Mwords without degradation in triples

 Integral transformation finished. Total CPU: 159.87 sec, npass=  1  Memory used: 214.75 MW

 Reference energy:                    -76.06130934

 Adding F12 terms to K(Cij), methodcc=6,  factor= 1.0

 ITER.      SQ.NORM     CORR.ENERGY   TOTAL ENERGY   ENERGY CHANGE        DEN1      VAR(S)    VAR(P)  DIIS     TIME  TIME/IT
   1      1.06423347    -0.28772038   -76.34902972     0.00067222     0.00698388  0.82D-03  0.11D-02  1  1   267.88    48.79
   2      1.06788691    -0.28752000   -76.34882933     0.00020039    -0.00498415  0.14D-04  0.12D-03  2  2   317.04    49.68
   3      1.06918090    -0.28762293   -76.34893226    -0.00010293    -0.00084727  0.10D-04  0.80D-05  3  3   365.93    49.88
   4      1.06977140    -0.28763869   -76.34894803    -0.00001576    -0.00035737  0.55D-06  0.76D-06  4  4   413.70    49.72
   5      1.06988300    -0.28763702   -76.34894635     0.00000167    -0.00003026  0.18D-06  0.57D-07  5  5   461.60    49.61
   6      1.06991769    -0.28763479   -76.34894413     0.00000223    -0.00000448  0.19D-07  0.46D-08  6  6   509.77    49.61
   7      1.06992719    -0.28763415   -76.34894349     0.00000064    -0.00000201  0.12D-08  0.56D-09  6  1   558.36    49.63
   8      1.06992877    -0.28763414   -76.34894348     0.00000001     0.00000006  0.16D-09  0.64D-10  6  2   606.64    49.61
   9      1.06992932    -0.28763412   -76.34894346     0.00000002     0.00000002  0.14D-10  0.98D-11  6  3   654.47    49.57
  10      1.06992943    -0.28763412   -76.34894346     0.00000000     0.00000002  0.21D-11  0.91D-12  6  4   702.56    49.54
  11      1.06992942    -0.28763412   -76.34894346    -0.00000000     0.00000003  0.43D-12  0.15D-12  6  5   750.44    49.52
  12      1.06992942    -0.28763412   -76.34894346    -0.00000000     0.00000000  0.87D-13  0.23D-13  6  6   798.48    49.52
  13      1.06992941    -0.28763412   -76.34894346    -0.00000000     0.00000000  0.12D-13  0.37D-14  6  1   846.67    49.52
  14      1.06992940    -0.28763412   -76.34894346    -0.00000000     0.00000000  0.15D-14  0.84D-15  6  2   894.76    49.51
  15      1.06992940    -0.28763412   -76.34894346    -0.00000000     0.00000000  0.16D-15  0.11D-15  6  3   942.65    49.50
  16      1.06992940    -0.28763412   -76.34894346    -0.00000000     0.00000000  0.19D-16  0.14D-16  6  4   990.74    49.50

 Norm of t1 vector:      0.03762052      S-energy:    -0.00000000      T1 diagnostic:  0.00940513
                                                                       D1 diagnostic:  0.01913495

 Adding energy correction from Wij-K(Fij), methodcc=6  factor= 1.0

  CCSD correlation energy              -0.287634120542
  MP2-F12 correction (uncoupled)       -0.012744288993
  C*T doubles correction               -0.000435778755
  f12b correction                       0.002720470551


 Total CPU time for triples:    427.91 sec

  Ecorr(MP2)                           -0.288392601429
  Ecorr(MP2-F12)                       -0.301603329128
  Scale factor for triples energy       1.045808136663


 RESULTS
 =======

  Reference energy                    -76.061032276346
  F12 singles correction               -0.000277060828

 F12 singles corrections added to reference energy

  New reference energy                -76.061309337174

  F12a singlet correction              -0.012056520763
  F12a triplet correction              -0.001123546985
  F12a total correction                -0.013180067748

 F12a corrections for ansatz F12/3C(FIX) added to CCSD energy

  CCSD-F12a singlet pair energy        -0.210006725790
  CCSD-F12a triplet pair energy        -0.090807462442
  CCSD-F12a correlation energy         -0.300814188290

  Triples (T) contribution (scaled)    -0.010049680368
  Total correlation energy             -0.310863868658

  CCSD-F12a total energy              -76.362123525465
  CCSD[T]-F12a energy                 -76.372510713744
  CCSD-T-F12a energy                  -76.372026033713
 !CCSD(T)-F12a total energy           -76.372173205833

 F12b corrections for ansatz F12/3C(FIX) added to CCSD(T)-F12a energy

  CCSD-F12b singlet pair energy        -0.207433105884
  CCSD-F12b triplet pair energy        -0.090660611797
  CCSD-F12b correlation energy         -0.298093717739

  Triples (T) contribution (scaled)    -0.010049680368
  Total correlation energy             -0.308143398107

  CCSD-F12b total energy              -76.359403054914
  CCSD[T]-F12b energy                 -76.369790243192
  CCSD-T-F12b energy                  -76.369305563162
 !CCSD(T)-F12b total energy           -76.369452735282

 Timing summary (sec):

 STEP                 CPU(USER)    SYS     CPU(TOT)    WALL
 Transformation        160.24      3.90    164.14    164.36
 CCSD iterations       770.25     20.79    791.04    792.12
 Triples               427.91      0.76    428.67    429.24
 MP2-F12                60.34      1.03     61.37     61.46
 F12b energy            44.11      1.12     45.23     45.28

 Program statistics:

 Available memory in ccsd:              1999999871
 Min. memory needed in ccsd:               6763924
 Max. memory used in ccsd:                 7862874
 Max. memory used in cckext:               5171974 (17 integral passes)



 **********************************************************************************************************************************
 DATASETS  * FILE   NREC   LENGTH (MB)   RECORD NAMES
              1      19     1346.98       500      610      700      900      950      970     1000      129      960     1100   
                                          VAR    BASINP    GEOM    SYMINP    ZMAT    AOBASIS   BASIS     P2S    ABASIS      S 
                                         1400     1410     1200     1210     1080     1600     1650     1700     1380   
                                           T        V       H0       H01     AOSYM     SMH    MOLCAS    OPER     JKOP   

              2       8       17.39       700     1000      520     2100     7360     7350      200     2101   
                                         GEOM     BASIS   MCVARS     RHF    F12ABS    EF12    OPTIONS    RHF  

 PROGRAMS   *        TOTAL   CCSD(T)    HF-SCF       INT   CCSD(T)    HF-SCF       INT
 CPU TIMES  *      8274.65   1463.09    198.64      0.38   6076.77    196.23    339.28
 REAL TIME  *      8594.74 SEC
 DISK USED  *         3.24 GB (local),       77.12 GB (total)
 SF USED    *         5.12 GB
 GA USED    *         4.87 MB       (max)       0.00 MB       (current)
 **********************************************************************************************************************************

 Running procedure: SET_MONOMER2

 Dummy atoms: O19  H37  H38


 Recomputing one-electron integrals since nuclear charges changed


 PROGRAM * SEWARD (Integral evaluation for generally contracted gaussian basis sets)     Author: Roland Lindh, 1990

 Geometry written to block  1 of record 700


 Point group  C1  



 ATOMIC COORDINATES

 NR  ATOM    CHARGE       X              Y              Z

   1  O19     0.00  -12.424571324    5.951692429   -0.288750152
   2  H37     0.00  -14.111151890    6.508027800   -0.711859831
   3  H38     0.00  -12.410587350    5.867599617    1.622329878
   4  C1      6.00   -6.193010455    2.801518980    2.403542658
   5  H41     1.00   -4.656285171    1.699997622    3.119937832
   6  H42     1.00   -5.973046335    4.726205038    2.982932688
   7  H43     1.00   -7.940251230    2.077186956    3.118237078
   8  H44     1.00   -6.176569838    2.685300823    0.384937212

 Bond lengths in Bohr (Angstrom)

 1-2  1.825673808  1-3  1.912980406  4-5  2.021904040  4-6  2.022002335  4-7  2.021953343
     ( 0.966104974)     ( 1.012305636)     ( 1.069945541)     ( 1.069997556)     ( 1.069971630)

 4-8  2.022015060
     ( 1.070004290)

 Bond angles

  2-1-3  104.57658282   5-4-6  109.53398059   5-4-7  109.65604535   5-4-8  108.43490854

  6-4-7  109.49436728   6-4-8  109.86987750   7-4-8  109.83468330

 NUCLEAR CHARGE:                   10
 NUMBER OF PRIMITIVE AOS:         578
 NUMBER OF SYMMETRY AOS:          474
 NUMBER OF CONTRACTIONS:          436   (  436A   )
 NUMBER OF CORE ORBITALS:           1   (    1A   )
 NUMBER OF VALENCE ORBITALS:        8   (    8A   )

 MOLECULE CHANGED: INITIALIZING OCCUPATION AND DUMP RECORDS


 NUCLEAR REPULSION ENERGY   13.68681606

 Basis set:  JKFIT                   
 Basis size:  1104
 Attributes:
 Sphericals:   T
 Basis set:  MP2FIT                  
 Basis size:  1246
 Attributes:
 Sphericals:   T
 Basis set:  RI                      
 Basis size:   730
 Attributes:
 Sphericals:   T
 Basis set:  TDDFT                   
 Basis size:  1246
 Attributes:
 Sphericals:   T

 Eigenvalues of metric

         1 0.149E-04 0.190E-04 0.365E-04 0.380E-04 0.631E-04 0.890E-04 0.923E-04 0.953E-04


 Contracted 2-electron integrals neglected if value below      1.0D-14

 OPERATOR DM      FOR CENTER  0  COORDINATES:    0.000000    0.000000    0.000000


 **********************************************************************************************************************************
 DATASETS  * FILE   NREC   LENGTH (MB)   RECORD NAMES
              1      18       37.12       500      610      700      900      950      970     1000      129      960     1100   
                                          VAR    BASINP    GEOM    SYMINP    ZMAT    AOBASIS   BASIS     P2S    ABASIS      S 
                                         1400     1410     1200     1210     1080     1600     1650     1700   
                                           T        V       H0       H01     AOSYM     SMH    MOLCAS    OPER   

              2       8       17.39       700     1000      520     2100     7360     7350      200     2101   
                                         GEOM     BASIS   MCVARS     RHF    F12ABS    EF12    OPTIONS    RHF  

 PROGRAMS   *        TOTAL       INT   CCSD(T)    HF-SCF       INT   CCSD(T)    HF-SCF       INT
 CPU TIMES  *      8275.03      0.37   1463.09    198.64      0.38   6076.77    196.23    339.28
 REAL TIME  *      8595.53 SEC
 DISK USED  *         3.24 GB (local),       77.12 GB (total)
 SF USED    *         5.12 GB
 GA USED    *         4.87 MB       (max)       0.00 MB       (current)
 **********************************************************************************************************************************


 PROGRAM * RHF-SCF (CLOSED SHELL)       Authors: W. Meyer, H.-J. Werner


 NUMBER OF ELECTRONS:       5+    5-    SPACE SYMMETRY=1    SPIN SYMMETRY: Singlet 
 CONVERGENCE THRESHOLDS:    1.00E-08 (Density)    1.00E-11 (Energy)
 MAX. NUMBER OF ITERATIONS:       60
 INTERPOLATION TYPE:            DIIS
 INTERPOLATION STEPS:              2 (START)      1 (STEP)
 LEVEL SHIFTS:                  0.00 (CLOSED)  0.00 (OPEN) 



 Orbital guess generated from atomic densities. Full valence occupancy:    9

 Molecular orbital dump at record        2102.2

 Initial occupancy:   5

 ITERATION    DDIFF          GRAD             ENERGY        2-EL.EN.            DIPOLE MOMENTS         DIIS   ORB.
    1      0.000D+00      0.000D+00       -40.19609625     53.506292    0.00411   -0.00276   -0.00131    0    start
    2      0.000D+00      0.257D-02       -40.21335041     52.217621    0.00128   -0.00088   -0.00039    1    diag
    3      0.159D-02      0.998D-03       -40.21562635     52.672081    0.00182   -0.00124   -0.00056    2    diag
    4      0.446D-03      0.249D-03       -40.21594581     52.617268    0.00162   -0.00110   -0.00049    3    diag
    5      0.165D-03      0.322D-04       -40.21595130     52.619416    0.00159   -0.00108   -0.00048    4    diag
    6      0.415D-04      0.264D-05       -40.21595134     52.619553    0.00159   -0.00108   -0.00048    5    diag
    7      0.571D-05      0.212D-06       -40.21595134     52.619514    0.00159   -0.00108   -0.00048    6    diag
    8      0.210D-06      0.170D-07       -40.21595134     52.619514    0.00159   -0.00108   -0.00048    7    diag
    9      0.834D-07      0.218D-08       -40.21595134     52.619514    0.00159   -0.00108   -0.00048    8    diag
   10      0.860D-08      0.595D-09       -40.21595134     52.619514    0.00159   -0.00108   -0.00048    0    orth

 Final occupancy:   5

 !RHF STATE  1.1 Energy               -40.215951338984
 Nuclear energy                        13.68681606
 One-electron energy                  -80.21252461
 Two-electron energy                   26.30975722
 Virial quotient                       -0.99838110
 !RHF STATE  1.1 Dipole moment          0.00158613    -0.00108168    -0.00047825
 Dipole moment /Debye                   0.00403128    -0.00274918    -0.00121551

 Orbital energies:

         1.1          2.1          3.1          4.1          5.1          6.1          7.1
    -11.196224    -0.950661    -0.551889    -0.549954    -0.547777     0.023705     0.035019


 HOMO      5.1    -0.547777 =     -14.9058eV
 LUMO      6.1     0.023705 =       0.6451eV
 LUMO-HOMO         0.571482 =      15.5508eV


 **********************************************************************************************************************************
 DATASETS  * FILE   NREC   LENGTH (MB)   RECORD NAMES
              1      18       37.12       500      610      700      900      950      970     1000      129      960     1100   
                                          VAR    BASINP    GEOM    SYMINP    ZMAT    AOBASIS   BASIS     P2S    ABASIS      S 
                                         1400     1410     1200     1210     1080     1600     1650     1700   
                                           T        V       H0       H01     AOSYM     SMH    MOLCAS    OPER   

              2       9       27.51       700     1000      520     2100     7360     7350      200     2101     2102   
                                         GEOM     BASIS   MCVARS     RHF    F12ABS    EF12    OPTIONS    RHF      RHF  

 PROGRAMS   *        TOTAL    HF-SCF       INT   CCSD(T)    HF-SCF       INT   CCSD(T)    HF-SCF       INT
 CPU TIMES  *      8442.79    167.75      0.37   1463.09    198.64      0.38   6076.77    196.23    339.28
 REAL TIME  *      8776.19 SEC
 DISK USED  *         3.24 GB (local),       77.12 GB (total)
 SF USED    *         5.12 GB
 GA USED    *         4.87 MB       (max)       0.00 MB       (current)
 **********************************************************************************************************************************

 Basis set:  JKFIT                   
 Basis size:  1104
 Attributes:
 Sphericals:   T
 Basis set:  MP2FIT                  
 Basis size:  1246
 Attributes:
 Sphericals:   T
 Basis set:  RI                      
 Basis size:   730
 Attributes:
 Sphericals:   T
 Basis set:  TDDFT                   
 Basis size:  1246
 Attributes:
 Sphericals:   T

 PROGRAM * CCSD (Closed-shell coupled cluster)     Authors: C. Hampel, H.-J. Werner, 1991, M. Deegan, P.J. Knowles, 1992

                                  CCSD-F12 implementation by  H.-J. Werner, 2007

                   Density fitting integral evaluation by F.R. Manby, 2003,2007, G. Knizia, 2010



 Convergence thresholds:  THRVAR = 1.00D-08  THRDEN = 1.00D-10

 CCSD(T)     terms to be evaluated (factor= 1.000)


 Number of core orbitals:           1 (   1 )
 Number of closed-shell orbitals:   4 (   4 )
 Number of external orbitals:     431 ( 431 )

 Molecular orbitals read from record     2102.2  Type=RHF/CANONICAL (state 1.1)

 MP2-F12 correlation treatment (H.-J. Werner, 2006)
 ==================================================

 Using MP2-F12 with ansatz 3C(FIX)

 Using projected zeroth-order Hamiltonian (+Z)

 FOCKRIB=T FOCKRIC=T FOCKRIP=T CABSP=T CABSA=T CABSK=T CABSF=T GBC=F EBC=F DMAT=T NOFIK=T NOPAO=1 SOLVE=-1  USEPAO=0
 EXCH_A= T EXCH_B= F EXCH_C= F EXCH_P= F

 Geminal basis:    OPTFULL  GEM_TYPE=SLATER  BETA=1.0  NGEM=6

 Optimizing Gaussian exponents for each gem_beta

 Geminal optimization for beta= 1.0000
 Weight function:   m=0, omega= 1.4646

 Augmented Hessian optimization of geminal fit. Trust ratio= 0.40000
 Convergence reached after   2 iterations. Final gradient= 7.85D-16, Step= 4.26D-06, Delta= 1.28D-09

 Alpha:                 0.19532     0.81920     2.85917     9.50073    35.69989   197.79328
 Coeff:                 0.27070     0.30552     0.18297     0.10986     0.06810     0.04224


 All pairs explicitly correlated. Number of r12-pairs:           10

 Excluding core orbitals from MO domains

 AO(A)-basis ORBITAL           loaded. Number of functions:     436
 RI(R)-basis RI                loaded. Number of functions:     730
 DF-basis JKFIT                loaded. Number of functions:    1104

 Screening thresholds:   THRAO=  1.00D-10  THRMO=  1.00D-09  THRPROD=  1.00D-09
                         THRSW=  1.00D-05  THROV=  1.00D-12  THRAOF12= 1.00D-10

 CPU time for Fock operators                      9.87 sec

 Construction of ABS:
 Smallest eigenvalue of S          2.27E-04  (threshold= 1.00E-08)
 Ratio eigmin/eigmax               3.94E-05  (threshold= 1.00E-09)
 Smallest eigenvalue of S kept     2.27E-04  (threshold= 2.27E-04, 0 functions deleted, 730 kept)

 Construction of CABS:
 Smallest eigenvalue of S          1.54E-08  (threshold= 1.00E-08)
 Ratio eigmin/eigmax               1.54E-08  (threshold= 1.00E-09)
 Smallest eigenvalue of S kept     1.54E-08  (threshold= 1.54E-08, 0 functions deleted, 730 kept)

 CPU time for CABS singles                        2.20 sec

 CABS-singles contribution of  -0.00024430 patched into reference energy.
 New reference energy         -40.21619564

 AO(A)-basis ORBITAL           loaded. Number of functions:     436
 RI(R)-basis RI                loaded. Number of functions:     730
 DF-basis MP2FIT               loaded. Number of functions:    1246

 Screening thresholds:   THRAO=  1.00D-10  THRMO=  1.00D-09  THRPROD=  1.00D-09
                         THRSW=  1.00D-05  THROV=  1.00D-12  THRAOF12= 1.00D-10

 CPU time for 3-index integral evaluation        18.86 sec
 CPU time for first  half transformation          3.04 sec ( 2140.8 MFLOP/sec)
 CPU time for second half transformation          0.06 sec (  630.5 MFLOP/sec)
 CPU time for sorting                             0.09 sec
 CPU time for fitting                             1.09 sec ( 1270.5 MFLOP/sec)
 CPU time for tilde quantities                    1.70 sec ( 1620.1 MFLOP/sec)
 CPU time for assembly                            4.88 sec ( 3658.5 MFLOP/sec)
 CPU time for tranop_f12                          4.57 sec ( 3310.7 MFLOP/sec)
 CPU time for f12 integrals (total)              41.57 sec, Elapsed time:     42.37 sec
 F12-matrices built in  4 passes.
 F12-matrices built in  4 passes.
 F12-matrices built in  4 passes.
 F12-matrices built in  4 passes.
 FC-matrix built in  4 passes.
 CPU time for f12 matrices (total)                1.69 sec, Elapsed time:      1.73 sec

 Diagonal F12 approximation with fixed coefficients:  TSING= 0.500,  TTRIP= 0.250 (scaled by -1/beta)

 DF-MP2-F12 energy corrections:
 ==============================
 Approx.                                    Singlet             Triplet             Total
 DF-MP2-F12/3*C(DX,FIX)                -0.007498828229     -0.000575362279     -0.008074190507
 DF-MP2-F12/3*C(FIX)                   -0.007051717897     -0.000473992514     -0.007525710411
 DF-MP2-F12/3C(FIX)                    -0.007080435703     -0.000487502664     -0.007567938368

 DF-MP2-F12 correlation energies:
 ================================
 Approx.                                    Singlet             Triplet             Ecorr            Total Energy
 DF-MP2                                -0.154417071064     -0.056463154047     -0.210880225111    -40.427075860575
 DF-MP2-F12/3*C(DX,FIX)                -0.161915899293     -0.057038516325     -0.218954415618    -40.435150051082
 DF-MP2-F12/3*C(FIX)                   -0.161468788961     -0.056937146561     -0.218405935522    -40.434601570986
 DF-MP2-F12/3C(FIX)                    -0.161497506768     -0.056950656711     -0.218448163479    -40.434643798943

 SCS-DF-MP2 energies (F_SING= 1.20000  F_TRIP= 0.62222  F_PARALLEL= 0.33333):
 ============================================================================
 SCS-DF-MP2                            -0.220433114462    -40.436628749926
 SCS-DF-MP2-F12/3*C(DX,FIX)            -0.229789711532    -40.445985346996
 SCS-DF-MP2-F12/3*C(FIX)               -0.229190104614    -40.445385740077
 SCS-DF-MP2-F12/3C(FIX)                -0.229232972297    -40.445428607761
 Symmetry transformation completed.

 Number of N-1 electron functions:               4
 Number of N-2 electron functions:              10
 Number of singly external CSFs:              1724
 Number of doubly external CSFs:           1486950
 Total number of CSFs:                     1488675

 Pair and operator lists are different

 Length of J-op  integral file:             203.65 MB
 Length of K-op  integral file:             338.08 MB
 Length of 3-ext integral record:             0.00 MB

 Memory could be reduced to 526.20 Mwords without degradation in triples

 Integral transformation finished. Total CPU: 160.19 sec, npass=  1  Memory used: 214.75 MW

 Reference energy:                    -40.21619564

 Adding F12 terms to K(Cij), methodcc=6,  factor= 1.0

 ITER.      SQ.NORM     CORR.ENERGY   TOTAL ENERGY   ENERGY CHANGE        DEN1      VAR(S)    VAR(P)  DIIS     TIME  TIME/IT
   1      1.07023960    -0.22511510   -40.44131074    -0.01422951    -0.00847528  0.63D-03  0.94D-03  1  1   267.78    48.00
   2      1.07517033    -0.22596492   -40.44216056    -0.00084982    -0.00530351  0.15D-04  0.10D-03  2  2   316.15    48.95
   3      1.07679291    -0.22605273   -40.44224837    -0.00008781    -0.00117728  0.22D-05  0.59D-05  3  3   365.30    49.47
   4      1.07717588    -0.22606005   -40.44225568    -0.00000732    -0.00020552  0.14D-06  0.33D-06  4  4   414.34    49.65
   5      1.07722791    -0.22606167   -40.44225731    -0.00000163    -0.00000892  0.11D-07  0.20D-07  5  5   462.49    49.61
   6      1.07723649    -0.22606037   -40.44225601     0.00000130    -0.00000329  0.75D-09  0.15D-08  6  6   510.19    49.55
   7      1.07723782    -0.22606005   -40.44225569     0.00000032    -0.00000083  0.50D-10  0.11D-09  6  1   558.19    49.54
   8      1.07723779    -0.22606012   -40.44225576    -0.00000007     0.00000020  0.51D-11  0.66D-11  6  3   606.53    49.57
   9      1.07723792    -0.22606010   -40.44225574     0.00000002    -0.00000009  0.36D-12  0.53D-12  6  2   654.79    49.57
  10      1.07723793    -0.22606010   -40.44225574     0.00000000     0.00000001  0.48D-13  0.55D-13  6  4   702.66    49.55
  11      1.07723793    -0.22606010   -40.44225573     0.00000000     0.00000000  0.46D-14  0.57D-14  6  5   750.65    49.53
  12      1.07723793    -0.22606010   -40.44225573     0.00000000     0.00000000  0.10D-15  0.61D-15  6  6   798.72    49.52
  13      1.07723793    -0.22606010   -40.44225573    -0.00000000     0.00000000  0.72D-17  0.66D-16  6  1   846.78    49.51
  14      1.07723793    -0.22606010   -40.44225573    -0.00000000     0.00000000  0.12D-17  0.86D-17  6  3   894.94    49.51

 Norm of t1 vector:      0.03291678      S-energy:    -0.00000000      T1 diagnostic:  0.00822919
                                                                       D1 diagnostic:  0.01319190

 Adding energy correction from Wij-K(Fij), methodcc=6  factor= 1.0

  CCSD correlation energy              -0.226060098949
  MP2-F12 correction (uncoupled)       -0.007443953627
  C*T doubles correction               -0.000126971368
  f12b correction                       0.001938150234

 Total CPU time for triples:    429.67 sec

  Ecorr(MP2)                           -0.210885598221
  Ecorr(MP2-F12)                       -0.218453536589
  Scale factor for triples energy       1.035886463712


 RESULTS
 =======

  Reference energy                    -40.215951338984
  F12 singles correction               -0.000244296479

 F12 singles corrections added to reference energy

  New reference energy                -40.216195635464

  F12a singlet correction              -0.007080986155
  F12a triplet correction              -0.000489938840
  F12a total correction                -0.007570924995

 F12a corrections for ansatz F12/3C(FIX) added to CCSD energy

  CCSD-F12a singlet pair energy        -0.178450238372
  CCSD-F12a triplet pair energy        -0.055180785568
  CCSD-F12a correlation energy         -0.233631023944

  Triples (T) contribution (scaled)    -0.007052724772
  Total correlation energy             -0.240683748716

  CCSD-F12a total energy              -40.449826659407
  CCSD[T]-F12a energy                 -40.457115926664
  CCSD-T-F12a energy                  -40.456809523868
 !CCSD(T)-F12a total energy           -40.456879384179

 F12b corrections for ansatz F12/3C(FIX) added to CCSD(T)-F12a energy

  CCSD-F12b singlet pair energy        -0.176579746623
  CCSD-F12b triplet pair energy        -0.055113127083
  CCSD-F12b correlation energy         -0.231692873709

  Triples (T) contribution (scaled)    -0.007052724772
  Total correlation energy             -0.238745598481

  CCSD-F12b total energy              -40.447888509173
  CCSD[T]-F12b energy                 -40.455177776430
  CCSD-T-F12b energy                  -40.454871373634
 !CCSD(T)-F12b total energy           -40.454941233945

 Timing summary (sec):

 STEP                 CPU(USER)    SYS     CPU(TOT)    WALL
 Transformation        160.54      3.80    164.34    164.67
 CCSD iterations       674.07     18.27    692.34    693.26
 Triples               429.67      0.81    430.48    431.06
 MP2-F12                60.43      0.97     61.40     61.47
 F12b energy            44.02      1.20     45.22     45.28

 Program statistics:

 Available memory in ccsd:              1999999866
 Min. memory needed in ccsd:               6763924
 Max. memory used in ccsd:                 7862874
 Max. memory used in cckext:               5171974 (15 integral passes)



 **********************************************************************************************************************************
 DATASETS  * FILE   NREC   LENGTH (MB)   RECORD NAMES
              1      19     1346.98       500      610      700      900      950      970     1000      129      960     1100   
                                          VAR    BASINP    GEOM    SYMINP    ZMAT    AOBASIS   BASIS     P2S    ABASIS      S 
                                         1400     1410     1200     1210     1080     1600     1650     1700     1380   
                                           T        V       H0       H01     AOSYM     SMH    MOLCAS    OPER     JKOP   

              2       9       27.51       700     1000      520     2100     7360     7350      200     2101     2102   
                                         GEOM     BASIS   MCVARS     RHF    F12ABS    EF12    OPTIONS    RHF      RHF  

 PROGRAMS   *        TOTAL   CCSD(T)    HF-SCF       INT   CCSD(T)    HF-SCF       INT   CCSD(T)    HF-SCF       INT
 CPU TIMES  *      9811.77   1368.96    167.75      0.37   1463.09    198.64      0.38   6076.77    196.23    339.28
 REAL TIME  *     10172.66 SEC
 DISK USED  *         3.24 GB (local),       77.12 GB (total)
 SF USED    *         5.12 GB
 GA USED    *         4.87 MB       (max)       0.00 MB       (current)
 **********************************************************************************************************************************
 Molecular orbitals read from record     2102.2  Type=RHF/CANONICAL (state 1.1)
 Occupation numbers read from record     2102.2  Type=RHF/RHF (state 1.1)
 Orbital energies read from record       2102.2  Type=RHF/CANONICAL (state 1.1)
 Redundancy group numbers read from rec  2102.2  Type=RHF/RHF (state 1.1)

 CCSD(T)-F12/aug-cc-pVQZ energy=    -40.454941233945

     CCSD(T)-F12          HF-SCF     CCSD(T)-F12          HF-SCF     CCSD(T)-F12          HF-SCF
    -40.45494123    -40.21595134    -76.36945274    -76.06103228   -116.82482499   -116.27687859
 **********************************************************************************************************************************
 Molpro calculation terminated
