
 Primary working directories    : /scratch/klimes/383255/molpro.6VyPbyBHty
 Secondary working directories  : /scratch/klimes/383255/molpro.6VyPbyBHty
 Wavefunction directory         : /scratch/klimes/383255/
 Main file repository           : /scratch/klimes/383255/molpro.6VyPbyBHty/

 id        : karlovklimes

 Nodes                      nprocs
 nc-05.cc.karlov.mff.cuni.cz    4

 Using customized tuning parameters: mindgm=1; mindgv=20; mindgc=4; mindgr=1; noblas=0; minvec=7
 default implementation of scratch files=sf  


 Variables initialized (930), CPU time= 0.01 sec
                                                                                 !gdirect
 memory,2000,m
 gthresh,orbital=1d-10,energy=1d-10,grid=1d-8
 
 symmetry,nosym
 angstrom
 geometry={
 O20        -6.561800000000      3.004400000000      2.437800000000
 H39        -6.427800000000      2.081100000000      2.759600000000
 H40        -5.876000000000      3.542400000000      2.882400000000
 C1        -3.277200000000      1.482500000000      1.271900000000
 H41        -2.464000000000      0.899600000000      1.651000000000
 H42        -3.160800000000      2.501000000000      1.578500000000
 H43        -4.201800000000      1.099200000000      1.650100000000
 H44        -3.268500000000      1.421000000000      0.203700000000
 }
 
 nkerna=1
 nkernb=1
 
 gf=0
 sing=1
 thrdum=1d-4
 gridthr=1d-8
 
 basis={
 set,orbital
 default,avqz
 set,jkfit
 default,av5z/jkfit
 set,mp2fit
 default,av5z/mp2fit
 set,ri
 default,av5z/optri
 set,tddft
 default,av5z/mp2fit
 }
 
 proc set_monomer1
 dummy,4,5,6,7,8
 endproc
 
 proc set_monomer2
 dummy,1,2,3
 endproc
 
                                                                                 !12 energy
 {hf,accu=1.d-16}
 {ccsd(t)-f12,df_basis=mp2fit,df_basis_exch=jkfit,ri_basis=ri,scale_trip=1,THRAOF12=1d-10}
 
 set_monomer1
 {hf,accu=1.d-16}
 {ccsd(t)-f12,df_basis=mp2fit,df_basis_exch=jkfit,ri_basis=ri,scale_trip=1,THRAOF12=1d-10}
 
 set_monomer2
 {hf,accu=1.d-16}
 {ccsd(t)-f12,df_basis=mp2fit,df_basis_exch=jkfit,ri_basis=ri,scale_trip=1,THRAOF12=1d-10}
 
 Commands  initialized (760), CPU time= 0.02 sec, 617 directives.
 Default parameters read. Elapsed time= 0.20 sec

 Checking input...
 Passed
1


                                         ***  PROGRAM SYSTEM MOLPRO  ***
                                       Copyright, TTI GmbH Stuttgart, 2015
                                    Version 2019.1 linked Jan 14 2019 13:09:19


 **********************************************************************************************************************************
 LABEL *                                                                                 
  64 bit mpp version                                                                     DATE: 11-Mar-20          TIME: 18:33:21  
 **********************************************************************************************************************************

 SHA1:             d688ac825633d238f2093ded1675ba87ccd55965
 **********************************************************************************************************************************

 THRESHOLDS:

 ZERO    =  1.00D-12  ONEINT  =  1.00D-12  TWOINT  =  1.00D-11  PREFAC  =  1.00D-14  XXXXXX  =  1.00D-09  EORDER  =  1.00D-04
 ENERGY  =  1.00D-10  ETEST   =  0.00D+00  EDENS   =  0.00D+00  THRDEDEF=  1.00D-06  GRADIENT=  1.00D-02  STEP    =  1.00D-03
 ORBITAL =  1.00D-10  CIVEC   =  1.00D-05  COEFF   =  1.00D-04  PRINTCI =  5.00D-02  PUNCHCI =  9.90D+01  OPTGRAD =  3.00D-04
 OPTENERG=  1.00D-06  OPTSTEP =  3.00D-04  THRGRAD =  1.00D-10  COMPRESS=  1.00D-11  VARMIN  =  1.00D-07  VARMAX  =  1.00D-03
 THRDOUB =  0.00D+00  THRDIV  =  1.00D-05  THRRED  =  1.00D-07  THRPSP  =  1.00D+00  THRDC   =  1.00D-10  THRCS   =  1.00D-10
 THRNRM  =  1.00D-08  THREQ   =  0.00D+00  THRDE   =  1.00D+00  THRREF  =  1.00D-05  SPARFAC =  1.00D+00  THRDLP  =  1.00D-07
 THRDIA  =  1.00D-10  THRDLS  =  1.00D-07  THRGPS  =  0.00D+00  THRKEX  =  0.00D+00  THRDIS  =  2.00D-01  THRVAR  =  1.00D-10
 THRLOC  =  1.00D-06  THRGAP  =  1.00D-06  THRLOCT = -1.00D+00  THRGAPT = -1.00D+00  THRORB  =  1.00D-06  THRMLTP =  0.00D+00
 THRCPQCI=  1.00D-10  KEXTA   =  0.00D+00  THRCOARS=  0.00D+00  SYMTOL  =  1.00D-06  GRADTOL =  1.00D-06  THROVL  =  1.00D-08
 THRORTH =  1.00D-08  GRID    =  1.00D-08  GRIDMAX =  1.00D-03  DTMAX   =  0.00D+00  THROCCDE=  1.00D-01  THROCCDE=  1.00D-01
 THRPRINT=  2.50D-01


 Variable memory set to 2000000000 words,  buffer space 

 ZSYMEL=NOSYM
 ZUNIT=ANG


Geometry recognized as XYZ

 SETTING NKERNA         =         1.00000000                                  
 SETTING NKERNB         =         1.00000000                                  
 SETTING GF             =     0.00000000D+00                                  
 SETTING SING           =         1.00000000                                  
 SETTING THRDUM         =     1.00000000D-04                                  
 SETTING GRIDTHR        =     1.00000000D-08                                  
 SETTING BASIS          =    AVQZ


 Recomputing integrals since basis changed


 Using spherical harmonics

 Library entry O      S aug-cc-pVQZ          selected for orbital group  1
 Library entry O      P aug-cc-pVQZ          selected for orbital group  1
 Library entry O      D aug-cc-pVQZ          selected for orbital group  1
 Library entry O      F aug-cc-pVQZ          selected for orbital group  1
 Library entry O      G aug-cc-pVQZ          selected for orbital group  1
 Library entry H      S aug-cc-pVQZ          selected for orbital group  2
 Library entry H      P aug-cc-pVQZ          selected for orbital group  2
 Library entry H      D aug-cc-pVQZ          selected for orbital group  2
 Library entry H      F aug-cc-pVQZ          selected for orbital group  2
 Library entry C      S aug-cc-pVQZ          selected for orbital group  3
 Library entry C      P aug-cc-pVQZ          selected for orbital group  3
 Library entry C      D aug-cc-pVQZ          selected for orbital group  3
 Library entry C      F aug-cc-pVQZ          selected for orbital group  3
 Library entry C      G aug-cc-pVQZ          selected for orbital group  3


 PROGRAM * SEWARD (Integral evaluation for generally contracted gaussian basis sets)     Author: Roland Lindh, 1990

 Geometry written to block  1 of record 700


 Point group  C1  



 ATOMIC COORDINATES

 NR  ATOM    CHARGE       X              Y              Z

   1  O20     8.00  -12.400004884    5.677493169    4.606774346
   2  H39     1.00  -12.146781583    3.932709038    5.214888213
   3  H40     1.00  -11.104030708    6.694165824    5.446946581
   4  C1      6.00   -6.193010455    2.801518980    2.403542658
   5  H41     1.00   -4.656285171    1.699997622    3.119937832
   6  H42     1.00   -5.973046335    4.726205038    2.982932688
   7  H43     1.00   -7.940251230    2.077186956    3.118237078
   8  H44     1.00   -6.176569838    2.685300823    0.384937212

 Bond lengths in Bohr (Angstrom)

 1-2  1.864992273  1-3  1.849070506  4-5  2.021904040  4-6  2.022002335  4-7  2.021953343
     ( 0.986911409)     ( 0.978485973)     ( 1.069945541)     ( 1.069997556)     ( 1.069971630)

 4-8  2.022015060
     ( 1.070004290)

 Bond angles

  2-1-3  105.72790617   5-4-6  109.53398059   5-4-7  109.65604535   5-4-8  108.43490854

  6-4-7  109.49436728   6-4-8  109.86987750   7-4-8  109.83468330

 NUCLEAR CHARGE:                   20
 NUMBER OF PRIMITIVE AOS:         578
 NUMBER OF SYMMETRY AOS:          474
 NUMBER OF CONTRACTIONS:          436   (  436A   )
 NUMBER OF CORE ORBITALS:           2   (    2A   )
 NUMBER OF VALENCE ORBITALS:       14   (   14A   )


 NUCLEAR REPULSION ENERGY   36.69183171


 Basis set:  JKFIT                   
 Basis size:  1104
 Attributes:
 Sphericals:   T
 Basis set:  MP2FIT                  
 Basis size:  1246
 Attributes:
 Sphericals:   T
 Basis set:  RI                      
 Basis size:   730
 Attributes:
 Sphericals:   T
 Basis set:  TDDFT                   
 Basis size:  1246
 Attributes:
 Sphericals:   T

 **********************************************************************************************************************************


 Eigenvalues of metric

         1 0.158E-04 0.271E-04 0.337E-04 0.353E-04 0.659E-04 0.911E-04 0.963E-04 0.106E-03


 Contracted 2-electron integrals neglected if value below      1.0D-14
 AO integral compression algorithm  1   Integral accuracy      1.0D-14

     24040.178 MB (compressed) written to integral file ( 60.0%)

     Node minimum: 5578.162 MB, node maximum: 6419.382 MB


 NUMBER OF SORTED TWO-ELECTRON INTEGRALS: 1134451344.     BUFFER LENGTH:  32768
 NUMBER OF SEGMENTS:  36  SEGMENT LENGTH:   31999984      RECORD LENGTH: 524288

 Memory used in sort:      32.56 MW

 SORT1 READ  5012305700. AND WROTE   987306262. INTEGRALS IN   2841 RECORDS. CPU TIME:    99.98 SEC, REAL TIME:   112.73 SEC
 SORT2 READ  3948989475. AND WROTE  4537853011. INTEGRALS IN  93804 RECORDS. CPU TIME:    19.05 SEC, REAL TIME:    26.59 SEC

 Node minimum:  1134427528.  Node maximum:  1134498978. integrals

 OPERATOR DM      FOR CENTER  0  COORDINATES:    0.000000    0.000000    0.000000


 **********************************************************************************************************************************
 DATASETS  * FILE   NREC   LENGTH (MB)   RECORD NAMES
              1      18       37.12       500      610      700      900      950      970     1000      129      960     1100   
                                          VAR    BASINP    GEOM    SYMINP    ZMAT    AOBASIS   BASIS     P2S    ABASIS      S 
                                         1400     1410     1200     1210     1080     1600     1650     1700   
                                           T        V       H0       H01     AOSYM     SMH    MOLCAS    OPER   

 PROGRAMS   *        TOTAL       INT
 CPU TIMES  *       185.20    184.97
 REAL TIME  *       215.22 SEC
 DISK USED  *        37.64 MB (local),       71.31 GB (total)
 GA USED    *         0.00 MB       (max)       0.00 MB       (current)
 **********************************************************************************************************************************


 PROGRAM * RHF-SCF (CLOSED SHELL)       Authors: W. Meyer, H.-J. Werner


 NUMBER OF ELECTRONS:      10+   10-    SPACE SYMMETRY=1    SPIN SYMMETRY: Singlet 
 CONVERGENCE THRESHOLDS:    1.00E-08 (Density)    1.00E-11 (Energy)
 MAX. NUMBER OF ITERATIONS:       60
 INTERPOLATION TYPE:            DIIS
 INTERPOLATION STEPS:              2 (START)      1 (STEP)
 LEVEL SHIFTS:                  0.00 (CLOSED)  0.00 (OPEN) 



 Orbital guess generated from atomic densities. Full valence occupancy:   16

 Molecular orbital dump at record        2100.2

 Initial occupancy:  10

 ITERATION    DDIFF          GRAD             ENERGY        2-EL.EN.            DIPOLE MOMENTS         DIIS   ORB.
    1      0.000D+00      0.000D+00      -116.21958934    158.815108    0.79897   -0.37770    0.73996    0    start
    2      0.000D+00      0.379D-02      -116.26380746    153.968704    0.47202   -0.21001    0.38280    1    diag
    3      0.272D-02      0.223D-02      -116.27747988    156.001832    0.55486   -0.25178    0.47549    2    diag
    4      0.949D-03      0.333D-03      -116.27814841    155.889579    0.54665   -0.24781    0.46946    3    diag
    5      0.204D-03      0.976D-04      -116.27821853    155.884082    0.54648   -0.24770    0.46890    4    diag
    6      0.819D-04      0.237D-04      -116.27822244    155.889817    0.54595   -0.24752    0.46835    5    diag
    7      0.220D-04      0.474D-05      -116.27822267    155.888133    0.54596   -0.24754    0.46837    6    diag
    8      0.640D-05      0.121D-05      -116.27822269    155.888310    0.54591   -0.24752    0.46831    7    diag
    9      0.141D-05      0.284D-06      -116.27822269    155.888282    0.54590   -0.24752    0.46830    8    diag
   10      0.411D-06      0.343D-07      -116.27822269    155.888284    0.54590   -0.24751    0.46830    9    orth
   11      0.436D-07      0.864D-08      -116.27822269    155.888285    0.54590   -0.24751    0.46830    9    diag
   12      0.940D-08      0.241D-08      -116.27822269    155.888285    0.54590   -0.24751    0.46830    0    orth

 Final occupancy:  10

 !RHF STATE  1.1 Energy              -116.278222692641
 Nuclear energy                        36.69183171
 One-electron energy                 -230.91419693
 Two-electron energy                   77.94414252
 Virial quotient                       -1.00083999
 !RHF STATE  1.1 Dipole moment          0.54589725    -0.24751478     0.46829514
 Dipole moment /Debye                   1.38744153    -0.62907863     1.19020957

 Orbital energies:

         1.1          2.1          3.1          4.1          5.1          6.1          7.1          8.1          9.1         10.1
    -20.567600   -11.200260    -1.338603    -0.954580    -0.705709    -0.577851    -0.556118    -0.554320    -0.551210    -0.506704

        11.1         12.1
      0.023591     0.038554


 HOMO     10.1    -0.506704 =     -13.7881eV
 LUMO     11.1     0.023591 =       0.6419eV
 LUMO-HOMO         0.530295 =      14.4301eV


 **********************************************************************************************************************************
 DATASETS  * FILE   NREC   LENGTH (MB)   RECORD NAMES
              1      18       37.12       500      610      700      900      950      970     1000      129      960     1100   
                                          VAR    BASINP    GEOM    SYMINP    ZMAT    AOBASIS   BASIS     P2S    ABASIS      S 
                                         1400     1410     1200     1210     1080     1600     1650     1700   
                                           T        V       H0       H01     AOSYM     SMH    MOLCAS    OPER   

              2       4        6.75       700     1000      520     2100   
                                         GEOM     BASIS   MCVARS     RHF  

 PROGRAMS   *        TOTAL    HF-SCF       INT
 CPU TIMES  *       401.89    216.69    184.97
 REAL TIME  *       449.94 SEC
 DISK USED  *        57.70 MB (local),       71.39 GB (total)
 SF USED    *         0.76 MB
 GA USED    *         0.00 MB       (max)       0.00 MB       (current)
 **********************************************************************************************************************************

 Basis set:  JKFIT                   
 Basis size:  1104
 Attributes:
 Sphericals:   T
 Basis set:  MP2FIT                  
 Basis size:  1246
 Attributes:
 Sphericals:   T
 Basis set:  RI                      
 Basis size:   730
 Attributes:
 Sphericals:   T
 Basis set:  TDDFT                   
 Basis size:  1246
 Attributes:
 Sphericals:   T

 PROGRAM * CCSD (Closed-shell coupled cluster)     Authors: C. Hampel, H.-J. Werner, 1991, M. Deegan, P.J. Knowles, 1992

                                  CCSD-F12 implementation by  H.-J. Werner, 2007

                   Density fitting integral evaluation by F.R. Manby, 2003,2007, G. Knizia, 2010



 Convergence thresholds:  THRVAR = 1.00D-08  THRDEN = 1.00D-10

 CCSD(T)     terms to be evaluated (factor= 1.000)


 Number of core orbitals:           2 (   2 )
 Number of closed-shell orbitals:   8 (   8 )
 Number of external orbitals:     426 ( 426 )

 Molecular orbitals read from record     2100.2  Type=RHF/CANONICAL (state 1.1)

 MP2-F12 correlation treatment (H.-J. Werner, 2006)
 ==================================================

 Using MP2-F12 with ansatz 3C(FIX)

 Using projected zeroth-order Hamiltonian (+Z)

 FOCKRIB=T FOCKRIC=T FOCKRIP=T CABSP=T CABSA=T CABSK=T CABSF=T GBC=F EBC=F DMAT=T NOFIK=T NOPAO=1 SOLVE=-1  USEPAO=0
 EXCH_A= T EXCH_B= F EXCH_C= F EXCH_P= F

 Geminal basis:    OPTFULL  GEM_TYPE=SLATER  BETA=1.0  NGEM=6

 Optimizing Gaussian exponents for each gem_beta

 Geminal optimization for beta= 1.0000
 Weight function:   m=0, omega= 1.4646

 Augmented Hessian optimization of geminal fit. Trust ratio= 0.40000
 Convergence reached after   2 iterations. Final gradient= 7.85D-16, Step= 4.26D-06, Delta= 1.28D-09

 Alpha:                 0.19532     0.81920     2.85917     9.50073    35.69989   197.79328
 Coeff:                 0.27070     0.30552     0.18297     0.10986     0.06810     0.04224


 All pairs explicitly correlated. Number of r12-pairs:           36

 Excluding core orbitals from MO domains

 AO(A)-basis ORBITAL           loaded. Number of functions:     436
 RI(R)-basis RI                loaded. Number of functions:     730
 DF-basis JKFIT                loaded. Number of functions:    1104

 Screening thresholds:   THRAO=  1.00D-10  THRMO=  1.00D-09  THRPROD=  1.00D-09
                         THRSW=  1.00D-05  THROV=  1.00D-12  THRAOF12= 1.00D-10

 CPU time for Fock operators                     11.49 sec

 Construction of ABS:
 Smallest eigenvalue of S          2.27E-04  (threshold= 1.00E-08)
 Ratio eigmin/eigmax               3.94E-05  (threshold= 1.00E-09)
 Smallest eigenvalue of S kept     2.27E-04  (threshold= 2.27E-04, 0 functions deleted, 730 kept)

 Construction of CABS:
 Smallest eigenvalue of S          1.53E-08  (threshold= 1.00E-08)
 Ratio eigmin/eigmax               1.53E-08  (threshold= 1.00E-09)
 Smallest eigenvalue of S kept     1.53E-08  (threshold= 1.53E-08, 0 functions deleted, 730 kept)

 CPU time for CABS singles                        2.13 sec

 CABS-singles contribution of  -0.00053458 patched into reference energy.
 New reference energy        -116.27875728

 AO(A)-basis ORBITAL           loaded. Number of functions:     436
 RI(R)-basis RI                loaded. Number of functions:     730
 DF-basis MP2FIT               loaded. Number of functions:    1246

 Screening thresholds:   THRAO=  1.00D-10  THRMO=  1.00D-09  THRPROD=  1.00D-09
                         THRSW=  1.00D-05  THROV=  1.00D-12  THRAOF12= 1.00D-10

 CPU time for 3-index integral evaluation        19.00 sec
 CPU time for first  half transformation          4.13 sec ( 3131.2 MFLOP/sec)
 CPU time for second half transformation          0.09 sec ( 1684.3 MFLOP/sec)
 CPU time for sorting                             0.17 sec
 CPU time for fitting                             1.70 sec ( 4369.0 MFLOP/sec)
 CPU time for tilde quantities                    2.25 sec ( 4476.8 MFLOP/sec)
 CPU time for assembly                           15.86 sec ( 4471.5 MFLOP/sec)
 CPU time for tranop_f12                         15.52 sec ( 4441.0 MFLOP/sec)
 CPU time for f12 integrals (total)              80.39 sec, Elapsed time:     82.97 sec
 F12-matrices built in  4 passes.
 F12-matrices built in  4 passes.
 F12-matrices built in  4 passes.
 F12-matrices built in  4 passes.
 FC-matrix built in  4 passes.
 CPU time for f12 matrices (total)                5.61 sec, Elapsed time:      5.73 sec

 Diagonal F12 approximation with fixed coefficients:  TSING= 0.500,  TTRIP= 0.250 (scaled by -1/beta)

 DF-MP2-F12 energy corrections:
 ==============================
 Approx.                                    Singlet             Triplet             Total
 DF-MP2-F12/3*C(DX,FIX)                -0.021210269115     -0.002108289525     -0.023318558640
 DF-MP2-F12/3*C(FIX)                   -0.019143050464     -0.001554623272     -0.020697673736
 DF-MP2-F12/3C(FIX)                    -0.019159453081     -0.001605805622     -0.020765258704

 DF-MP2-F12 correlation energies:
 ================================
 Approx.                                    Singlet             Triplet             Ecorr            Total Energy
 DF-MP2                                -0.341012755848     -0.158499553630     -0.499512309478   -116.778269585614
 DF-MP2-F12/3*C(DX,FIX)                -0.362223024963     -0.160607843155     -0.522830868117   -116.801588144253
 DF-MP2-F12/3*C(FIX)                   -0.360155806311     -0.160054176902     -0.520209983214   -116.798967259350
 DF-MP2-F12/3C(FIX)                    -0.360172208929     -0.160105359253     -0.520277568182   -116.799034844318

 SCS-DF-MP2 energies (F_SING= 1.20000  F_TRIP= 0.62222  F_PARALLEL= 0.33333):
 ============================================================================
 SCS-DF-MP2                            -0.507837251498   -116.786594527634
 SCS-DF-MP2-F12/3*C(DX,FIX)            -0.534601399029   -116.813358675165
 SCS-DF-MP2-F12/3*C(FIX)               -0.531776233202   -116.810533509338
 SCS-DF-MP2-F12/3C(FIX)                -0.531827763139   -116.810585039275
 Symmetry transformation completed.

 Number of N-1 electron functions:               8
 Number of N-2 electron functions:              36
 Number of singly external CSFs:              3408
 Number of doubly external CSFs:           5808936
 Total number of CSFs:                     5812345

 Pair and operator lists are different

 Length of J-op  integral file:               0.75 GB
 Length of K-op  integral file:               0.98 GB
 Length of 3-ext integral record:             0.00 MB

 Memory could be reduced to 828.63 Mwords without degradation in triples

 Integral transformation finished. Total CPU: 303.81 sec, npass=  1  Memory used: 389.45 MW

 Reference energy:                   -116.27875728

 Adding F12 terms to K(Cij), methodcc=6,  factor= 1.0

 ITER.      SQ.NORM     CORR.ENERGY   TOTAL ENERGY   ENERGY CHANGE        DEN1      VAR(S)    VAR(P)  DIIS     TIME  TIME/IT
   1      1.13431050    -0.51313071  -116.79188799    -0.01360907    -0.00162866  0.14D-02  0.20D-02  1  1   567.57   157.24
   2      1.14263163    -0.51378256  -116.79253984    -0.00065185    -0.01004593  0.30D-04  0.24D-03  2  2   724.81   158.17
   3      1.14570096    -0.51397649  -116.79273377    -0.00019393    -0.00215394  0.13D-04  0.14D-04  3  3   882.51   158.67
   4      1.14669523    -0.51399586  -116.79275314    -0.00001937    -0.00059055  0.67D-06  0.13D-05  4  4  1040.14   158.87
   5      1.14686704    -0.51399559  -116.79275286     0.00000028    -0.00004089  0.21D-06  0.93D-07  5  5  1198.05   159.09
   6      1.14691143    -0.51399273  -116.79275000     0.00000286    -0.00000633  0.23D-07  0.83D-08  6  6  1355.48   159.15
   7      1.14692335    -0.51399146  -116.79274874     0.00000126    -0.00000358  0.21D-08  0.89D-09  6  1  1512.89   159.22
   8      1.14692502    -0.51399148  -116.79274875    -0.00000002     0.00000033  0.40D-09  0.12D-09  6  3  1670.50   159.26
   9      1.14692625    -0.51399141  -116.79274869     0.00000007    -0.00000035  0.35D-10  0.19D-10  6  2  1827.90   159.27
  10      1.14692629    -0.51399142  -116.79274869    -0.00000000     0.00000011  0.96D-11  0.43D-11  6  3  1985.34   159.28
  11      1.14692637    -0.51399142  -116.79274869     0.00000000     0.00000003  0.70D-12  0.34D-12  6  5  2142.68   159.29
  12      1.14692639    -0.51399142  -116.79274869     0.00000000     0.00000000  0.13D-12  0.54D-13  6  4  2300.01   159.29
  13      1.14692638    -0.51399142  -116.79274869    -0.00000000     0.00000000  0.22D-13  0.69D-14  6  6  2457.36   159.29
  14      1.14692639    -0.51399142  -116.79274869    -0.00000000    -0.00000000  0.48D-14  0.17D-14  6  3  2614.74   159.30
  15      1.14692639    -0.51399142  -116.79274869    -0.00000000    -0.00000000  0.50D-15  0.19D-15  6  1  2772.12   159.30
  16      1.14692638    -0.51399142  -116.79274869    -0.00000000     0.00000000  0.59D-16  0.32D-16  6  4  2929.34   159.29

 Norm of t1 vector:      0.05015826      S-energy:    -0.00000000      T1 diagnostic:  0.00886681
                                                                       D1 diagnostic:  0.01940625

 Adding energy correction from Wij-K(Fij), methodcc=6  factor= 1.0

  CCSD correlation energy              -0.513991416307
  MP2-F12 correction (uncoupled)       -0.020197226452
  C*T doubles correction               -0.000548522233
  f12b correction                       0.004654702705

   CPU time for triples:   1811.04 sec for i =  1 -  7 /  8 (~  68.8 % done)
   CPU time for triples:   1003.83 sec for i =  8 -  8 /  8 (  100.0 % done)

 Total CPU time for triples:   2814.90 sec

  Ecorr(MP2)                           -0.499521646015
  Ecorr(MP2-F12)                       -0.520286904719
  Scale factor for triples energy       1.041570288034


 RESULTS
 =======

  Reference energy                   -116.278222692644
  F12 singles correction               -0.000534583492

 F12 singles corrections added to reference energy

  New reference energy               -116.278757276136

  F12a singlet correction              -0.019128786149
  F12a triplet correction              -0.001616962536
  F12a total correction                -0.020745748685

 F12a corrections for ansatz F12/3C(FIX) added to CCSD energy

  CCSD-F12a singlet pair energy        -0.388168857904
  CCSD-F12a triplet pair energy        -0.146568306817
  CCSD-F12a correlation energy         -0.534737164992

  Triples (T) contribution (scaled)    -0.017181700135
  Total correlation energy             -0.551918865127

  CCSD-F12a total energy             -116.813494441128
  CCSD[T]-F12a energy                -116.831247958210
  CCSD-T-F12a energy                 -116.830459751993
 !CCSD(T)-F12a total energy          -116.830676141262

 F12b corrections for ansatz F12/3C(FIX) added to CCSD(T)-F12a energy

  CCSD-F12b singlet pair energy        -0.383729146797
  CCSD-F12b triplet pair energy        -0.146353315219
  CCSD-F12b correlation energy         -0.530082462287

  Triples (T) contribution (scaled)    -0.017181700135
  Total correlation energy             -0.547264162422

  CCSD-F12b total energy             -116.808839738423
  CCSD[T]-F12b energy                -116.826593255506
  CCSD-T-F12b energy                 -116.825805049288
 !CCSD(T)-F12b total energy          -116.826021438558

 Timing summary (sec):

 STEP                 CPU(USER)    SYS     CPU(TOT)    WALL
 Transformation        304.99      6.31    311.30    312.48
 CCSD iterations      2517.64     27.45   2545.09   2548.93
 Triples              2814.90      5.91   2820.81   2824.64
 MP2-F12               106.80      3.11    109.91    110.11
 F12b energy           135.13      1.07    136.20    136.38

 Program statistics:

 Available memory in ccsd:              1999999554
 Min. memory needed in ccsd:              16971337
 Max. memory used in ccsd:                21987113
 Max. memory used in cckext:              15122080 (17 integral passes)



 **********************************************************************************************************************************
 DATASETS  * FILE   NREC   LENGTH (MB)   RECORD NAMES
              1      19     2602.04       500      610      700      900      950      970     1000      129      960     1100   
                                          VAR    BASINP    GEOM    SYMINP    ZMAT    AOBASIS   BASIS     P2S    ABASIS      S 
                                         1400     1410     1200     1210     1080     1600     1650     1700     1380   
                                           T        V       H0       H01     AOSYM     SMH    MOLCAS    OPER     JKOP   

              2       6       10.56       700     1000      520     2100     7360     7350   
                                         GEOM     BASIS   MCVARS     RHF    F12ABS    EF12   

 PROGRAMS   *        TOTAL   CCSD(T)    HF-SCF       INT
 CPU TIMES  *      6281.60   5879.69    216.69    184.97
 REAL TIME  *      6383.83 SEC
 DISK USED  *         3.24 GB (local),       82.23 GB (total)
 SF USED    *         5.12 GB
 GA USED    *         4.87 MB       (max)       0.00 MB       (current)
 **********************************************************************************************************************************

 Running procedure: SET_MONOMER1

 Dummy atoms: C1  H41  H42  H43  H44


 Recomputing one-electron integrals since nuclear charges changed


 PROGRAM * SEWARD (Integral evaluation for generally contracted gaussian basis sets)     Author: Roland Lindh, 1990

 Geometry written to block  1 of record 700


 Point group  C1  



 ATOMIC COORDINATES

 NR  ATOM    CHARGE       X              Y              Z

   1  O20     8.00  -12.400004884    5.677493169    4.606774346
   2  H39     1.00  -12.146781583    3.932709038    5.214888213
   3  H40     1.00  -11.104030708    6.694165824    5.446946581
   4  C1      0.00   -6.193010455    2.801518980    2.403542658
   5  H41     0.00   -4.656285171    1.699997622    3.119937832
   6  H42     0.00   -5.973046335    4.726205038    2.982932688
   7  H43     0.00   -7.940251230    2.077186956    3.118237078
   8  H44     0.00   -6.176569838    2.685300823    0.384937212

 Bond lengths in Bohr (Angstrom)

 1-2  1.864992273  1-3  1.849070506  4-5  2.021904040  4-6  2.022002335  4-7  2.021953343
     ( 0.986911409)     ( 0.978485973)     ( 1.069945541)     ( 1.069997556)     ( 1.069971630)

 4-8  2.022015060
     ( 1.070004290)

 Bond angles

  2-1-3  105.72790617   5-4-6  109.53398059   5-4-7  109.65604535   5-4-8  108.43490854

  6-4-7  109.49436728   6-4-8  109.86987750   7-4-8  109.83468330

 NUCLEAR CHARGE:                   10
 NUMBER OF PRIMITIVE AOS:         578
 NUMBER OF SYMMETRY AOS:          474
 NUMBER OF CONTRACTIONS:          436   (  436A   )
 NUMBER OF CORE ORBITALS:           1   (    1A   )
 NUMBER OF VALENCE ORBITALS:        6   (    6A   )

 MOLECULE CHANGED: INITIALIZING OCCUPATION AND DUMP RECORDS


 NUCLEAR REPULSION ENERGY    8.95379726

 Basis set:  JKFIT                   
 Basis size:  1104
 Attributes:
 Sphericals:   T
 Basis set:  MP2FIT                  
 Basis size:  1246
 Attributes:
 Sphericals:   T
 Basis set:  RI                      
 Basis size:   730
 Attributes:
 Sphericals:   T
 Basis set:  TDDFT                   
 Basis size:  1246
 Attributes:
 Sphericals:   T

 Eigenvalues of metric

         1 0.158E-04 0.271E-04 0.337E-04 0.353E-04 0.659E-04 0.911E-04 0.963E-04 0.106E-03


 Contracted 2-electron integrals neglected if value below      1.0D-14

 OPERATOR DM      FOR CENTER  0  COORDINATES:    0.000000    0.000000    0.000000


 **********************************************************************************************************************************
 DATASETS  * FILE   NREC   LENGTH (MB)   RECORD NAMES
              1      18       37.12       500      610      700      900      950      970     1000      129      960     1100   
                                          VAR    BASINP    GEOM    SYMINP    ZMAT    AOBASIS   BASIS     P2S    ABASIS      S 
                                         1400     1410     1200     1210     1080     1600     1650     1700   
                                           T        V       H0       H01     AOSYM     SMH    MOLCAS    OPER   

              2       7       10.59       700     1000      520     2100     7360     7350      200   
                                         GEOM     BASIS   MCVARS     RHF    F12ABS    EF12    OPTIONS    

 PROGRAMS   *        TOTAL       INT   CCSD(T)    HF-SCF       INT
 CPU TIMES  *      6281.98      0.38   5879.69    216.69    184.97
 REAL TIME  *      6385.08 SEC
 DISK USED  *         3.24 GB (local),       82.23 GB (total)
 SF USED    *         5.12 GB
 GA USED    *         4.87 MB       (max)       0.00 MB       (current)
 **********************************************************************************************************************************


 PROGRAM * RHF-SCF (CLOSED SHELL)       Authors: W. Meyer, H.-J. Werner


 NUMBER OF ELECTRONS:       5+    5-    SPACE SYMMETRY=1    SPIN SYMMETRY: Singlet 
 CONVERGENCE THRESHOLDS:    1.00E-08 (Density)    1.00E-11 (Energy)
 MAX. NUMBER OF ITERATIONS:       60
 INTERPOLATION TYPE:            DIIS
 INTERPOLATION STEPS:              2 (START)      1 (STEP)
 LEVEL SHIFTS:                  0.00 (CLOSED)  0.00 (OPEN) 



 Orbital guess generated from atomic densities. Full valence occupancy:    7

 Molecular orbital dump at record        2101.2

 Initial occupancy:   5

 ITERATION    DDIFF          GRAD             ENERGY        2-EL.EN.            DIPOLE MOMENTS         DIIS   ORB.
    1      0.000D+00      0.000D+00       -76.02435678     77.350125    0.79416   -0.37640    0.74315    0    start
    2      0.000D+00      0.467D-02       -76.05108072     73.680799    0.46049   -0.21541    0.43027    1    diag
    3      0.221D-02      0.299D-02       -76.06275492     75.311929    0.54382   -0.25501    0.50827    2    diag
    4      0.844D-03      0.279D-03       -76.06295153     75.220440    0.54048   -0.25286    0.50502    3    diag
    5      0.105D-03      0.786D-04       -76.06297304     75.234839    0.53924   -0.25203    0.50380    4    diag
    6      0.333D-04      0.157D-04       -76.06297446     75.233777    0.53896   -0.25182    0.50353    5    diag
    7      0.864D-05      0.320D-05       -76.06297453     75.233926    0.53887   -0.25176    0.50343    6    diag
    8      0.246D-05      0.602D-06       -76.06297453     75.233910    0.53884   -0.25174    0.50341    7    diag
    9      0.445D-06      0.821D-07       -76.06297453     75.233902    0.53884   -0.25174    0.50340    8    diag
   10      0.498D-07      0.188D-07       -76.06297453     75.233905    0.53884   -0.25174    0.50340    9    orth
   11      0.130D-07      0.322D-08       -76.06297453     75.233904    0.53884   -0.25174    0.50340    9    diag
   12      0.246D-08      0.552D-09       -76.06297453     75.233904    0.53884   -0.25174    0.50340    0    orth

 Final occupancy:   5

 !RHF STATE  1.1 Energy               -76.062974531658
 Nuclear energy                         8.95379726
 One-electron energy                 -122.63372395
 Two-electron energy                   37.61695216
 Virial quotient                       -1.00220545
 !RHF STATE  1.1 Dipole moment          0.53883529    -0.25173675     0.50340370
 Dipole moment /Debye                   1.36949299    -0.63980908     1.27944079

 Orbital energies:

         1.1          2.1          3.1          4.1          5.1          6.1          7.1
    -20.568547    -1.339268    -0.706277    -0.577740    -0.508078     0.017733     0.036657


 HOMO      5.1    -0.508078 =     -13.8255eV
 LUMO      6.1     0.017733 =       0.4825eV
 LUMO-HOMO         0.525811 =      14.3081eV


 **********************************************************************************************************************************
 DATASETS  * FILE   NREC   LENGTH (MB)   RECORD NAMES
              1      18       37.12       500      610      700      900      950      970     1000      129      960     1100   
                                          VAR    BASINP    GEOM    SYMINP    ZMAT    AOBASIS   BASIS     P2S    ABASIS      S 
                                         1400     1410     1200     1210     1080     1600     1650     1700   
                                           T        V       H0       H01     AOSYM     SMH    MOLCAS    OPER   

              2       8       17.39       700     1000      520     2100     7360     7350      200     2101   
                                         GEOM     BASIS   MCVARS     RHF    F12ABS    EF12    OPTIONS    RHF  

 PROGRAMS   *        TOTAL    HF-SCF       INT   CCSD(T)    HF-SCF       INT
 CPU TIMES  *      6490.35    208.36      0.38   5879.69    216.69    184.97
 REAL TIME  *      6609.19 SEC
 DISK USED  *         3.24 GB (local),       82.23 GB (total)
 SF USED    *         5.12 GB
 GA USED    *         4.87 MB       (max)       0.00 MB       (current)
 **********************************************************************************************************************************

 Basis set:  JKFIT                   
 Basis size:  1104
 Attributes:
 Sphericals:   T
 Basis set:  MP2FIT                  
 Basis size:  1246
 Attributes:
 Sphericals:   T
 Basis set:  RI                      
 Basis size:   730
 Attributes:
 Sphericals:   T
 Basis set:  TDDFT                   
 Basis size:  1246
 Attributes:
 Sphericals:   T

 PROGRAM * CCSD (Closed-shell coupled cluster)     Authors: C. Hampel, H.-J. Werner, 1991, M. Deegan, P.J. Knowles, 1992

                                  CCSD-F12 implementation by  H.-J. Werner, 2007

                   Density fitting integral evaluation by F.R. Manby, 2003,2007, G. Knizia, 2010



 Convergence thresholds:  THRVAR = 1.00D-08  THRDEN = 1.00D-10

 CCSD(T)     terms to be evaluated (factor= 1.000)


 Number of core orbitals:           1 (   1 )
 Number of closed-shell orbitals:   4 (   4 )
 Number of external orbitals:     431 ( 431 )

 Molecular orbitals read from record     2101.2  Type=RHF/CANONICAL (state 1.1)

 MP2-F12 correlation treatment (H.-J. Werner, 2006)
 ==================================================

 Using MP2-F12 with ansatz 3C(FIX)

 Using projected zeroth-order Hamiltonian (+Z)

 FOCKRIB=T FOCKRIC=T FOCKRIP=T CABSP=T CABSA=T CABSK=T CABSF=T GBC=F EBC=F DMAT=T NOFIK=T NOPAO=1 SOLVE=-1  USEPAO=0
 EXCH_A= T EXCH_B= F EXCH_C= F EXCH_P= F

 Geminal basis:    OPTFULL  GEM_TYPE=SLATER  BETA=1.0  NGEM=6

 Optimizing Gaussian exponents for each gem_beta

 Geminal optimization for beta= 1.0000
 Weight function:   m=0, omega= 1.4646

 Augmented Hessian optimization of geminal fit. Trust ratio= 0.40000
 Convergence reached after   2 iterations. Final gradient= 8.31D-16, Step= 4.24D-06, Delta= 1.28D-09

 Alpha:                 0.19532     0.81920     2.85917     9.50073    35.69989   197.79328
 Coeff:                 0.27070     0.30552     0.18297     0.10986     0.06810     0.04224


 All pairs explicitly correlated. Number of r12-pairs:           10

 Excluding core orbitals from MO domains

 AO(A)-basis ORBITAL           loaded. Number of functions:     436
 RI(R)-basis RI                loaded. Number of functions:     730
 DF-basis JKFIT                loaded. Number of functions:    1104

 Screening thresholds:   THRAO=  1.00D-10  THRMO=  1.00D-09  THRPROD=  1.00D-09
                         THRSW=  1.00D-05  THROV=  1.00D-12  THRAOF12= 1.00D-10

 CPU time for Fock operators                      9.44 sec

 Construction of ABS:
 Smallest eigenvalue of S          2.27E-04  (threshold= 1.00E-08)
 Ratio eigmin/eigmax               3.94E-05  (threshold= 1.00E-09)
 Smallest eigenvalue of S kept     2.27E-04  (threshold= 2.27E-04, 0 functions deleted, 730 kept)

 Construction of CABS:
 Smallest eigenvalue of S          1.53E-08  (threshold= 1.00E-08)
 Ratio eigmin/eigmax               1.53E-08  (threshold= 1.00E-09)
 Smallest eigenvalue of S kept     1.53E-08  (threshold= 1.53E-08, 0 functions deleted, 730 kept)

 CPU time for CABS singles                        2.18 sec

 CABS-singles contribution of  -0.00028855 patched into reference energy.
 New reference energy         -76.06326308

 AO(A)-basis ORBITAL           loaded. Number of functions:     436
 RI(R)-basis RI                loaded. Number of functions:     730
 DF-basis MP2FIT               loaded. Number of functions:    1246

 Screening thresholds:   THRAO=  1.00D-10  THRMO=  1.00D-09  THRPROD=  1.00D-09
                         THRSW=  1.00D-05  THROV=  1.00D-12  THRAOF12= 1.00D-10

 CPU time for 3-index integral evaluation        19.00 sec
 CPU time for first  half transformation          2.61 sec ( 2479.3 MFLOP/sec)
 CPU time for second half transformation          0.05 sec (  760.0 MFLOP/sec)
 CPU time for sorting                             0.06 sec
 CPU time for fitting                             1.04 sec ( 3496.1 MFLOP/sec)
 CPU time for tilde quantities                    1.55 sec ( 4691.6 MFLOP/sec)
 CPU time for assembly                            4.80 sec ( 3522.1 MFLOP/sec)
 CPU time for tranop_f12                          4.59 sec ( 2998.3 MFLOP/sec)
 CPU time for f12 integrals (total)              40.50 sec, Elapsed time:     41.32 sec
 F12-matrices built in  4 passes.
 F12-matrices built in  4 passes.
 F12-matrices built in  4 passes.
 F12-matrices built in  4 passes.
 FC-matrix built in  4 passes.
 CPU time for f12 matrices (total)                1.51 sec, Elapsed time:      1.54 sec

 Diagonal F12 approximation with fixed coefficients:  TSING= 0.500,  TTRIP= 0.250 (scaled by -1/beta)

 DF-MP2-F12 energy corrections:
 ==============================
 Approx.                                    Singlet             Triplet             Total
 DF-MP2-F12/3*C(DX,FIX)                -0.013709763523     -0.001529387167     -0.015239150690
 DF-MP2-F12/3*C(FIX)                   -0.012090133488     -0.001075907767     -0.013166041255
 DF-MP2-F12/3C(FIX)                    -0.012077378606     -0.001112981737     -0.013190360343

 DF-MP2-F12 correlation energies:
 ================================
 Approx.                                    Singlet             Triplet             Ecorr            Total Energy
 DF-MP2                                -0.186366675452     -0.101469703394     -0.287836378845    -76.351099461771
 DF-MP2-F12/3*C(DX,FIX)                -0.200076438975     -0.102999090561     -0.303075529536    -76.366338612461
 DF-MP2-F12/3*C(FIX)                   -0.198456808940     -0.102545611161     -0.301002420101    -76.364265503026
 DF-MP2-F12/3C(FIX)                    -0.198444054058     -0.102582685131     -0.301026739188    -76.364289822114

 SCS-DF-MP2 energies (F_SING= 1.20000  F_TRIP= 0.62222  F_PARALLEL= 0.33333):
 ============================================================================
 SCS-DF-MP2                            -0.286776714876    -76.350039797801
 SCS-DF-MP2-F12/3*C(DX,FIX)            -0.304180049785    -76.367443132711
 SCS-DF-MP2-F12/3*C(FIX)               -0.301954328783    -76.365217411709
 SCS-DF-MP2-F12/3C(FIX)                -0.301962091173    -76.365225174098
 Symmetry transformation completed.

 Number of N-1 electron functions:               4
 Number of N-2 electron functions:              10
 Number of singly external CSFs:              1724
 Number of doubly external CSFs:           1486950
 Total number of CSFs:                     1488675

 Pair and operator lists are different

 Length of J-op  integral file:             203.65 MB
 Length of K-op  integral file:             338.08 MB
 Length of 3-ext integral record:             0.00 MB

 Memory could be reduced to 526.20 Mwords without degradation in triples

 Integral transformation finished. Total CPU: 160.41 sec, npass=  1  Memory used: 214.75 MW

 Reference energy:                    -76.06326308

 Adding F12 terms to K(Cij), methodcc=6,  factor= 1.0

 ITER.      SQ.NORM     CORR.ENERGY   TOTAL ENERGY   ENERGY CHANGE        DEN1      VAR(S)    VAR(P)  DIIS     TIME  TIME/IT
   1      1.06376166    -0.28722783   -76.35049091     0.00061259     0.00682273  0.80D-03  0.11D-02  1  1   265.07    46.78
   2      1.06733208    -0.28703095   -76.35029404     0.00019688    -0.00491360  0.13D-04  0.12D-03  2  2   311.15    47.14
   3      1.06857973    -0.28712939   -76.35039247    -0.00009844    -0.00082838  0.99D-05  0.77D-05  3  3   357.34    47.27
   4      1.06914282    -0.28714456   -76.35040764    -0.00001516    -0.00034426  0.54D-06  0.74D-06  4  4   403.71    47.39
   5      1.06925002    -0.28714294   -76.35040603     0.00000161    -0.00003008  0.18D-06  0.58D-07  5  5   449.47    47.39
   6      1.06928363    -0.28714079   -76.35040388     0.00000215    -0.00000416  0.21D-07  0.50D-08  6  6   495.51    47.43
   7      1.06929314    -0.28714019   -76.35040327     0.00000061    -0.00000192  0.16D-08  0.79D-09  6  1   541.43    47.45
   8      1.06929457    -0.28714016   -76.35040325     0.00000002     0.00000020  0.34D-09  0.10D-09  6  3   587.68    47.47
   9      1.06929563    -0.28714011   -76.35040319     0.00000006    -0.00000027  0.24D-10  0.11D-10  6  2   633.66    47.47
  10      1.06929583    -0.28714010   -76.35040318     0.00000001     0.00000000  0.23D-11  0.13D-11  6  4   679.61    47.48
  11      1.06929582    -0.28714010   -76.35040318    -0.00000000     0.00000003  0.56D-12  0.19D-12  6  5   725.94    47.49
  12      1.06929582    -0.28714010   -76.35040318    -0.00000000     0.00000001  0.98D-13  0.29D-13  6  6   771.93    47.50
  13      1.06929581    -0.28714010   -76.35040318    -0.00000000     0.00000000  0.16D-13  0.51D-14  6  1   818.27    47.54
  14      1.06929581    -0.28714010   -76.35040318    -0.00000000     0.00000000  0.22D-14  0.92D-15  6  3   864.36    47.54
  15      1.06929581    -0.28714010   -76.35040318    -0.00000000    -0.00000000  0.19D-15  0.12D-15  6  2   910.68    47.55
  16      1.06929581    -0.28714010   -76.35040318     0.00000000    -0.00000000  0.40D-16  0.19D-16  6  4   956.79    47.55

 Norm of t1 vector:      0.03702785      S-energy:    -0.00000000      T1 diagnostic:  0.00925696
                                                                       D1 diagnostic:  0.01880030

 Adding energy correction from Wij-K(Fij), methodcc=6  factor= 1.0

  CCSD correlation energy              -0.287140098534
  MP2-F12 correction (uncoupled)       -0.012747670269
  C*T doubles correction               -0.000420889151
  f12b correction                       0.002714201220


 Total CPU time for triples:    420.98 sec

  Ecorr(MP2)                           -0.287840416611
  Ecorr(MP2-F12)                       -0.301030776954
  Scale factor for triples energy       1.045825254487


 RESULTS
 =======

  Reference energy                    -76.062974531658
  F12 singles correction               -0.000288551267

 F12 singles corrections added to reference energy

  New reference energy                -76.063263082925

  F12a singlet correction              -0.012046398152
  F12a triplet correction              -0.001122161268
  F12a total correction                -0.013168559420

 F12a corrections for ansatz F12/3C(FIX) added to CCSD energy

  CCSD-F12a singlet pair energy        -0.209545900004
  CCSD-F12a triplet pair energy        -0.090762757891
  CCSD-F12a correlation energy         -0.300308657954

  Triples (T) contribution (scaled)    -0.009971726551
  Total correlation energy             -0.310280384505

  CCSD-F12a total energy              -76.363571740879
  CCSD[T]-F12a energy                 -76.373873577940
  CCSD-T-F12a energy                  -76.373400047242
 !CCSD(T)-F12a total energy           -76.373543467430

 F12b corrections for ansatz F12/3C(FIX) added to CCSD(T)-F12a energy

  CCSD-F12b singlet pair energy        -0.206978388393
  CCSD-F12b triplet pair energy        -0.090616068282
  CCSD-F12b correlation energy         -0.297594456735

  Triples (T) contribution (scaled)    -0.009971726551
  Total correlation energy             -0.307566183285

  CCSD-F12b total energy              -76.360857539660
  CCSD[T]-F12b energy                 -76.371159376720
  CCSD-T-F12b energy                  -76.370685846022
 !CCSD(T)-F12b total energy           -76.370829266210

 Timing summary (sec):

 STEP                 CPU(USER)    SYS     CPU(TOT)    WALL
 Transformation        160.81      3.77    164.58    164.89
 CCSD iterations       737.40     22.15    759.55    760.96
 Triples               420.98      0.88    421.86    422.46
 MP2-F12                58.67      1.04     59.71     59.79
 F12b energy            42.70      1.13     43.83     43.89

 Program statistics:

 Available memory in ccsd:              1999999871
 Min. memory needed in ccsd:               6763924
 Max. memory used in ccsd:                 7862874
 Max. memory used in cckext:               5171974 (17 integral passes)



 **********************************************************************************************************************************
 DATASETS  * FILE   NREC   LENGTH (MB)   RECORD NAMES
              1      19     1346.98       500      610      700      900      950      970     1000      129      960     1100   
                                          VAR    BASINP    GEOM    SYMINP    ZMAT    AOBASIS   BASIS     P2S    ABASIS      S 
                                         1400     1410     1200     1210     1080     1600     1650     1700     1380   
                                           T        V       H0       H01     AOSYM     SMH    MOLCAS    OPER     JKOP   

              2       8       17.39       700     1000      520     2100     7360     7350      200     2101   
                                         GEOM     BASIS   MCVARS     RHF    F12ABS    EF12    OPTIONS    RHF  

 PROGRAMS   *        TOTAL   CCSD(T)    HF-SCF       INT   CCSD(T)    HF-SCF       INT
 CPU TIMES  *      7911.16   1420.81    208.36      0.38   5879.69    216.69    184.97
 REAL TIME  *      8062.20 SEC
 DISK USED  *         3.24 GB (local),       82.23 GB (total)
 SF USED    *         5.12 GB
 GA USED    *         4.87 MB       (max)       0.00 MB       (current)
 **********************************************************************************************************************************

 Running procedure: SET_MONOMER2

 Dummy atoms: O20  H39  H40


 Recomputing one-electron integrals since nuclear charges changed


 PROGRAM * SEWARD (Integral evaluation for generally contracted gaussian basis sets)     Author: Roland Lindh, 1990

 Geometry written to block  1 of record 700


 Point group  C1  



 ATOMIC COORDINATES

 NR  ATOM    CHARGE       X              Y              Z

   1  O20     0.00  -12.400004884    5.677493169    4.606774346
   2  H39     0.00  -12.146781583    3.932709038    5.214888213
   3  H40     0.00  -11.104030708    6.694165824    5.446946581
   4  C1      6.00   -6.193010455    2.801518980    2.403542658
   5  H41     1.00   -4.656285171    1.699997622    3.119937832
   6  H42     1.00   -5.973046335    4.726205038    2.982932688
   7  H43     1.00   -7.940251230    2.077186956    3.118237078
   8  H44     1.00   -6.176569838    2.685300823    0.384937212

 Bond lengths in Bohr (Angstrom)

 1-2  1.864992273  1-3  1.849070506  4-5  2.021904040  4-6  2.022002335  4-7  2.021953343
     ( 0.986911409)     ( 0.978485973)     ( 1.069945541)     ( 1.069997556)     ( 1.069971630)

 4-8  2.022015060
     ( 1.070004290)

 Bond angles

  2-1-3  105.72790617   5-4-6  109.53398059   5-4-7  109.65604535   5-4-8  108.43490854

  6-4-7  109.49436728   6-4-8  109.86987750   7-4-8  109.83468330

 NUCLEAR CHARGE:                   10
 NUMBER OF PRIMITIVE AOS:         578
 NUMBER OF SYMMETRY AOS:          474
 NUMBER OF CONTRACTIONS:          436   (  436A   )
 NUMBER OF CORE ORBITALS:           1   (    1A   )
 NUMBER OF VALENCE ORBITALS:        8   (    8A   )

 MOLECULE CHANGED: INITIALIZING OCCUPATION AND DUMP RECORDS


 NUCLEAR REPULSION ENERGY   13.68681606

 Basis set:  JKFIT                   
 Basis size:  1104
 Attributes:
 Sphericals:   T
 Basis set:  MP2FIT                  
 Basis size:  1246
 Attributes:
 Sphericals:   T
 Basis set:  RI                      
 Basis size:   730
 Attributes:
 Sphericals:   T
 Basis set:  TDDFT                   
 Basis size:  1246
 Attributes:
 Sphericals:   T

 Eigenvalues of metric

         1 0.158E-04 0.271E-04 0.337E-04 0.353E-04 0.659E-04 0.911E-04 0.963E-04 0.106E-03


 Contracted 2-electron integrals neglected if value below      1.0D-14

 OPERATOR DM      FOR CENTER  0  COORDINATES:    0.000000    0.000000    0.000000


 **********************************************************************************************************************************
 DATASETS  * FILE   NREC   LENGTH (MB)   RECORD NAMES
              1      18       37.12       500      610      700      900      950      970     1000      129      960     1100   
                                          VAR    BASINP    GEOM    SYMINP    ZMAT    AOBASIS   BASIS     P2S    ABASIS      S 
                                         1400     1410     1200     1210     1080     1600     1650     1700   
                                           T        V       H0       H01     AOSYM     SMH    MOLCAS    OPER   

              2       8       17.39       700     1000      520     2100     7360     7350      200     2101   
                                         GEOM     BASIS   MCVARS     RHF    F12ABS    EF12    OPTIONS    RHF  

 PROGRAMS   *        TOTAL       INT   CCSD(T)    HF-SCF       INT   CCSD(T)    HF-SCF       INT
 CPU TIMES  *      7911.53      0.36   1420.81    208.36      0.38   5879.69    216.69    184.97
 REAL TIME  *      8063.29 SEC
 DISK USED  *         3.24 GB (local),       82.23 GB (total)
 SF USED    *         5.12 GB
 GA USED    *         4.87 MB       (max)       0.00 MB       (current)
 **********************************************************************************************************************************


 PROGRAM * RHF-SCF (CLOSED SHELL)       Authors: W. Meyer, H.-J. Werner


 NUMBER OF ELECTRONS:       5+    5-    SPACE SYMMETRY=1    SPIN SYMMETRY: Singlet 
 CONVERGENCE THRESHOLDS:    1.00E-08 (Density)    1.00E-11 (Energy)
 MAX. NUMBER OF ITERATIONS:       60
 INTERPOLATION TYPE:            DIIS
 INTERPOLATION STEPS:              2 (START)      1 (STEP)
 LEVEL SHIFTS:                  0.00 (CLOSED)  0.00 (OPEN) 



 Orbital guess generated from atomic densities. Full valence occupancy:    9

 Molecular orbital dump at record        2102.2

 Initial occupancy:   5

 ITERATION    DDIFF          GRAD             ENERGY        2-EL.EN.            DIPOLE MOMENTS         DIIS   ORB.
    1      0.000D+00      0.000D+00       -40.19609551     53.506289    0.00412   -0.00276   -0.00132    0    start
    2      0.000D+00      0.257D-02       -40.21334955     52.217622    0.00129   -0.00087   -0.00040    1    diag
    3      0.158D-02      0.998D-03       -40.21562546     52.672082    0.00183   -0.00123   -0.00057    2    diag
    4      0.442D-03      0.249D-03       -40.21594492     52.617269    0.00163   -0.00110   -0.00050    3    diag
    5      0.166D-03      0.322D-04       -40.21595041     52.619416    0.00160   -0.00108   -0.00049    4    diag
    6      0.411D-04      0.264D-05       -40.21595045     52.619553    0.00160   -0.00108   -0.00049    5    diag
    7      0.545D-05      0.212D-06       -40.21595045     52.619514    0.00160   -0.00108   -0.00049    6    diag
    8      0.218D-06      0.170D-07       -40.21595045     52.619515    0.00160   -0.00108   -0.00049    7    diag
    9      0.827D-07      0.218D-08       -40.21595045     52.619515    0.00160   -0.00108   -0.00049    8    diag
   10      0.827D-08      0.596D-09       -40.21595045     52.619515    0.00160   -0.00108   -0.00049    0    orth

 Final occupancy:   5

 !RHF STATE  1.1 Energy               -40.215950450245
 Nuclear energy                        13.68681606
 One-electron energy                  -80.21252390
 Two-electron energy                   26.30975739
 Virial quotient                       -0.99838095
 !RHF STATE  1.1 Dipole moment          0.00159822    -0.00107814    -0.00048993
 Dipole moment /Debye                   0.00406200    -0.00274017    -0.00124519

 Orbital energies:

         1.1          2.1          3.1          4.1          5.1          6.1          7.1
    -11.196224    -0.950661    -0.551889    -0.549954    -0.547776     0.024946     0.038403


 HOMO      5.1    -0.547776 =     -14.9057eV
 LUMO      6.1     0.024946 =       0.6788eV
 LUMO-HOMO         0.572722 =      15.5846eV


 **********************************************************************************************************************************
 DATASETS  * FILE   NREC   LENGTH (MB)   RECORD NAMES
              1      18       37.12       500      610      700      900      950      970     1000      129      960     1100   
                                          VAR    BASINP    GEOM    SYMINP    ZMAT    AOBASIS   BASIS     P2S    ABASIS      S 
                                         1400     1410     1200     1210     1080     1600     1650     1700   
                                           T        V       H0       H01     AOSYM     SMH    MOLCAS    OPER   

              2       9       27.51       700     1000      520     2100     7360     7350      200     2101     2102   
                                         GEOM     BASIS   MCVARS     RHF    F12ABS    EF12    OPTIONS    RHF      RHF  

 PROGRAMS   *        TOTAL    HF-SCF       INT   CCSD(T)    HF-SCF       INT   CCSD(T)    HF-SCF       INT
 CPU TIMES  *      8086.98    175.45      0.36   1420.81    208.36      0.38   5879.69    216.69    184.97
 REAL TIME  *      8252.70 SEC
 DISK USED  *         3.24 GB (local),       82.23 GB (total)
 SF USED    *         5.12 GB
 GA USED    *         4.87 MB       (max)       0.00 MB       (current)
 **********************************************************************************************************************************

 Basis set:  JKFIT                   
 Basis size:  1104
 Attributes:
 Sphericals:   T
 Basis set:  MP2FIT                  
 Basis size:  1246
 Attributes:
 Sphericals:   T
 Basis set:  RI                      
 Basis size:   730
 Attributes:
 Sphericals:   T
 Basis set:  TDDFT                   
 Basis size:  1246
 Attributes:
 Sphericals:   T

 PROGRAM * CCSD (Closed-shell coupled cluster)     Authors: C. Hampel, H.-J. Werner, 1991, M. Deegan, P.J. Knowles, 1992

                                  CCSD-F12 implementation by  H.-J. Werner, 2007

                   Density fitting integral evaluation by F.R. Manby, 2003,2007, G. Knizia, 2010



 Convergence thresholds:  THRVAR = 1.00D-08  THRDEN = 1.00D-10

 CCSD(T)     terms to be evaluated (factor= 1.000)


 Number of core orbitals:           1 (   1 )
 Number of closed-shell orbitals:   4 (   4 )
 Number of external orbitals:     431 ( 431 )

 Molecular orbitals read from record     2102.2  Type=RHF/CANONICAL (state 1.1)

 MP2-F12 correlation treatment (H.-J. Werner, 2006)
 ==================================================

 Using MP2-F12 with ansatz 3C(FIX)

 Using projected zeroth-order Hamiltonian (+Z)

 FOCKRIB=T FOCKRIC=T FOCKRIP=T CABSP=T CABSA=T CABSK=T CABSF=T GBC=F EBC=F DMAT=T NOFIK=T NOPAO=1 SOLVE=-1  USEPAO=0
 EXCH_A= T EXCH_B= F EXCH_C= F EXCH_P= F

 Geminal basis:    OPTFULL  GEM_TYPE=SLATER  BETA=1.0  NGEM=6

 Optimizing Gaussian exponents for each gem_beta

 Geminal optimization for beta= 1.0000
 Weight function:   m=0, omega= 1.4646

 Augmented Hessian optimization of geminal fit. Trust ratio= 0.40000
 Convergence reached after   2 iterations. Final gradient= 7.85D-16, Step= 4.26D-06, Delta= 1.28D-09

 Alpha:                 0.19532     0.81920     2.85917     9.50073    35.69989   197.79328
 Coeff:                 0.27070     0.30552     0.18297     0.10986     0.06810     0.04224


 All pairs explicitly correlated. Number of r12-pairs:           10

 Excluding core orbitals from MO domains

 AO(A)-basis ORBITAL           loaded. Number of functions:     436
 RI(R)-basis RI                loaded. Number of functions:     730
 DF-basis JKFIT                loaded. Number of functions:    1104

 Screening thresholds:   THRAO=  1.00D-10  THRMO=  1.00D-09  THRPROD=  1.00D-09
                         THRSW=  1.00D-05  THROV=  1.00D-12  THRAOF12= 1.00D-10

 CPU time for Fock operators                      9.61 sec

 Construction of ABS:
 Smallest eigenvalue of S          2.27E-04  (threshold= 1.00E-08)
 Ratio eigmin/eigmax               3.94E-05  (threshold= 1.00E-09)
 Smallest eigenvalue of S kept     2.27E-04  (threshold= 2.27E-04, 0 functions deleted, 730 kept)

 Construction of CABS:
 Smallest eigenvalue of S          1.53E-08  (threshold= 1.00E-08)
 Ratio eigmin/eigmax               1.53E-08  (threshold= 1.00E-09)
 Smallest eigenvalue of S kept     1.53E-08  (threshold= 1.53E-08, 0 functions deleted, 730 kept)

 CPU time for CABS singles                        2.18 sec

 CABS-singles contribution of  -0.00024525 patched into reference energy.
 New reference energy         -40.21619570

 AO(A)-basis ORBITAL           loaded. Number of functions:     436
 RI(R)-basis RI                loaded. Number of functions:     730
 DF-basis MP2FIT               loaded. Number of functions:    1246

 Screening thresholds:   THRAO=  1.00D-10  THRMO=  1.00D-09  THRPROD=  1.00D-09
                         THRSW=  1.00D-05  THROV=  1.00D-12  THRAOF12= 1.00D-10

 CPU time for 3-index integral evaluation        18.69 sec
 CPU time for first  half transformation          2.67 sec ( 2411.4 MFLOP/sec)
 CPU time for second half transformation          0.03 sec ( 1253.4 MFLOP/sec)
 CPU time for sorting                             0.08 sec
 CPU time for fitting                             1.27 sec ( 4635.5 MFLOP/sec)
 CPU time for tilde quantities                    1.28 sec ( 5693.4 MFLOP/sec)
 CPU time for assembly                            4.81 sec ( 3416.3 MFLOP/sec)
 CPU time for tranop_f12                          4.60 sec ( 3809.0 MFLOP/sec)
 CPU time for f12 integrals (total)              40.29 sec, Elapsed time:     40.94 sec
 F12-matrices built in  4 passes.
 F12-matrices built in  4 passes.
 F12-matrices built in  4 passes.
 F12-matrices built in  4 passes.
 FC-matrix built in  4 passes.
 CPU time for f12 matrices (total)                1.52 sec, Elapsed time:      1.52 sec

 Diagonal F12 approximation with fixed coefficients:  TSING= 0.500,  TTRIP= 0.250 (scaled by -1/beta)

 DF-MP2-F12 energy corrections:
 ==============================
 Approx.                                    Singlet             Triplet             Total
 DF-MP2-F12/3*C(DX,FIX)                -0.007491074388     -0.000574492251     -0.008065566639
 DF-MP2-F12/3*C(FIX)                   -0.007043830277     -0.000473074117     -0.007516904394
 DF-MP2-F12/3C(FIX)                    -0.007072646617     -0.000486540846     -0.007559187464

 DF-MP2-F12 correlation energies:
 ================================
 Approx.                                    Singlet             Triplet             Ecorr            Total Energy
 DF-MP2                                -0.154425996699     -0.056464608660     -0.210890605359    -40.427086308493
 DF-MP2-F12/3*C(DX,FIX)                -0.161917071087     -0.057039100910     -0.218956171997    -40.435151875132
 DF-MP2-F12/3*C(FIX)                   -0.161469826976     -0.056937682777     -0.218407509752    -40.434603212887
 DF-MP2-F12/3C(FIX)                    -0.161498643316     -0.056951149506     -0.218449792822    -40.434645495956

 SCS-DF-MP2 energies (F_SING= 1.20000  F_TRIP= 0.62222  F_PARALLEL= 0.33333):
 ============================================================================
 SCS-DF-MP2                            -0.220444730316    -40.436640433450
 SCS-DF-MP2-F12/3*C(DX,FIX)            -0.229791481426    -40.445987184561
 SCS-DF-MP2-F12/3*C(FIX)               -0.229191683876    -40.445387387011
 SCS-DF-MP2-F12/3C(FIX)                -0.229234642783    -40.445430345917
 Symmetry transformation completed.

 Number of N-1 electron functions:               4
 Number of N-2 electron functions:              10
 Number of singly external CSFs:              1724
 Number of doubly external CSFs:           1486950
 Total number of CSFs:                     1488675

 Pair and operator lists are different

 Length of J-op  integral file:             203.65 MB
 Length of K-op  integral file:             338.08 MB
 Length of 3-ext integral record:             0.00 MB

 Memory could be reduced to 526.20 Mwords without degradation in triples

 Integral transformation finished. Total CPU: 160.32 sec, npass=  1  Memory used: 214.75 MW

 Reference energy:                    -40.21619570

 Adding F12 terms to K(Cij), methodcc=6,  factor= 1.0

 ITER.      SQ.NORM     CORR.ENERGY   TOTAL ENERGY   ENERGY CHANGE        DEN1      VAR(S)    VAR(P)  DIIS     TIME  TIME/IT
   1      1.07024110    -0.22512355   -40.44131925    -0.01422759    -0.00847306  0.63D-03  0.94D-03  1  1   265.08    46.83
   2      1.07517167    -0.22597375   -40.44216946    -0.00085021    -0.00530357  0.15D-04  0.10D-03  2  2   310.79    47.02
   3      1.07679472    -0.22606155   -40.44225726    -0.00008780    -0.00117779  0.22D-05  0.59D-05  3  3   356.75    47.20
   4      1.07717774    -0.22606884   -40.44226454    -0.00000729    -0.00020557  0.14D-06  0.33D-06  4  4   402.64    47.26
   5      1.07722982    -0.22607047   -40.44226617    -0.00000163    -0.00000896  0.11D-07  0.21D-07  5  5   448.73    47.29
   6      1.07723841    -0.22606918   -40.44226489     0.00000129    -0.00000326  0.78D-09  0.16D-08  6  6   494.68    47.34
   7      1.07723977    -0.22606885   -40.44226456     0.00000033    -0.00000085  0.51D-10  0.12D-09  6  1   540.63    47.36
   8      1.07723975    -0.22606892   -40.44226462    -0.00000007     0.00000020  0.54D-11  0.72D-11  6  3   586.72    47.38
   9      1.07723988    -0.22606890   -40.44226461     0.00000002    -0.00000009  0.40D-12  0.58D-12  6  2   632.77    47.39
  10      1.07723988    -0.22606890   -40.44226461     0.00000000     0.00000001  0.51D-13  0.59D-13  6  4   679.06    47.42
  11      1.07723989    -0.22606890   -40.44226460     0.00000000     0.00000000  0.47D-14  0.58D-14  6  5   724.95    47.42
  12      1.07723989    -0.22606890   -40.44226460     0.00000000     0.00000000  0.11D-15  0.63D-15  6  6   771.00    47.44
  13      1.07723988    -0.22606890   -40.44226460    -0.00000000     0.00000000  0.77D-17  0.67D-16  6  1   817.00    47.43
  14      1.07723988    -0.22606890   -40.44226460    -0.00000000     0.00000000  0.11D-17  0.83D-17  6  3   863.00    47.47

 Norm of t1 vector:      0.03291658      S-energy:    -0.00000000      T1 diagnostic:  0.00822914
                                                                       D1 diagnostic:  0.01319250

 Adding energy correction from Wij-K(Fij), methodcc=6  factor= 1.0

  CCSD correlation energy              -0.226068900490
  MP2-F12 correction (uncoupled)       -0.007436166996
  C*T doubles correction               -0.000126248816
  f12b correction                       0.001936078866

 Total CPU time for triples:    420.64 sec

  Ecorr(MP2)                           -0.210895959930
  Ecorr(MP2-F12)                       -0.218455147394
  Scale factor for triples energy       1.035843206603


 RESULTS
 =======

  Reference energy                    -40.215950450248
  F12 singles correction               -0.000245252886

 F12 singles corrections added to reference energy

  New reference energy                -40.216195703134

  F12a singlet correction              -0.007073417905
  F12a triplet correction              -0.000488997907
  F12a total correction                -0.007562415812

 F12a corrections for ansatz F12/3C(FIX) added to CCSD energy

  CCSD-F12a singlet pair energy        -0.178450179126
  CCSD-F12a triplet pair energy        -0.055181137172
  CCSD-F12a correlation energy         -0.233631316302

  Triples (T) contribution (scaled)    -0.007053293374
  Total correlation energy             -0.240684609676

  CCSD-F12a total energy              -40.449827019436
  CCSD[T]-F12a energy                 -40.457116833691
  CCSD-T-F12a energy                  -40.456810465344
 !CCSD(T)-F12a total energy           -40.456880312810

 F12b corrections for ansatz F12/3C(FIX) added to CCSD(T)-F12a energy

  CCSD-F12b singlet pair energy        -0.176581624776
  CCSD-F12b triplet pair energy        -0.055113612655
  CCSD-F12b correlation energy         -0.231695237435

  Triples (T) contribution (scaled)    -0.007053293374
  Total correlation energy             -0.238748530809

  CCSD-F12b total energy              -40.447890940570
  CCSD[T]-F12b energy                 -40.455180754825
  CCSD-T-F12b energy                  -40.454874386477
 !CCSD(T)-F12b total energy           -40.454944233944

 Timing summary (sec):

 STEP                 CPU(USER)    SYS     CPU(TOT)    WALL
 Transformation        160.70      3.67    164.37    164.58
 CCSD iterations       643.83     19.48    663.31    664.74
 Triples               420.64      0.97    421.61    422.20
 MP2-F12                58.57      0.83     59.40     59.47
 F12b energy            42.40      1.03     43.43     43.49

 Program statistics:

 Available memory in ccsd:              1999999866
 Min. memory needed in ccsd:               6763924
 Max. memory used in ccsd:                 7862874
 Max. memory used in cckext:               5171974 (15 integral passes)



 **********************************************************************************************************************************
 DATASETS  * FILE   NREC   LENGTH (MB)   RECORD NAMES
              1      19     1346.98       500      610      700      900      950      970     1000      129      960     1100   
                                          VAR    BASINP    GEOM    SYMINP    ZMAT    AOBASIS   BASIS     P2S    ABASIS      S 
                                         1400     1410     1200     1210     1080     1600     1650     1700     1380   
                                           T        V       H0       H01     AOSYM     SMH    MOLCAS    OPER     JKOP   

              2       9       27.51       700     1000      520     2100     7360     7350      200     2101     2102   
                                         GEOM     BASIS   MCVARS     RHF    F12ABS    EF12    OPTIONS    RHF      RHF  

 PROGRAMS   *        TOTAL   CCSD(T)    HF-SCF       INT   CCSD(T)    HF-SCF       INT   CCSD(T)    HF-SCF       INT
 CPU TIMES  *      9413.37   1326.39    175.45      0.36   1420.81    208.36      0.38   5879.69    216.69    184.97
 REAL TIME  *      9608.20 SEC
 DISK USED  *         3.24 GB (local),       82.23 GB (total)
 SF USED    *         5.12 GB
 GA USED    *         4.87 MB       (max)       0.00 MB       (current)
 **********************************************************************************************************************************
 Molecular orbitals read from record     2102.2  Type=RHF/CANONICAL (state 1.1)
 Occupation numbers read from record     2102.2  Type=RHF/RHF (state 1.1)
 Orbital energies read from record       2102.2  Type=RHF/CANONICAL (state 1.1)
 Redundancy group numbers read from rec  2102.2  Type=RHF/RHF (state 1.1)

 CCSD(T)-F12/aug-cc-pVQZ energy=    -40.454944233944

     CCSD(T)-F12          HF-SCF     CCSD(T)-F12          HF-SCF     CCSD(T)-F12          HF-SCF
    -40.45494423    -40.21595045    -76.37082927    -76.06297453   -116.82602144   -116.27822269
 **********************************************************************************************************************************
 Molpro calculation terminated
