
 Primary working directories    : /scratch.ssd/kelum/job_380591.cerit-pbs.cerit-sc.cz/molpro.jmxAiQ6vAU
 Secondary working directories  : /scratch.ssd/kelum/job_380591.cerit-pbs.cerit-sc.cz/molpro.jmxAiQ6vAU
 Wavefunction directory         : /scratch.ssd/kelum/job_380591.cerit-pbs.cerit-sc.cz/
 Main file repository           : /scratch.ssd/kelum/job_380591.cerit-pbs.cerit-sc.cz/molpro.jmxAiQ6vAU/

 id        : karlovklimes

 Nodes            nprocs
 elan9.cerit-sc.cz    4

 Using customized tuning parameters: mindgm=1; mindgv=20; mindgc=4; mindgr=1; noblas=0; minvec=7
 default implementation of scratch files=sf  


 Variables initialized (934), CPU time= 0.00 sec
                                                                                 !gdirect
 memory,4000,m
 gthresh,orbital=1d-10,energy=1d-10
 
 symmetry,nosym
 angstrom
 geometry={
 O5        -0.319200000000      2.341100000000      3.764400000000
 H9         0.407500000000      2.568500000000      4.358500000000
 H10        -0.153000000000      1.405800000000      3.495900000000
 C1        -3.277200000000      1.482500000000      1.271900000000
 H41        -2.464000000000      0.899600000000      1.651000000000
 H42        -3.160800000000      2.501000000000      1.578500000000
 H43        -4.201800000000      1.099200000000      1.650100000000
 H44        -3.268500000000      1.421000000000      0.203700000000
 }
 
 nkerna=1
 nkernb=1
 
 gf=0
 sing=1
 thrdum=1d-4
 gridthr=1d-8
 
 basis={
 set,orbital
 default,av5z
 set,jkfit
 default,av5z/jkfit
 set,mp2fit
 default,av5z/mp2fit
 set,ri
 default,av5z/optri
 set,tddft
 default,av5z/mp2fit
 }
 
 proc set_monomer1
 dummy,4,5,6,7,8
 endproc
 
 proc set_monomer2
 dummy,1,2,3
 endproc
 
                                                                                 !12 energy
 {hf,accu=1.d-16}
 {ccsd(t)-f12,df_basis=mp2fit,df_basis_exch=jkfit,ri_basis=ri,scale_trip=1,THRAOF12=1d-10}
 
 set_monomer1
 {hf,accu=1.d-16}
 {ccsd(t)-f12,df_basis=mp2fit,df_basis_exch=jkfit,ri_basis=ri,scale_trip=1,THRAOF12=1d-10}
 
 set_monomer2
 {hf,accu=1.d-16}
 {ccsd(t)-f12,df_basis=mp2fit,df_basis_exch=jkfit,ri_basis=ri,scale_trip=1,THRAOF12=1d-10}
 
 Commands  initialized (763), CPU time= 0.01 sec, 617 directives.
 Default parameters read. Elapsed time= 0.15 sec

 Checking input...
 Passed
1


                                         ***  PROGRAM SYSTEM MOLPRO  ***
                                       Copyright, TTI GmbH Stuttgart, 2015
                                    Version 2019.2 linked Jun  8 2019 11:26:33


 **********************************************************************************************************************************
 LABEL *                                                                                 
  64 bit mpp version                                                                     DATE: 24-Mar-20          TIME: 09:19:26  
 **********************************************************************************************************************************

 SHA1:             8135a10abc80eafa5b3ae28ffc55be4890dc4c84
 **********************************************************************************************************************************

 THRESHOLDS:

 ZERO    =  1.00D-12  ONEINT  =  1.00D-12  TWOINT  =  1.00D-11  PREFAC  =  1.00D-14  XXXXXX  =  1.00D-09  EORDER  =  1.00D-04
 ENERGY  =  1.00D-10  ETEST   =  0.00D+00  EDENS   =  0.00D+00  THRDEDEF=  1.00D-06  GRADIENT=  1.00D-02  STEP    =  1.00D-03
 ORBITAL =  1.00D-10  CIVEC   =  1.00D-05  COEFF   =  1.00D-04  PRINTCI =  5.00D-02  PUNCHCI =  9.90D+01  OPTGRAD =  3.00D-04
 OPTENERG=  1.00D-06  OPTSTEP =  3.00D-04  THRGRAD =  1.00D-10  COMPRESS=  1.00D-11  VARMIN  =  1.00D-07  VARMAX  =  1.00D-03
 THRDOUB =  0.00D+00  THRDIV  =  1.00D-05  THRRED  =  1.00D-07  THRPSP  =  1.00D+00  THRDC   =  1.00D-10  THRCS   =  1.00D-10
 THRNRM  =  1.00D-08  THREQ   =  0.00D+00  THRDE   =  1.00D+00  THRREF  =  1.00D-05  SPARFAC =  1.00D+00  THRDLP  =  1.00D-07
 THRDIA  =  1.00D-10  THRDLS  =  1.00D-07  THRGPS  =  0.00D+00  THRKEX  =  0.00D+00  THRDIS  =  2.00D-01  THRVAR  =  1.00D-10
 THRLOC  =  1.00D-06  THRGAP  =  1.00D-06  THRLOCT = -1.00D+00  THRGAPT = -1.00D+00  THRORB  =  1.00D-06  THRMLTP =  0.00D+00
 THRCPQCI=  1.00D-10  KEXTA   =  0.00D+00  THRCOARS=  0.00D+00  SYMTOL  =  1.00D-06  GRADTOL =  1.00D-06  THROVL  =  1.00D-08
 THRORTH =  1.00D-08  GRID    =  1.00D-06  GRIDMAX =  1.00D-03  DTMAX   =  0.00D+00  THROCCDE=  1.00D-01  THROCCDE=  1.00D-01
 THRPRINT=  2.50D-01


 Variable memory set to 4000000000 words,  buffer space 

 ZSYMEL=NOSYM
 ZUNIT=ANG


Geometry recognized as XYZ

 SETTING NKERNA         =         1.00000000                                  
 SETTING NKERNB         =         1.00000000                                  
 SETTING GF             =     0.00000000D+00                                  
 SETTING SING           =         1.00000000                                  
 SETTING THRDUM         =     1.00000000D-04                                  
 SETTING GRIDTHR        =     1.00000000D-08                                  
 SETTING BASIS          =    AV5Z


 Recomputing integrals since basis changed


 Using spherical harmonics

 Library entry O      S aug-cc-pV5Z          selected for orbital group  1
 Library entry O      P aug-cc-pV5Z          selected for orbital group  1
 Library entry O      D aug-cc-pV5Z          selected for orbital group  1
 Library entry O      F aug-cc-pV5Z          selected for orbital group  1
 Library entry O      G aug-cc-pV5Z          selected for orbital group  1
 Library entry O      H aug-cc-pV5Z          selected for orbital group  1
 Library entry H      S aug-cc-pV5Z          selected for orbital group  2
 Library entry H      P aug-cc-pV5Z          selected for orbital group  2
 Library entry H      D aug-cc-pV5Z          selected for orbital group  2
 Library entry H      F aug-cc-pV5Z          selected for orbital group  2
 Library entry H      G aug-cc-pV5Z          selected for orbital group  2
 Library entry C      S aug-cc-pV5Z          selected for orbital group  3
 Library entry C      P aug-cc-pV5Z          selected for orbital group  3
 Library entry C      D aug-cc-pV5Z          selected for orbital group  3
 Library entry C      F aug-cc-pV5Z          selected for orbital group  3
 Library entry C      G aug-cc-pV5Z          selected for orbital group  3
 Library entry C      H aug-cc-pV5Z          selected for orbital group  3


 PROGRAM * SEWARD (Integral evaluation for generally contracted gaussian basis sets)     Author: Roland Lindh, 1990

 Geometry written to block  1 of record 700


 Point group  C1  



 ATOMIC COORDINATES

 NR  ATOM    CHARGE       X              Y              Z

   1  O5      8.00   -0.603200579    4.424037830    7.113685023
   2  H9      1.00    0.770063396    4.853761551    8.236371314
   3  H10     1.00   -0.289128097    2.656576986    6.606293559
   4  C1      6.00   -6.193010455    2.801518980    2.403542658
   5  H41     1.00   -4.656285171    1.699997622    3.119937832
   6  H42     1.00   -5.973046335    4.726205038    2.982932688
   7  H43     1.00   -7.940251230    2.077186956    3.118237078
   8  H44     1.00   -6.176569838    2.685300823    0.384937212

 Bond lengths in Bohr (Angstrom)

 1-2  1.825086553  1-3  1.865477274  4-5  2.021904040  4-6  2.022002335  4-7  2.021953343
     ( 0.965794212)     ( 0.987168061)     ( 1.069945541)     ( 1.069997556)     ( 1.069971630)

 4-8  2.022015060
     ( 1.070004290)

 Bond angles

  2-1-3  105.29057030   5-4-6  109.53398059   5-4-7  109.65604535   5-4-8  108.43490854

  6-4-7  109.49436728   6-4-8  109.86987750   7-4-8  109.83468330

 NUCLEAR CHARGE:                   20
 NUMBER OF PRIMITIVE AOS:        1046
 NUMBER OF SYMMETRY AOS:          786
 NUMBER OF CONTRACTIONS:          734   (  734A   )
 NUMBER OF CORE ORBITALS:           2   (    2A   )
 NUMBER OF VALENCE ORBITALS:       14   (   14A   )


 NUCLEAR REPULSION ENERGY   35.83278858


 Basis set:  JKFIT                   
 Basis size:  1104
 Attributes:
 Sphericals:   T
 Basis set:  MP2FIT                  
 Basis size:  1246
 Attributes:
 Sphericals:   T
 Basis set:  RI                      
 Basis size:   730
 Attributes:
 Sphericals:   T
 Basis set:  TDDFT                   
 Basis size:  1246
 Attributes:
 Sphericals:   T

 **********************************************************************************************************************************


 Eigenvalues of metric

         1 0.196E-05 0.299E-05 0.377E-05 0.480E-05 0.515E-05 0.741E-05 0.869E-05 0.963E-05


 Contracted 2-electron integrals neglected if value below      1.0D-14
 AO integral compression algorithm  1   Integral accuracy      1.0D-14

     142843.838 MB (compressed) written to integral file ( 45.2%)

     Node minimum: 34827.141 MB, node maximum: 37453.038 MB


 NUMBER OF SORTED TWO-ELECTRON INTEGRALS: 9095363064.     BUFFER LENGTH:  32768
 NUMBER OF SEGMENTS: 190  SEGMENT LENGTH:   47999780      RECORD LENGTH: 131072

 Memory used in sort:      48.16 MW

 SORT1 READ 39468177345. AND WROTE  6513886045. INTEGRALS IN  74641 RECORDS. CPU TIME:  1077.44 SEC, REAL TIME:  1207.28 SEC
 SORT2 READ 26059117165. AND WROTE 36381317385. INTEGRALS IN 531420 RECORDS. CPU TIME:   134.61 SEC, REAL TIME:   853.43 SEC

 Node minimum:  9095228192.  Node maximum:  9095430501. integrals

 OPERATOR DM      FOR CENTER  0  COORDINATES:    0.000000    0.000000    0.000000


 **********************************************************************************************************************************
 DATASETS  * FILE   NREC   LENGTH (MB)   RECORD NAMES
              1      18       49.80       500      610      700      900      950      970     1000      129      960     1100   
                                          VAR    BASINP    GEOM    SYMINP    ZMAT    AOBASIS   BASIS     P2S    ABASIS      S 
                                         1400     1410     1200     1210     1080     1600     1650     1700   
                                           T        V       H0       H01     AOSYM     SMH    MOLCAS    OPER   

 PROGRAMS   *        TOTAL       INT
 CPU TIMES  *      1878.05   1877.86
 REAL TIME  *      2767.13 SEC
 DISK USED  *        50.44 MB (local),      455.39 GB (total)
 GA USED    *         0.00 MB       (max)       0.00 MB       (current)
 **********************************************************************************************************************************


 PROGRAM * RHF-SCF (CLOSED SHELL)       Authors: W. Meyer, H.-J. Werner


 NUMBER OF ELECTRONS:      10+   10-    SPACE SYMMETRY=1    SPIN SYMMETRY: Singlet 
 CONVERGENCE THRESHOLDS:    1.00E-08 (Density)    1.00E-11 (Energy)
 MAX. NUMBER OF ITERATIONS:       60
 INTERPOLATION TYPE:            DIIS
 INTERPOLATION STEPS:              2 (START)      1 (STEP)
 LEVEL SHIFTS:                  0.00 (CLOSED)  0.00 (OPEN) 



 Orbital guess generated from atomic densities. Full valence occupancy:   16

 Molecular orbital dump at record        2100.2

 Initial occupancy:  10

 ITERATION    DDIFF          GRAD             ENERGY        2-EL.EN.            DIPOLE MOMENTS         DIIS   ORB.
    1      0.000D+00      0.000D+00      -116.22263119    157.423110    0.86655   -0.69281    0.31062    0    start
    2      0.000D+00      0.292D-02      -116.26700471    152.360495    0.51447   -0.35484    0.20902    1    diag
    3      0.162D-02      0.172D-02      -116.28072387    154.454391    0.60415   -0.43894    0.23546    2    diag
    4      0.554D-03      0.254D-03      -116.28138352    154.341207    0.59577   -0.43176    0.23245    3    diag
    5      0.123D-03      0.744D-04      -116.28145230    154.336509    0.59551   -0.43083    0.23268    4    diag
    6      0.509D-04      0.180D-04      -116.28145609    154.342071    0.59493   -0.43023    0.23251    5    diag
    7      0.186D-04      0.356D-05      -116.28145631    154.340439    0.59493   -0.43022    0.23251    6    diag
    8      0.553D-05      0.893D-06      -116.28145632    154.340606    0.59488   -0.43017    0.23250    7    diag
    9      0.125D-05      0.216D-06      -116.28145633    154.340581    0.59487   -0.43015    0.23250    8    diag
   10      0.263D-06      0.255D-07      -116.28145633    154.340581    0.59487   -0.43015    0.23250    9    orth
   11      0.587D-07      0.565D-08      -116.28145633    154.340583    0.59487   -0.43015    0.23250    9    diag
   12      0.488D-08      0.148D-08      -116.28145633    154.340583    0.59487   -0.43015    0.23250    0    orth

 Final occupancy:  10

 !RHF STATE  1.1 Energy              -116.281456325811
 Nuclear energy                        35.83278858
 One-electron energy                 -229.28453629
 Two-electron energy                   77.17029138
 Virial quotient                       -1.00061275
 !RHF STATE  1.1 Dipole moment          0.59486515    -0.43014791     0.23249595
 Dipole moment /Debye                   1.51189736    -1.09325533     0.59090707

 Orbital energies:

         1.1          2.1          3.1          4.1          5.1          6.1          7.1          8.1          9.1         10.1
    -20.567089   -11.189729    -1.342644    -0.944149    -0.709088    -0.580092    -0.545798    -0.542666    -0.541845    -0.508877

        11.1         12.1
      0.020973     0.031255


 HOMO     10.1    -0.508877 =     -13.8472eV
 LUMO     11.1     0.020973 =       0.5707eV
 LUMO-HOMO         0.529850 =      14.4180eV


 **********************************************************************************************************************************
 DATASETS  * FILE   NREC   LENGTH (MB)   RECORD NAMES
              1      18       49.80       500      610      700      900      950      970     1000      129      960     1100   
                                          VAR    BASINP    GEOM    SYMINP    ZMAT    AOBASIS   BASIS     P2S    ABASIS      S 
                                         1400     1410     1200     1210     1080     1600     1650     1700   
                                           T        V       H0       H01     AOSYM     SMH    MOLCAS    OPER   

              2       4       13.79       700     1000      520     2100   
                                         GEOM     BASIS   MCVARS     RHF  

 PROGRAMS   *        TOTAL    HF-SCF       INT
 CPU TIMES  *      3527.79   1649.64   1877.86
 REAL TIME  *      4673.29 SEC
 DISK USED  *       102.61 MB (local),      455.60 GB (total)
 SF USED    *         2.16 MB
 GA USED    *         0.00 MB       (max)       0.00 MB       (current)
 **********************************************************************************************************************************

 Basis set:  JKFIT                   
 Basis size:  1104
 Attributes:
 Sphericals:   T
 Basis set:  MP2FIT                  
 Basis size:  1246
 Attributes:
 Sphericals:   T
 Basis set:  RI                      
 Basis size:   730
 Attributes:
 Sphericals:   T
 Basis set:  TDDFT                   
 Basis size:  1246
 Attributes:
 Sphericals:   T

 PROGRAM * CCSD (Closed-shell coupled cluster)     Authors: C. Hampel, H.-J. Werner, 1991, M. Deegan, P.J. Knowles, 1992

                                  CCSD-F12 implementation by  H.-J. Werner, 2007

                   Density fitting integral evaluation by F.R. Manby, 2003,2007, G. Knizia, 2010



 Convergence thresholds:  THRVAR = 1.00D-08  THRDEN = 1.00D-10

 CCSD(T)     terms to be evaluated (factor= 1.000)


 Number of core orbitals:           2 (   2 )
 Number of closed-shell orbitals:   8 (   8 )
 Number of external orbitals:     724 ( 724 )

 Molecular orbitals read from record     2100.2  Type=RHF/CANONICAL (state 1.1)

 MP2-F12 correlation treatment (H.-J. Werner, 2006)
 ==================================================

 Using MP2-F12 with ansatz 3C(FIX)

 Using projected zeroth-order Hamiltonian (+Z)

 FOCKRIB=T FOCKRIC=T FOCKRIP=T CABSP=T CABSA=T CABSK=T CABSF=T GBC=F EBC=F DMAT=T NOFIK=T NOPAO=1 SOLVE=-1  USEPAO=0
 EXCH_A= T EXCH_B= F EXCH_C= F EXCH_P= F

 Geminal basis:    OPTFULL  GEM_TYPE=SLATER  BETA=1.0  NGEM=6

 Optimizing Gaussian exponents for each gem_beta

 Geminal optimization for beta= 1.0000
 Weight function:   m=0, omega= 1.4646

 Augmented Hessian optimization of geminal fit. Trust ratio= 0.40000
 Convergence reached after   2 iterations. Final gradient= 8.53D-16, Step= 4.26D-06, Delta= 1.28D-09

 Alpha:                 0.19532     0.81920     2.85917     9.50073    35.69989   197.79328
 Coeff:                 0.27070     0.30552     0.18297     0.10986     0.06810     0.04224


 All pairs explicitly correlated. Number of r12-pairs:           36

 Excluding core orbitals from MO domains

 AO(A)-basis ORBITAL           loaded. Number of functions:     734
 RI(R)-basis RI                loaded. Number of functions:     730
 DF-basis JKFIT                loaded. Number of functions:    1104

 Screening thresholds:   THRAO=  1.00D-10  THRMO=  1.00D-09  THRPROD=  1.00D-09
                         THRSW=  1.00D-05  THROV=  1.00D-12  THRAOF12= 1.00D-10

 CPU time for Fock operators                      9.80 sec

 Construction of ABS:
 Smallest eigenvalue of S          2.27E-04  (threshold= 1.00E-08)
 Ratio eigmin/eigmax               3.94E-05  (threshold= 1.00E-09)
 Smallest eigenvalue of S kept     2.27E-04  (threshold= 2.27E-04, 0 functions deleted, 730 kept)

 Construction of CABS:
 Smallest eigenvalue of S          1.01E-08  (threshold= 1.00E-08)
 Ratio eigmin/eigmax               1.01E-08  (threshold= 1.00E-09)
 Smallest eigenvalue of S kept     1.01E-08  (threshold= 1.01E-08, 0 functions deleted, 730 kept)

 CPU time for CABS singles                        1.19 sec

 CABS-singles contribution of  -0.00008000 patched into reference energy.
 New reference energy        -116.28153632

 AO(A)-basis ORBITAL           loaded. Number of functions:     734
 RI(R)-basis RI                loaded. Number of functions:     730
 DF-basis MP2FIT               loaded. Number of functions:    1246

 Screening thresholds:   THRAO=  1.00D-10  THRMO=  1.00D-09  THRPROD=  1.00D-09
                         THRSW=  1.00D-05  THROV=  1.00D-12  THRAOF12= 1.00D-10

 CPU time for 3-index integral evaluation        28.47 sec
 CPU time for first  half transformation          3.58 sec ( 8174.1 MFLOP/sec)
 CPU time for second half transformation          0.11 sec ( 2337.1 MFLOP/sec)
 CPU time for sorting                             0.33 sec
 CPU time for fitting                             0.34 sec (27287.8 MFLOP/sec)
 CPU time for tilde quantities                    0.62 sec (22216.0 MFLOP/sec)
 CPU time for assembly                            4.75 sec (26815.7 MFLOP/sec)
 CPU time for tranop_f12                          5.91 sec (28217.9 MFLOP/sec)
 CPU time for f12 integrals (total)              52.18 sec, Elapsed time:     56.45 sec
 F12-matrices built in  4 passes.
 F12-matrices built in  4 passes.
 F12-matrices built in  4 passes.
 F12-matrices built in  4 passes.
 FC-matrix built in  4 passes.
 CPU time for f12 matrices (total)                4.77 sec, Elapsed time:      4.94 sec

 Diagonal F12 approximation with fixed coefficients:  TSING= 0.500,  TTRIP= 0.250 (scaled by -1/beta)

 DF-MP2-F12 energy corrections:
 ==============================
 Approx.                                    Singlet             Triplet             Total
 DF-MP2-F12/3*C(DX,FIX)                -0.011202929286     -0.000787056220     -0.011989985506
 DF-MP2-F12/3*C(FIX)                   -0.010394403910     -0.000516075821     -0.010910479732
 DF-MP2-F12/3C(FIX)                    -0.010507167180     -0.000531502515     -0.011038669695

 DF-MP2-F12 correlation energies:
 ================================
 Approx.                                    Singlet             Triplet             Ecorr            Total Energy
 DF-MP2                                -0.350107479361     -0.159429040883     -0.509536520243   -116.791072843229
 DF-MP2-F12/3*C(DX,FIX)                -0.361310408646     -0.160216097103     -0.521526505749   -116.803062828735
 DF-MP2-F12/3*C(FIX)                   -0.360501883271     -0.159945116704     -0.520446999975   -116.801983322961
 DF-MP2-F12/3C(FIX)                    -0.360614646541     -0.159960543397     -0.520575189938   -116.802111512924

 SCS-DF-MP2 energies (F_SING= 1.20000  F_TRIP= 0.62222  F_PARALLEL= 0.33333):
 ============================================================================
 SCS-DF-MP2                            -0.519329267338   -116.800865590323
 SCS-DF-MP2-F12/3*C(DX,FIX)            -0.533262506351   -116.814798829336
 SCS-DF-MP2-F12/3*C(FIX)               -0.532123665874   -116.813659988860
 SCS-DF-MP2-F12/3C(FIX)                -0.532268580629   -116.813804903615
 Symmetry transformation completed.

 Number of N-1 electron functions:               8
 Number of N-2 electron functions:              36
 Number of singly external CSFs:              5792
 Number of doubly external CSFs:          16776528
 Total number of CSFs:                    16782321

 Pair and operator lists are different

 Length of J-op  integral file:               1.47 GB
 Length of K-op  integral file:               2.18 GB
 Length of 3-ext integral record:             0.00 MB

 For full I/O caching in triples, increase memory by 34.16 Mwords to 4034.21 Mwords.

 Integral transformation finished. Total CPU:1060.47 sec, npass=  1  Memory used:1826.21 MW

 Reference energy:                   -116.28153632

 Adding F12 terms to K(Cij), methodcc=6,  factor= 1.0

 ITER.      SQ.NORM     CORR.ENERGY   TOTAL ENERGY   ENERGY CHANGE        DEN1      VAR(S)    VAR(P)  DIIS     TIME  TIME/IT
   1      1.13411624    -0.52154462  -116.80308094    -0.01199524    -0.00009301  0.14D-02  0.20D-02  1  1  1419.67   300.20
   2      1.14234150    -0.52259068  -116.80412700    -0.00104606    -0.01019184  0.32D-04  0.25D-03  2  2  1700.03   298.45
   3      1.14556195    -0.52275529  -116.80429161    -0.00016462    -0.00234517  0.11D-04  0.14D-04  3  3  1987.54   300.28
   4      1.14651344    -0.52276082  -116.80429714    -0.00000553    -0.00052720  0.67D-06  0.13D-05  4  4  2268.82   299.59
   5      1.14667885    -0.52276269  -116.80429901    -0.00000187    -0.00004134  0.19D-06  0.91D-07  5  5  2556.46   300.48
   6      1.14672349    -0.52276001  -116.80429633     0.00000268    -0.00000788  0.21D-07  0.78D-08  6  6  2831.96   299.08
   7      1.14673393    -0.52275883  -116.80429515     0.00000119    -0.00000260  0.21D-08  0.94D-09  6  2  3105.99   297.87
   8      1.14673664    -0.52275861  -116.80429493     0.00000022    -0.00000034  0.29D-09  0.91D-10  6  1  3393.27   298.69
   9      1.14673746    -0.52275857  -116.80429489     0.00000003    -0.00000003  0.23D-10  0.15D-10  6  3  3673.68   298.49
  10      1.14673758    -0.52275858  -116.80429490    -0.00000001     0.00000010  0.24D-11  0.16D-11  6  4  3958.06   298.74
  11      1.14673755    -0.52275858  -116.80429491    -0.00000001     0.00000007  0.34D-12  0.22D-12  6  5  4241.87   298.91
  12      1.14673753    -0.52275858  -116.80429491    -0.00000000     0.00000002  0.69D-13  0.29D-13  6  6  4527.16   299.16
  13      1.14673751    -0.52275859  -116.80429491    -0.00000000     0.00000001  0.14D-13  0.38D-14  6  2  4811.07   299.31
  14      1.14673751    -0.52275859  -116.80429491    -0.00000000     0.00000000  0.37D-14  0.11D-14  6  6  5093.63   299.33
  15      1.14673750    -0.52275859  -116.80429491    -0.00000000     0.00000000  0.19D-15  0.95D-16  6  4  5385.34   299.97
  16      1.14673750    -0.52275859  -116.80429491     0.00000000    -0.00000000  0.36D-16  0.15D-16  6  1  5671.82   300.19
  17      1.14673750    -0.52275859  -116.80429491     0.00000000    -0.00000000  0.83D-17  0.31D-17  6  3  5965.30   300.80

 Norm of t1 vector:      0.04933264      S-energy:    -0.00000000      T1 diagnostic:  0.00872086
                                                                       D1 diagnostic:  0.01884520

 Adding energy correction from Wij-K(Fij), methodcc=6  factor= 1.0

  CCSD correlation energy              -0.522758586052
  MP2-F12 correction (uncoupled)       -0.010855923623
  C*T doubles correction               -0.000162542091
  f12b correction                       0.002685240850

   CPU time for triples:   2229.63 sec for i =  1 -  6 /  8 (~  44.6 % done)
   CPU time for triples:   2238.28 sec for i =  7 -  8 /  8 (  100.0 % done)

 Total CPU time for triples:   4600.06 sec

  Ecorr(MP2)                           -0.509549382884
  Ecorr(MP2-F12)                       -0.520588052579
  Scale factor for triples energy       1.021663591529


 RESULTS
 =======

  Reference energy                   -116.281456325812
  F12 singles correction               -0.000079997174

 F12 singles corrections added to reference energy

  New reference energy               -116.281536322986

  F12a singlet correction              -0.010446405023
  F12a triplet correction              -0.000572060691
  F12a total correction                -0.011018465714

 F12a corrections for ansatz F12/3C(FIX) added to CCSD energy

  CCSD-F12a singlet pair energy        -0.387464267642
  CCSD-F12a triplet pair energy        -0.146312783889
  CCSD-F12a correlation energy         -0.533777051767

  Triples (T) contribution (scaled)    -0.017227009185
  Total correlation energy             -0.551004060952

  CCSD-F12a total energy             -116.815313374753
  CCSD[T]-F12a energy                -116.833094487381
  CCSD-T-F12a energy                 -116.832332545826
 !CCSD(T)-F12a total energy          -116.832540383938

 F12b corrections for ansatz F12/3C(FIX) added to CCSD(T)-F12a energy

  CCSD-F12b singlet pair energy        -0.384871757841
  CCSD-F12b triplet pair energy        -0.146220052840
  CCSD-F12b correlation energy         -0.531091810917

  Triples (T) contribution (scaled)    -0.017227009185
  Total correlation energy             -0.548318820102

  CCSD-F12b total energy             -116.812628133903
  CCSD[T]-F12b energy                -116.830409246531
  CCSD-T-F12b energy                 -116.829647304976
 !CCSD(T)-F12b total energy          -116.829855143088

 Timing summary (sec):

 STEP                 CPU(USER)    SYS     CPU(TOT)    WALL
 Transformation       1062.11     47.74   1109.85   1113.70
 CCSD iterations      4831.26    281.87   5113.13   5114.13
 Triples              4600.06     34.66   4634.72   4636.19
 MP2-F12                72.17      5.06     77.23     77.86
 F12b energy           264.50     13.83    278.33    278.41

 Program statistics:

 Available memory in ccsd:              3999999554
 Min. memory needed in ccsd:              48689265
 Max. memory used in ccsd:                63255345
 Max. memory used in cckext:              42753482 (18 integral passes)



 **********************************************************************************************************************************
 DATASETS  * FILE   NREC   LENGTH (MB)   RECORD NAMES
              1      19    12452.16       500      610      700      900      950      970     1000      129      960     1100   
                                          VAR    BASINP    GEOM    SYMINP    ZMAT    AOBASIS   BASIS     P2S    ABASIS      S 
                                         1400     1410     1200     1210     1080     1600     1650     1700     1380   
                                           T        V       H0       H01     AOSYM     SMH    MOLCAS    OPER     JKOP   

              2       6       24.59       700     1000      520     2100     7360     7350   
                                         GEOM     BASIS   MCVARS     RHF    F12ABS    EF12   

 PROGRAMS   *        TOTAL   CCSD(T)    HF-SCF       INT
 CPU TIMES  *     14358.19  10830.40   1649.64   1877.86
 REAL TIME  *     15896.44 SEC
 DISK USED  *        14.29 GB (local),      506.91 GB (total)
 SF USED    *        17.68 GB
 GA USED    *         4.87 MB       (max)       0.00 MB       (current)
 **********************************************************************************************************************************

 Running procedure: SET_MONOMER1

 Dummy atoms: C1  H41  H42  H43  H44


 Recomputing one-electron integrals since nuclear charges changed


 PROGRAM * SEWARD (Integral evaluation for generally contracted gaussian basis sets)     Author: Roland Lindh, 1990

 Geometry written to block  1 of record 700


 Point group  C1  



 ATOMIC COORDINATES

 NR  ATOM    CHARGE       X              Y              Z

   1  O5      8.00   -0.603200579    4.424037830    7.113685023
   2  H9      1.00    0.770063396    4.853761551    8.236371314
   3  H10     1.00   -0.289128097    2.656576986    6.606293559
   4  C1      0.00   -6.193010455    2.801518980    2.403542658
   5  H41     0.00   -4.656285171    1.699997622    3.119937832
   6  H42     0.00   -5.973046335    4.726205038    2.982932688
   7  H43     0.00   -7.940251230    2.077186956    3.118237078
   8  H44     0.00   -6.176569838    2.685300823    0.384937212

 Bond lengths in Bohr (Angstrom)

 1-2  1.825086553  1-3  1.865477274  4-5  2.021904040  4-6  2.022002335  4-7  2.021953343
     ( 0.965794212)     ( 0.987168061)     ( 1.069945541)     ( 1.069997556)     ( 1.069971630)

 4-8  2.022015060
     ( 1.070004290)

 Bond angles

  2-1-3  105.29057030   5-4-6  109.53398059   5-4-7  109.65604535   5-4-8  108.43490854

  6-4-7  109.49436728   6-4-8  109.86987750   7-4-8  109.83468330

 NUCLEAR CHARGE:                   10
 NUMBER OF PRIMITIVE AOS:        1046
 NUMBER OF SYMMETRY AOS:          786
 NUMBER OF CONTRACTIONS:          734   (  734A   )
 NUMBER OF CORE ORBITALS:           1   (    1A   )
 NUMBER OF VALENCE ORBITALS:        6   (    6A   )

 MOLECULE CHANGED: INITIALIZING OCCUPATION AND DUMP RECORDS


 NUCLEAR REPULSION ENERGY    9.01266574

 Basis set:  JKFIT                   
 Basis size:  1104
 Attributes:
 Sphericals:   T
 Basis set:  MP2FIT                  
 Basis size:  1246
 Attributes:
 Sphericals:   T
 Basis set:  RI                      
 Basis size:   730
 Attributes:
 Sphericals:   T
 Basis set:  TDDFT                   
 Basis size:  1246
 Attributes:
 Sphericals:   T

 Eigenvalues of metric

         1 0.196E-05 0.299E-05 0.377E-05 0.480E-05 0.515E-05 0.741E-05 0.869E-05 0.963E-05


 Contracted 2-electron integrals neglected if value below      1.0D-14

 OPERATOR DM      FOR CENTER  0  COORDINATES:    0.000000    0.000000    0.000000


 **********************************************************************************************************************************
 DATASETS  * FILE   NREC   LENGTH (MB)   RECORD NAMES
              1      18       49.80       500      610      700      900      950      970     1000      129      960     1100   
                                          VAR    BASINP    GEOM    SYMINP    ZMAT    AOBASIS   BASIS     P2S    ABASIS      S 
                                         1400     1410     1200     1210     1080     1600     1650     1700   
                                           T        V       H0       H01     AOSYM     SMH    MOLCAS    OPER   

              2       7       24.61       700     1000      520     2100     7360     7350      200   
                                         GEOM     BASIS   MCVARS     RHF    F12ABS    EF12    OPTIONS    

 PROGRAMS   *        TOTAL       INT   CCSD(T)    HF-SCF       INT
 CPU TIMES  *     14359.09      0.90  10830.40   1649.64   1877.86
 REAL TIME  *     15899.41 SEC
 DISK USED  *        14.29 GB (local),      506.91 GB (total)
 SF USED    *        17.68 GB
 GA USED    *         4.87 MB       (max)       0.00 MB       (current)
 **********************************************************************************************************************************


 PROGRAM * RHF-SCF (CLOSED SHELL)       Authors: W. Meyer, H.-J. Werner


 NUMBER OF ELECTRONS:       5+    5-    SPACE SYMMETRY=1    SPIN SYMMETRY: Singlet 
 CONVERGENCE THRESHOLDS:    1.00E-08 (Density)    1.00E-11 (Energy)
 MAX. NUMBER OF ITERATIONS:       60
 INTERPOLATION TYPE:            DIIS
 INTERPOLATION STEPS:              2 (START)      1 (STEP)
 LEVEL SHIFTS:                  0.00 (CLOSED)  0.00 (OPEN) 



 Orbital guess generated from atomic densities. Full valence occupancy:    7

 Molecular orbital dump at record        2101.2

 Initial occupancy:   5

 ITERATION    DDIFF          GRAD             ENERGY        2-EL.EN.            DIPOLE MOMENTS         DIIS   ORB.
    1      0.000D+00      0.000D+00       -76.02644966     77.438785    0.86246   -0.69117    0.31147    0    start
    2      0.000D+00      0.360D-02       -76.05328319     73.783456    0.50388   -0.39687    0.18482    1    diag
    3      0.130D-02      0.229D-02       -76.06484696     75.406278    0.59384   -0.46924    0.21719    2    diag
    4      0.491D-03      0.215D-03       -76.06504159     75.314849    0.59072   -0.46541    0.21661    3    diag
    5      0.619D-04      0.601D-04       -76.06506254     75.329353    0.58960   -0.46395    0.21643    4    diag
    6      0.194D-04      0.120D-04       -76.06506391     75.328286    0.58936   -0.46358    0.21642    5    diag
    7      0.504D-05      0.245D-05       -76.06506398     75.328430    0.58928   -0.46346    0.21641    6    diag
    8      0.131D-05      0.466D-06       -76.06506398     75.328419    0.58925   -0.46343    0.21640    7    diag
    9      0.243D-06      0.636D-07       -76.06506398     75.328409    0.58925   -0.46343    0.21640    8    diag
   10      0.321D-07      0.143D-07       -76.06506398     75.328412    0.58925   -0.46343    0.21640    9    orth
   11      0.764D-08      0.289D-08       -76.06506398     75.328412    0.58925   -0.46343    0.21640    0    orth

 Final occupancy:   5

 !RHF STATE  1.1 Energy               -76.065063979976
 Nuclear energy                         9.01266574
 One-electron energy                 -122.74193550
 Two-electron energy                   37.66420578
 Virial quotient                       -1.00184293
 !RHF STATE  1.1 Dipole moment          0.58925113    -0.46342957     0.21640385
 Dipole moment /Debye                   1.49762889    -1.17784332     0.55000769

 Orbital energies:

         1.1          2.1          3.1          4.1          5.1          6.1          7.1
    -20.566969    -1.342476    -0.708835    -0.579741    -0.508741     0.018606     0.028830


 HOMO      5.1    -0.508741 =     -13.8436eV
 LUMO      6.1     0.018606 =       0.5063eV
 LUMO-HOMO         0.527347 =      14.3499eV


 **********************************************************************************************************************************
 DATASETS  * FILE   NREC   LENGTH (MB)   RECORD NAMES
              1      18       49.80       500      610      700      900      950      970     1000      129      960     1100   
                                          VAR    BASINP    GEOM    SYMINP    ZMAT    AOBASIS   BASIS     P2S    ABASIS      S 
                                         1400     1410     1200     1210     1080     1600     1650     1700   
                                           T        V       H0       H01     AOSYM     SMH    MOLCAS    OPER   

              2       8       38.39       700     1000      520     2100     7360     7350      200     2101   
                                         GEOM     BASIS   MCVARS     RHF    F12ABS    EF12    OPTIONS    RHF  

 PROGRAMS   *        TOTAL    HF-SCF       INT   CCSD(T)    HF-SCF       INT
 CPU TIMES  *     15847.49   1488.40      0.90  10830.40   1649.64   1877.86
 REAL TIME  *     17541.97 SEC
 DISK USED  *        14.29 GB (local),      506.91 GB (total)
 SF USED    *        17.68 GB
 GA USED    *         4.87 MB       (max)       0.00 MB       (current)
 **********************************************************************************************************************************

 Basis set:  JKFIT                   
 Basis size:  1104
 Attributes:
 Sphericals:   T
 Basis set:  MP2FIT                  
 Basis size:  1246
 Attributes:
 Sphericals:   T
 Basis set:  RI                      
 Basis size:   730
 Attributes:
 Sphericals:   T
 Basis set:  TDDFT                   
 Basis size:  1246
 Attributes:
 Sphericals:   T

 PROGRAM * CCSD (Closed-shell coupled cluster)     Authors: C. Hampel, H.-J. Werner, 1991, M. Deegan, P.J. Knowles, 1992

                                  CCSD-F12 implementation by  H.-J. Werner, 2007

                   Density fitting integral evaluation by F.R. Manby, 2003,2007, G. Knizia, 2010



 Convergence thresholds:  THRVAR = 1.00D-08  THRDEN = 1.00D-10

 CCSD(T)     terms to be evaluated (factor= 1.000)


 Number of core orbitals:           1 (   1 )
 Number of closed-shell orbitals:   4 (   4 )
 Number of external orbitals:     729 ( 729 )

 Molecular orbitals read from record     2101.2  Type=RHF/CANONICAL (state 1.1)

 MP2-F12 correlation treatment (H.-J. Werner, 2006)
 ==================================================

 Using MP2-F12 with ansatz 3C(FIX)

 Using projected zeroth-order Hamiltonian (+Z)

 FOCKRIB=T FOCKRIC=T FOCKRIP=T CABSP=T CABSA=T CABSK=T CABSF=T GBC=F EBC=F DMAT=T NOFIK=T NOPAO=1 SOLVE=-1  USEPAO=0
 EXCH_A= T EXCH_B= F EXCH_C= F EXCH_P= F

 Geminal basis:    OPTFULL  GEM_TYPE=SLATER  BETA=1.0  NGEM=6

 Optimizing Gaussian exponents for each gem_beta

 Geminal optimization for beta= 1.0000
 Weight function:   m=0, omega= 1.4646

 Augmented Hessian optimization of geminal fit. Trust ratio= 0.40000
 Convergence reached after   2 iterations. Final gradient= 8.53D-16, Step= 4.26D-06, Delta= 1.28D-09

 Alpha:                 0.19532     0.81920     2.85917     9.50073    35.69989   197.79328
 Coeff:                 0.27070     0.30552     0.18297     0.10986     0.06810     0.04224


 All pairs explicitly correlated. Number of r12-pairs:           10

 Excluding core orbitals from MO domains

 AO(A)-basis ORBITAL           loaded. Number of functions:     734
 RI(R)-basis RI                loaded. Number of functions:     730
 DF-basis JKFIT                loaded. Number of functions:    1104

 Screening thresholds:   THRAO=  1.00D-10  THRMO=  1.00D-09  THRPROD=  1.00D-09
                         THRSW=  1.00D-05  THROV=  1.00D-12  THRAOF12= 1.00D-10

 CPU time for Fock operators                      9.13 sec

 Construction of ABS:
 Smallest eigenvalue of S          2.27E-04  (threshold= 1.00E-08)
 Ratio eigmin/eigmax               3.94E-05  (threshold= 1.00E-09)
 Smallest eigenvalue of S kept     2.27E-04  (threshold= 2.27E-04, 0 functions deleted, 730 kept)

 Construction of CABS:
 Smallest eigenvalue of S          1.01E-08  (threshold= 1.00E-08)
 Ratio eigmin/eigmax               1.01E-08  (threshold= 1.00E-09)
 Smallest eigenvalue of S kept     1.01E-08  (threshold= 1.01E-08, 0 functions deleted, 730 kept)

 CPU time for CABS singles                        1.23 sec

 CABS-singles contribution of  -0.00003910 patched into reference energy.
 New reference energy         -76.06510308

 AO(A)-basis ORBITAL           loaded. Number of functions:     734
 RI(R)-basis RI                loaded. Number of functions:     730
 DF-basis MP2FIT               loaded. Number of functions:    1246

 Screening thresholds:   THRAO=  1.00D-10  THRMO=  1.00D-09  THRPROD=  1.00D-09
                         THRSW=  1.00D-05  THROV=  1.00D-12  THRAOF12= 1.00D-10

 CPU time for 3-index integral evaluation        27.56 sec
 CPU time for first  half transformation          3.04 sec ( 4843.6 MFLOP/sec)
 CPU time for second half transformation          0.01 sec ( 6286.0 MFLOP/sec)
 CPU time for sorting                             0.17 sec
 CPU time for fitting                             0.38 sec (12052.4 MFLOP/sec)
 CPU time for tilde quantities                    0.54 sec (12644.4 MFLOP/sec)
 CPU time for assembly                            1.48 sec (21698.6 MFLOP/sec)
 CPU time for tranop_f12                          1.72 sec (24810.2 MFLOP/sec)
 CPU time for f12 integrals (total)              37.80 sec, Elapsed time:     39.72 sec
 F12-matrices built in  4 passes.
 F12-matrices built in  4 passes.
 F12-matrices built in  4 passes.
 F12-matrices built in  4 passes.
 FC-matrix built in  4 passes.
 CPU time for f12 matrices (total)                1.40 sec, Elapsed time:      1.43 sec

 Diagonal F12 approximation with fixed coefficients:  TSING= 0.500,  TTRIP= 0.250 (scaled by -1/beta)

 DF-MP2-F12 energy corrections:
 ==============================
 Approx.                                    Singlet             Triplet             Total
 DF-MP2-F12/3*C(DX,FIX)                -0.007266418235     -0.000572844671     -0.007839262907
 DF-MP2-F12/3*C(FIX)                   -0.006621125737     -0.000353711049     -0.006974836786
 DF-MP2-F12/3C(FIX)                    -0.006686849817     -0.000365915233     -0.007052765049

 DF-MP2-F12 correlation energies:
 ================================
 Approx.                                    Singlet             Triplet             Ecorr            Total Energy
 DF-MP2                                -0.192083094494     -0.102229620682     -0.294312715176    -76.359415790271
 DF-MP2-F12/3*C(DX,FIX)                -0.199349512729     -0.102802465353     -0.302151978082    -76.367255053178
 DF-MP2-F12/3*C(FIX)                   -0.198704220231     -0.102583331730     -0.301287551961    -76.366390627057
 DF-MP2-F12/3C(FIX)                    -0.198769944310     -0.102595535915     -0.301365480225    -76.366468555320

 SCS-DF-MP2 energies (F_SING= 1.20000  F_TRIP= 0.62222  F_PARALLEL= 0.33333):
 ============================================================================
 SCS-DF-MP2                            -0.294109255150    -76.359212330246
 SCS-DF-MP2-F12/3*C(DX,FIX)            -0.303185393717    -76.368288468812
 SCS-DF-MP2-F12/3*C(FIX)               -0.302274692909    -76.367377768005
 SCS-DF-MP2-F12/3C(FIX)                -0.302361155519    -76.367464230615
 Symmetry transformation completed.

 Number of N-1 electron functions:               4
 Number of N-2 electron functions:              10
 Number of singly external CSFs:              2916
 Number of doubly external CSFs:           4252986
 Total number of CSFs:                     4255903

 Pair and operator lists are different

 Length of J-op  integral file:             411.24 MB
 Length of K-op  integral file:             721.81 MB
 Length of 3-ext integral record:             0.00 MB

 Memory could be reduced to 2535.14 Mwords without degradation in triples

 Integral transformation finished. Total CPU: 572.90 sec, npass=  1  Memory used:1009.99 MW

 Reference energy:                    -76.06510308

 Adding F12 terms to K(Cij), methodcc=6,  factor= 1.0

 ITER.      SQ.NORM     CORR.ENERGY   TOTAL ENERGY   ENERGY CHANGE        DEN1      VAR(S)    VAR(P)  DIIS     TIME  TIME/IT
   1      1.06356811    -0.29278142   -76.35788450     0.00153748     0.00757712  0.78D-03  0.10D-02  1  1   770.73   159.99
   2      1.06707889    -0.29287545   -76.35797852    -0.00009402    -0.00496640  0.15D-04  0.11D-03  2  2   914.40   159.10
   3      1.06840723    -0.29296719   -76.35807026    -0.00009174    -0.00094466  0.82D-05  0.72D-05  3  3  1061.55   159.92
   4      1.06891759    -0.29297264   -76.35807571    -0.00000545    -0.00027874  0.52D-06  0.72D-06  4  4  1207.24   160.07
   5      1.06902008    -0.29297137   -76.35807445     0.00000126    -0.00002989  0.16D-06  0.52D-07  5  5  1352.61   160.09
   6      1.06905383    -0.29296912   -76.35807219     0.00000225    -0.00000580  0.17D-07  0.42D-08  6  6  1506.42   161.41
   7      1.06906197    -0.29296859   -76.35807167     0.00000053    -0.00000125  0.12D-08  0.64D-09  6  2  1651.13   161.12
   8      1.06906371    -0.29296849   -76.35807156     0.00000010    -0.00000000  0.16D-09  0.64D-10  6  1  1797.73   161.07
   9      1.06906429    -0.29296846   -76.35807153     0.00000003     0.00000000  0.12D-10  0.76D-11  6  3  1942.37   160.82
  10      1.06906439    -0.29296845   -76.35807153     0.00000001     0.00000003  0.16D-11  0.80D-12  6  4  2092.99   161.25
  11      1.06906438    -0.29296845   -76.35807153    -0.00000000     0.00000003  0.33D-12  0.12D-12  6  5  2247.70   162.05
  12      1.06906437    -0.29296845   -76.35807153    -0.00000000     0.00000001  0.67D-13  0.18D-13  6  6  2396.17   162.14
  13      1.06906436    -0.29296845   -76.35807153    -0.00000000     0.00000000  0.11D-13  0.28D-14  6  2  2540.97   161.92
  14      1.06906436    -0.29296846   -76.35807153    -0.00000000     0.00000000  0.13D-14  0.60D-15  6  1  2688.13   161.92
  15      1.06906436    -0.29296846   -76.35807153    -0.00000000    -0.00000000  0.14D-15  0.85D-16  6  3  2837.28   162.03
  16      1.06906436    -0.29296846   -76.35807153    -0.00000000    -0.00000000  0.19D-16  0.11D-16  6  4  2985.77   162.09

 Norm of t1 vector:      0.03660624      S-energy:    -0.00000000      T1 diagnostic:  0.00915156
                                                                       D1 diagnostic:  0.01864600

 Adding energy correction from Wij-K(Fij), methodcc=6  factor= 1.0

  CCSD correlation energy              -0.292968455303
  MP2-F12 correction (uncoupled)       -0.006967854264
  C*T doubles correction               -0.000093087687
  f12b correction                       0.001583200409


 Total CPU time for triples:    649.68 sec

  Ecorr(MP2)                           -0.294318907908
  Ecorr(MP2-F12)                       -0.301371672957
  Scale factor for triples energy       1.023963003598


 RESULTS
 =======

  Reference energy                    -76.065063979973
  F12 singles correction               -0.000039095122

 F12 singles corrections added to reference energy

  New reference energy                -76.065103075096

  F12a singlet correction              -0.006661633984
  F12a triplet correction              -0.000399307968
  F12a total correction                -0.007060941951

 F12a corrections for ansatz F12/3C(FIX) added to CCSD energy

  CCSD-F12a singlet pair energy        -0.209253246856
  CCSD-F12a triplet pair energy        -0.090776149831
  CCSD-F12a correlation energy         -0.300029397254

  Triples (T) contribution (scaled)    -0.010027246203
  Total correlation energy             -0.310056643457

  CCSD-F12a total energy              -76.365132472349
  CCSD[T]-F12a energy                 -76.375475872972
  CCSD-T-F12a energy                  -76.375021167115
 !CCSD(T)-F12a total energy           -76.375159718552

 F12b corrections for ansatz F12/3C(FIX) added to CCSD(T)-F12a energy

  CCSD-F12b singlet pair energy        -0.207733405782
  CCSD-F12b triplet pair energy        -0.090712790496
  CCSD-F12b correlation energy         -0.298446196845

  Triples (T) contribution (scaled)    -0.010027246203
  Total correlation energy             -0.308473443048

  CCSD-F12b total energy              -76.363549271941
  CCSD[T]-F12b energy                 -76.373892672563
  CCSD-T-F12b energy                  -76.373437966707
 !CCSD(T)-F12b total energy           -76.373576518144

 Timing summary (sec):

 STEP                 CPU(USER)    SYS     CPU(TOT)    WALL
 Transformation        573.42     25.35    598.77    600.04
 CCSD iterations      2360.74    232.53   2593.27   2593.80
 Triples               649.68      5.58    655.26    655.37
 MP2-F12                51.81      2.47     54.28     54.30
 F12b energy           146.59     12.79    159.38    159.40

 Program statistics:

 Available memory in ccsd:              3999999871
 Min. memory needed in ccsd:              19260852
 Max. memory used in ccsd:                22423154
 Max. memory used in cckext:              14628952 (17 integral passes)



 **********************************************************************************************************************************
 DATASETS  * FILE   NREC   LENGTH (MB)   RECORD NAMES
              1      19     6330.34       500      610      700      900      950      970     1000      129      960     1100   
                                          VAR    BASINP    GEOM    SYMINP    ZMAT    AOBASIS   BASIS     P2S    ABASIS      S 
                                         1400     1410     1200     1210     1080     1600     1650     1700     1380   
                                           T        V       H0       H01     AOSYM     SMH    MOLCAS    OPER     JKOP   

              2       8       38.39       700     1000      520     2100     7360     7350      200     2101   
                                         GEOM     BASIS   MCVARS     RHF    F12ABS    EF12    OPTIONS    RHF  

 PROGRAMS   *        TOTAL   CCSD(T)    HF-SCF       INT   CCSD(T)    HF-SCF       INT
 CPU TIMES  *     19629.92   3782.42   1488.40      0.90  10830.40   1649.64   1877.86
 REAL TIME  *     21606.36 SEC
 DISK USED  *        14.29 GB (local),      506.91 GB (total)
 SF USED    *        17.68 GB
 GA USED    *         4.87 MB       (max)       0.00 MB       (current)
 **********************************************************************************************************************************

 Running procedure: SET_MONOMER2

 Dummy atoms: O5  H9  H10


 Recomputing one-electron integrals since nuclear charges changed


 PROGRAM * SEWARD (Integral evaluation for generally contracted gaussian basis sets)     Author: Roland Lindh, 1990

 Geometry written to block  1 of record 700


 Point group  C1  



 ATOMIC COORDINATES

 NR  ATOM    CHARGE       X              Y              Z

   1  O5      0.00   -0.603200579    4.424037830    7.113685023
   2  H9      0.00    0.770063396    4.853761551    8.236371314
   3  H10     0.00   -0.289128097    2.656576986    6.606293559
   4  C1      6.00   -6.193010455    2.801518980    2.403542658
   5  H41     1.00   -4.656285171    1.699997622    3.119937832
   6  H42     1.00   -5.973046335    4.726205038    2.982932688
   7  H43     1.00   -7.940251230    2.077186956    3.118237078
   8  H44     1.00   -6.176569838    2.685300823    0.384937212

 Bond lengths in Bohr (Angstrom)

 1-2  1.825086553  1-3  1.865477274  4-5  2.021904040  4-6  2.022002335  4-7  2.021953343
     ( 0.965794212)     ( 0.987168061)     ( 1.069945541)     ( 1.069997556)     ( 1.069971630)

 4-8  2.022015060
     ( 1.070004290)

 Bond angles

  2-1-3  105.29057030   5-4-6  109.53398059   5-4-7  109.65604535   5-4-8  108.43490854

  6-4-7  109.49436728   6-4-8  109.86987750   7-4-8  109.83468330

 NUCLEAR CHARGE:                   10
 NUMBER OF PRIMITIVE AOS:        1046
 NUMBER OF SYMMETRY AOS:          786
 NUMBER OF CONTRACTIONS:          734   (  734A   )
 NUMBER OF CORE ORBITALS:           1   (    1A   )
 NUMBER OF VALENCE ORBITALS:        8   (    8A   )

 MOLECULE CHANGED: INITIALIZING OCCUPATION AND DUMP RECORDS


 NUCLEAR REPULSION ENERGY   13.68681606

 Basis set:  JKFIT                   
 Basis size:  1104
 Attributes:
 Sphericals:   T
 Basis set:  MP2FIT                  
 Basis size:  1246
 Attributes:
 Sphericals:   T
 Basis set:  RI                      
 Basis size:   730
 Attributes:
 Sphericals:   T
 Basis set:  TDDFT                   
 Basis size:  1246
 Attributes:
 Sphericals:   T

 Eigenvalues of metric

         1 0.196E-05 0.299E-05 0.377E-05 0.480E-05 0.515E-05 0.741E-05 0.869E-05 0.963E-05


 Contracted 2-electron integrals neglected if value below      1.0D-14

 OPERATOR DM      FOR CENTER  0  COORDINATES:    0.000000    0.000000    0.000000


 **********************************************************************************************************************************
 DATASETS  * FILE   NREC   LENGTH (MB)   RECORD NAMES
              1      18       49.80       500      610      700      900      950      970     1000      129      960     1100   
                                          VAR    BASINP    GEOM    SYMINP    ZMAT    AOBASIS   BASIS     P2S    ABASIS      S 
                                         1400     1410     1200     1210     1080     1600     1650     1700   
                                           T        V       H0       H01     AOSYM     SMH    MOLCAS    OPER   

              2       8       38.39       700     1000      520     2100     7360     7350      200     2101   
                                         GEOM     BASIS   MCVARS     RHF    F12ABS    EF12    OPTIONS    RHF  

 PROGRAMS   *        TOTAL       INT   CCSD(T)    HF-SCF       INT   CCSD(T)    HF-SCF       INT
 CPU TIMES  *     19630.41      0.48   3782.42   1488.40      0.90  10830.40   1649.64   1877.86
 REAL TIME  *     21607.88 SEC
 DISK USED  *        14.29 GB (local),      506.91 GB (total)
 SF USED    *        17.68 GB
 GA USED    *         4.87 MB       (max)       0.00 MB       (current)
 **********************************************************************************************************************************


 PROGRAM * RHF-SCF (CLOSED SHELL)       Authors: W. Meyer, H.-J. Werner


 NUMBER OF ELECTRONS:       5+    5-    SPACE SYMMETRY=1    SPIN SYMMETRY: Singlet 
 CONVERGENCE THRESHOLDS:    1.00E-08 (Density)    1.00E-11 (Energy)
 MAX. NUMBER OF ITERATIONS:       60
 INTERPOLATION TYPE:            DIIS
 INTERPOLATION STEPS:              2 (START)      1 (STEP)
 LEVEL SHIFTS:                  0.00 (CLOSED)  0.00 (OPEN) 



 Orbital guess generated from atomic densities. Full valence occupancy:    9

 Molecular orbital dump at record        2102.2

 Initial occupancy:   5

 ITERATION    DDIFF          GRAD             ENERGY        2-EL.EN.            DIPOLE MOMENTS         DIIS   ORB.
    1      0.000D+00      0.000D+00       -40.19676530     53.509904    0.00411   -0.00276   -0.00131    0    start
    2      0.000D+00      0.198D-02       -40.21405751     52.218480    0.00128   -0.00087   -0.00039    1    diag
    3      0.949D-03      0.769D-03       -40.21634094     52.673987    0.00182   -0.00123   -0.00055    2    diag
    4      0.259D-03      0.192D-03       -40.21666126     52.619250    0.00161   -0.00110   -0.00049    3    diag
    5      0.101D-03      0.248D-04       -40.21666674     52.621407    0.00159   -0.00108   -0.00048    4    diag
    6      0.352D-04      0.204D-05       -40.21666679     52.621535    0.00159   -0.00108   -0.00048    5    diag
    7      0.614D-05      0.166D-06       -40.21666679     52.621498    0.00158   -0.00108   -0.00048    6    diag
    8      0.352D-06      0.136D-07       -40.21666679     52.621498    0.00159   -0.00108   -0.00048    7    diag
    9      0.571D-07      0.167D-08       -40.21666679     52.621498    0.00158   -0.00108   -0.00048    8    diag
   10      0.106D-07      0.465D-09       -40.21666679     52.621498    0.00158   -0.00108   -0.00048    9    orth
   11      0.109D-08      0.666D-10       -40.21666679     52.621498    0.00158   -0.00108   -0.00048    0    orth

 Final occupancy:   5

 !RHF STATE  1.1 Energy               -40.216666786806
 Nuclear energy                        13.68681606
 One-electron energy                  -80.21423202
 Two-electron energy                   26.31074918
 Virial quotient                       -0.99832815
 !RHF STATE  1.1 Dipole moment          0.00158495    -0.00107794    -0.00047687
 Dipole moment /Debye                   0.00402828    -0.00273967    -0.00121200

 Orbital energies:

         1.1          2.1          3.1          4.1          5.1          6.1          7.1
    -11.196017    -0.950605    -0.551931    -0.549996    -0.547818     0.020649     0.031395


 HOMO      5.1    -0.547818 =     -14.9069eV
 LUMO      6.1     0.020649 =       0.5619eV
 LUMO-HOMO         0.568467 =      15.4688eV


 **********************************************************************************************************************************
 DATASETS  * FILE   NREC   LENGTH (MB)   RECORD NAMES
              1      18       49.80       500      610      700      900      950      970     1000      129      960     1100   
                                          VAR    BASINP    GEOM    SYMINP    ZMAT    AOBASIS   BASIS     P2S    ABASIS      S 
                                         1400     1410     1200     1210     1080     1600     1650     1700   
                                           T        V       H0       H01     AOSYM     SMH    MOLCAS    OPER   

              2       9       62.47       700     1000      520     2100     7360     7350      200     2101     2102   
                                         GEOM     BASIS   MCVARS     RHF    F12ABS    EF12    OPTIONS    RHF      RHF  

 PROGRAMS   *        TOTAL    HF-SCF       INT   CCSD(T)    HF-SCF       INT   CCSD(T)    HF-SCF       INT
 CPU TIMES  *     21147.09   1516.67      0.48   3782.42   1488.40      0.90  10830.40   1649.64   1877.86
 REAL TIME  *     23282.15 SEC
 DISK USED  *        14.29 GB (local),      506.91 GB (total)
 SF USED    *        17.68 GB
 GA USED    *         4.87 MB       (max)       0.00 MB       (current)
 **********************************************************************************************************************************

 Basis set:  JKFIT                   
 Basis size:  1104
 Attributes:
 Sphericals:   T
 Basis set:  MP2FIT                  
 Basis size:  1246
 Attributes:
 Sphericals:   T
 Basis set:  RI                      
 Basis size:   730
 Attributes:
 Sphericals:   T
 Basis set:  TDDFT                   
 Basis size:  1246
 Attributes:
 Sphericals:   T

 PROGRAM * CCSD (Closed-shell coupled cluster)     Authors: C. Hampel, H.-J. Werner, 1991, M. Deegan, P.J. Knowles, 1992

                                  CCSD-F12 implementation by  H.-J. Werner, 2007

                   Density fitting integral evaluation by F.R. Manby, 2003,2007, G. Knizia, 2010



 Convergence thresholds:  THRVAR = 1.00D-08  THRDEN = 1.00D-10

 CCSD(T)     terms to be evaluated (factor= 1.000)


 Number of core orbitals:           1 (   1 )
 Number of closed-shell orbitals:   4 (   4 )
 Number of external orbitals:     729 ( 729 )

 Molecular orbitals read from record     2102.2  Type=RHF/CANONICAL (state 1.1)

 MP2-F12 correlation treatment (H.-J. Werner, 2006)
 ==================================================

 Using MP2-F12 with ansatz 3C(FIX)

 Using projected zeroth-order Hamiltonian (+Z)

 FOCKRIB=T FOCKRIC=T FOCKRIP=T CABSP=T CABSA=T CABSK=T CABSF=T GBC=F EBC=F DMAT=T NOFIK=T NOPAO=1 SOLVE=-1  USEPAO=0
 EXCH_A= T EXCH_B= F EXCH_C= F EXCH_P= F

 Geminal basis:    OPTFULL  GEM_TYPE=SLATER  BETA=1.0  NGEM=6

 Optimizing Gaussian exponents for each gem_beta

 Geminal optimization for beta= 1.0000
 Weight function:   m=0, omega= 1.4646

 Augmented Hessian optimization of geminal fit. Trust ratio= 0.40000
 Convergence reached after   2 iterations. Final gradient= 8.53D-16, Step= 4.26D-06, Delta= 1.28D-09

 Alpha:                 0.19532     0.81920     2.85917     9.50073    35.69989   197.79328
 Coeff:                 0.27070     0.30552     0.18297     0.10986     0.06810     0.04224


 All pairs explicitly correlated. Number of r12-pairs:           10

 Excluding core orbitals from MO domains

 AO(A)-basis ORBITAL           loaded. Number of functions:     734
 RI(R)-basis RI                loaded. Number of functions:     730
 DF-basis JKFIT                loaded. Number of functions:    1104

 Screening thresholds:   THRAO=  1.00D-10  THRMO=  1.00D-09  THRPROD=  1.00D-09
                         THRSW=  1.00D-05  THROV=  1.00D-12  THRAOF12= 1.00D-10

 CPU time for Fock operators                      9.29 sec

 Construction of ABS:
 Smallest eigenvalue of S          2.27E-04  (threshold= 1.00E-08)
 Ratio eigmin/eigmax               3.94E-05  (threshold= 1.00E-09)
 Smallest eigenvalue of S kept     2.27E-04  (threshold= 2.27E-04, 0 functions deleted, 730 kept)

 Construction of CABS:
 Smallest eigenvalue of S          1.01E-08  (threshold= 1.00E-08)
 Ratio eigmin/eigmax               1.01E-08  (threshold= 1.00E-09)
 Smallest eigenvalue of S kept     1.01E-08  (threshold= 1.01E-08, 0 functions deleted, 730 kept)

 CPU time for CABS singles                        1.20 sec

 CABS-singles contribution of  -0.00004087 patched into reference energy.
 New reference energy         -40.21670766

 AO(A)-basis ORBITAL           loaded. Number of functions:     734
 RI(R)-basis RI                loaded. Number of functions:     730
 DF-basis MP2FIT               loaded. Number of functions:    1246

 Screening thresholds:   THRAO=  1.00D-10  THRMO=  1.00D-09  THRPROD=  1.00D-09
                         THRSW=  1.00D-05  THROV=  1.00D-12  THRAOF12= 1.00D-10

 CPU time for 3-index integral evaluation        28.00 sec
 CPU time for first  half transformation          2.20 sec ( 6559.9 MFLOP/sec)
 CPU time for second half transformation          0.02 sec ( 3148.8 MFLOP/sec)
 CPU time for sorting                             0.16 sec
 CPU time for fitting                             0.33 sec (20728.4 MFLOP/sec)
 CPU time for tilde quantities                    0.39 sec (23383.3 MFLOP/sec)
 CPU time for assembly                            1.39 sec (27932.8 MFLOP/sec)
 CPU time for tranop_f12                          1.74 sec (26326.4 MFLOP/sec)
 CPU time for f12 integrals (total)              36.88 sec, Elapsed time:     38.65 sec
 F12-matrices built in  4 passes.
 F12-matrices built in  4 passes.
 F12-matrices built in  4 passes.
 F12-matrices built in  4 passes.
 FC-matrix built in  4 passes.
 CPU time for f12 matrices (total)                1.38 sec, Elapsed time:      1.41 sec

 Diagonal F12 approximation with fixed coefficients:  TSING= 0.500,  TTRIP= 0.250 (scaled by -1/beta)

 DF-MP2-F12 energy corrections:
 ==============================
 Approx.                                    Singlet             Triplet             Total
 DF-MP2-F12/3*C(DX,FIX)                -0.003935547755     -0.000213209330     -0.004148757085
 DF-MP2-F12/3*C(FIX)                   -0.003772437657     -0.000161072065     -0.003933509722
 DF-MP2-F12/3C(FIX)                    -0.003819380813     -0.000164103541     -0.003983484354

 DF-MP2-F12 correlation energies:
 ================================
 Approx.                                    Singlet             Triplet             Ecorr            Total Energy
 DF-MP2                                -0.157867712778     -0.056824768717     -0.214692481495    -40.431400143198
 DF-MP2-F12/3*C(DX,FIX)                -0.161803260533     -0.057037978047     -0.218841238580    -40.435548900283
 DF-MP2-F12/3*C(FIX)                   -0.161640150435     -0.056985840782     -0.218625991217    -40.435333652920
 DF-MP2-F12/3C(FIX)                    -0.161687093591     -0.056988872258     -0.218675965850    -40.435383627552

 SCS-DF-MP2 energies (F_SING= 1.20000  F_TRIP= 0.62222  F_PARALLEL= 0.33333):
 ============================================================================
 SCS-DF-MP2                            -0.224798889202    -40.441506550905
 SCS-DF-MP2-F12/3*C(DX,FIX)            -0.229654210091    -40.446361871794
 SCS-DF-MP2-F12/3*C(FIX)               -0.229426037009    -40.446133698712
 SCS-DF-MP2-F12/3C(FIX)                -0.229484255048    -40.446191916751
 Symmetry transformation completed.

 Number of N-1 electron functions:               4
 Number of N-2 electron functions:              10
 Number of singly external CSFs:              2916
 Number of doubly external CSFs:           4252986
 Total number of CSFs:                     4255903

 Pair and operator lists are different

 Length of J-op  integral file:             411.24 MB
 Length of K-op  integral file:             721.81 MB
 Length of 3-ext integral record:             0.00 MB

 Memory could be reduced to 2535.14 Mwords without degradation in triples

 Integral transformation finished. Total CPU: 569.92 sec, npass=  1  Memory used:1009.99 MW

 Reference energy:                    -40.21670766

 Adding F12 terms to K(Cij), methodcc=6,  factor= 1.0

 ITER.      SQ.NORM     CORR.ENERGY   TOTAL ENERGY   ENERGY CHANGE        DEN1      VAR(S)    VAR(P)  DIIS     TIME  TIME/IT
   1      1.07033677    -0.22827109   -40.44497876    -0.01357189    -0.00771762  0.62D-03  0.94D-03  1  1   772.79   165.90
   2      1.07515863    -0.22922809   -40.44593576    -0.00095700    -0.00531227  0.16D-04  0.11D-03  2  2   923.41   165.44
   3      1.07694824    -0.22929546   -40.44600312    -0.00006736    -0.00133770  0.22D-05  0.64D-05  3  3  1071.95   164.58
   4      1.07735102    -0.22929791   -40.44600557    -0.00000245    -0.00021859  0.16D-06  0.39D-06  4  4  1218.78   163.85
   5      1.07740830    -0.22930148   -40.44600914    -0.00000357    -0.00000963  0.14D-07  0.24D-07  5  5  1366.27   163.49
   6      1.07741854    -0.22930012   -40.44600778     0.00000135    -0.00000405  0.88D-09  0.18D-08  6  6  1514.34   163.37
   7      1.07742005    -0.22929973   -40.44600740     0.00000039    -0.00000089  0.55D-10  0.13D-09  6  1  1668.41   164.13
   8      1.07741997    -0.22929979   -40.44600746    -0.00000006     0.00000024  0.58D-11  0.81D-11  6  3  1817.83   164.16
   9      1.07742011    -0.22929978   -40.44600744     0.00000002    -0.00000009  0.38D-12  0.55D-12  6  2  1960.75   163.38
  10      1.07742011    -0.22929977   -40.44600744     0.00000000     0.00000001  0.54D-13  0.59D-13  6  4  2108.09   163.25
  11      1.07742012    -0.22929977   -40.44600744     0.00000000    -0.00000000  0.55D-14  0.65D-14  6  5  2261.75   163.74
  12      1.07742012    -0.22929977   -40.44600743     0.00000000     0.00000000  0.14D-15  0.64D-15  6  6  2408.10   163.50
  13      1.07742012    -0.22929977   -40.44600743    -0.00000000     0.00000000  0.10D-16  0.69D-16  6  1  2559.27   163.71
  14      1.07742012    -0.22929977   -40.44600743    -0.00000000     0.00000000  0.16D-17  0.11D-16  6  3  2708.37   163.71

 Norm of t1 vector:      0.03268908      S-energy:     0.00000000      T1 diagnostic:  0.00817227
                                                                       D1 diagnostic:  0.01311247

 Adding energy correction from Wij-K(Fij), methodcc=6  factor= 1.0

  CCSD correlation energy              -0.229299773023
  MP2-F12 correction (uncoupled)       -0.003886336165
  C*T doubles correction               -0.000069042713
  f12b correction                       0.001100913547

 Total CPU time for triples:    650.83 sec

  Ecorr(MP2)                           -0.214699202229
  Ecorr(MP2-F12)                       -0.218682686583
  Scale factor for triples energy       1.018553792063


 RESULTS
 =======

  Reference energy                    -40.216666786806
  F12 singles correction               -0.000040874897

 F12 singles corrections added to reference energy

  New reference energy                -40.216707661703

  F12a singlet correction              -0.003783958201
  F12a triplet correction              -0.000171420677
  F12a total correction                -0.003955378878

 F12a corrections for ansatz F12/3C(FIX) added to CCSD energy

  CCSD-F12a singlet pair energy        -0.178096586425
  CCSD-F12a triplet pair energy        -0.055158565486
  CCSD-F12a correlation energy         -0.233255151901

  Triples (T) contribution (scaled)    -0.007109246423
  Total correlation energy             -0.240364398324

  CCSD-F12a total energy              -40.449962813604
  CCSD[T]-F12a energy                 -40.457307681538
  CCSD-T-F12a energy                  -40.457004214811
 !CCSD(T)-F12a total energy           -40.457072060027

 F12b corrections for ansatz F12/3C(FIX) added to CCSD(T)-F12a energy

  CCSD-F12b singlet pair energy        -0.177024836733
  CCSD-F12b triplet pair energy        -0.055129401632
  CCSD-F12b correlation energy         -0.232154238354

  Triples (T) contribution (scaled)    -0.007109246423
  Total correlation energy             -0.239263484778

  CCSD-F12b total energy              -40.448861900057
  CCSD[T]-F12b energy                 -40.456206767991
  CCSD-T-F12b energy                  -40.455903301264
 !CCSD(T)-F12b total energy           -40.455971146481

 Timing summary (sec):

 STEP                 CPU(USER)    SYS     CPU(TOT)    WALL
 Transformation        570.44     26.88    597.32    598.73
 CCSD iterations      2087.17    204.15   2291.32   2292.26
 Triples               650.83      5.48    656.31    656.44
 MP2-F12                50.95      2.35     53.30     53.32
 F12b energy           142.74     13.82    156.56    156.60

 Program statistics:

 Available memory in ccsd:              3999999866
 Min. memory needed in ccsd:              19260852
 Max. memory used in ccsd:                22423154
 Max. memory used in cckext:              14628952 (15 integral passes)



 **********************************************************************************************************************************
 DATASETS  * FILE   NREC   LENGTH (MB)   RECORD NAMES
              1      19     6330.34       500      610      700      900      950      970     1000      129      960     1100   
                                          VAR    BASINP    GEOM    SYMINP    ZMAT    AOBASIS   BASIS     P2S    ABASIS      S 
                                         1400     1410     1200     1210     1080     1600     1650     1700     1380   
                                           T        V       H0       H01     AOSYM     SMH    MOLCAS    OPER     JKOP   

              2       9       62.47       700     1000      520     2100     7360     7350      200     2101     2102   
                                         GEOM     BASIS   MCVARS     RHF    F12ABS    EF12    OPTIONS    RHF      RHF  

 PROGRAMS   *        TOTAL   CCSD(T)    HF-SCF       INT   CCSD(T)    HF-SCF       INT   CCSD(T)    HF-SCF       INT
 CPU TIMES  *     24649.42   3502.33   1516.67      0.48   3782.42   1488.40      0.90  10830.40   1649.64   1877.86
 REAL TIME  *     27040.98 SEC
 DISK USED  *        14.29 GB (local),      506.91 GB (total)
 SF USED    *        17.68 GB
 GA USED    *         4.87 MB       (max)       0.00 MB       (current)
 **********************************************************************************************************************************
 Molecular orbitals read from record     2102.2  Type=RHF/CANONICAL (state 1.1)
 Occupation numbers read from record     2102.2  Type=RHF/RHF (state 1.1)
 Orbital energies read from record       2102.2  Type=RHF/CANONICAL (state 1.1)
 Redundancy group numbers read from rec  2102.2  Type=RHF/RHF (state 1.1)

 CCSD(T)-F12/aug-cc-pV5Z energy=    -40.455971146481

     CCSD(T)-F12          HF-SCF     CCSD(T)-F12          HF-SCF     CCSD(T)-F12          HF-SCF
    -40.45597115    -40.21666679    -76.37357652    -76.06506398   -116.82985514   -116.28145633
 **********************************************************************************************************************************
 Molpro calculation terminated
