
 Primary working directories    : /scratch/klimes/383083/molpro.48ok54eIBr
 Secondary working directories  : /scratch/klimes/383083/molpro.48ok54eIBr
 Wavefunction directory         : /scratch/klimes/383083/
 Main file repository           : /scratch/klimes/383083/molpro.48ok54eIBr/

 id        : karlovklimes

 Nodes                      nprocs
 nc-22.cc.karlov.mff.cuni.cz    4

 Using customized tuning parameters: mindgm=1; mindgv=20; mindgc=4; mindgr=1; noblas=0; minvec=7
 default implementation of scratch files=sf  


 Variables initialized (930), CPU time= 0.01 sec
                                                                                 !gdirect
 memory,2000,m
 gthresh,orbital=1d-10,energy=1d-10,grid=1d-8
 
 symmetry,nosym
 angstrom
 geometry={
 O1         0.000000000000      0.000000000000      0.000000000000
 H1         0.000000000000      0.000000000000      0.974900000000
 H2         0.000000000000      0.942300000000     -0.261200000000
 C1        -3.277200000000      1.482500000000      1.271900000000
 H41        -2.464000000000      0.899600000000      1.651000000000
 H42        -3.160800000000      2.501000000000      1.578500000000
 H43        -4.201800000000      1.099200000000      1.650100000000
 H44        -3.268500000000      1.421000000000      0.203700000000
 }
 
 nkerna=1
 nkernb=1
 
 gf=0
 sing=1
 thrdum=1d-4
 gridthr=1d-8
 
 basis={
 set,orbital
 default,avtz
 set,jkfit
 default,avqz/jkfit
 set,mp2fit
 default,avqz/mp2fit
 set,ri
 default,avqz/optri
 set,tddft
 default,avqz/mp2fit
 }
 
 proc set_monomer1
 dummy,4,5,6,7,8
 endproc
 
 proc set_monomer2
 dummy,1,2,3
 endproc
 
                                                                                 !1234 energy
 {hf,accu=1.d-16}
 ccsd(t)
 
 set_monomer1
 {hf,accu=1.d-16}
 ccsd(t)
 
 set_monomer2
 {hf,accu=1.d-16}
 ccsd(t)
 
 Commands  initialized (760), CPU time= 0.01 sec, 617 directives.
 Default parameters read. Elapsed time= 0.23 sec

 Checking input...
 Passed
1


                                         ***  PROGRAM SYSTEM MOLPRO  ***
                                       Copyright, TTI GmbH Stuttgart, 2015
                                    Version 2019.1 linked Jan 14 2019 13:09:19


 **********************************************************************************************************************************
 LABEL *                                                                                 
  64 bit mpp version                                                                     DATE: 11-Mar-20          TIME: 12:52:26  
 **********************************************************************************************************************************

 SHA1:             d688ac825633d238f2093ded1675ba87ccd55965
 **********************************************************************************************************************************

 THRESHOLDS:

 ZERO    =  1.00D-12  ONEINT  =  1.00D-12  TWOINT  =  1.00D-11  PREFAC  =  1.00D-14  XXXXXX  =  1.00D-09  EORDER  =  1.00D-04
 ENERGY  =  1.00D-10  ETEST   =  0.00D+00  EDENS   =  0.00D+00  THRDEDEF=  1.00D-06  GRADIENT=  1.00D-02  STEP    =  1.00D-03
 ORBITAL =  1.00D-10  CIVEC   =  1.00D-05  COEFF   =  1.00D-04  PRINTCI =  5.00D-02  PUNCHCI =  9.90D+01  OPTGRAD =  3.00D-04
 OPTENERG=  1.00D-06  OPTSTEP =  3.00D-04  THRGRAD =  1.00D-10  COMPRESS=  1.00D-11  VARMIN  =  1.00D-07  VARMAX  =  1.00D-03
 THRDOUB =  0.00D+00  THRDIV  =  1.00D-05  THRRED  =  1.00D-07  THRPSP  =  1.00D+00  THRDC   =  1.00D-10  THRCS   =  1.00D-10
 THRNRM  =  1.00D-08  THREQ   =  0.00D+00  THRDE   =  1.00D+00  THRREF  =  1.00D-05  SPARFAC =  1.00D+00  THRDLP  =  1.00D-07
 THRDIA  =  1.00D-10  THRDLS  =  1.00D-07  THRGPS  =  0.00D+00  THRKEX  =  0.00D+00  THRDIS  =  2.00D-01  THRVAR  =  1.00D-10
 THRLOC  =  1.00D-06  THRGAP  =  1.00D-06  THRLOCT = -1.00D+00  THRGAPT = -1.00D+00  THRORB  =  1.00D-06  THRMLTP =  0.00D+00
 THRCPQCI=  1.00D-10  KEXTA   =  0.00D+00  THRCOARS=  0.00D+00  SYMTOL  =  1.00D-06  GRADTOL =  1.00D-06  THROVL  =  1.00D-08
 THRORTH =  1.00D-08  GRID    =  1.00D-08  GRIDMAX =  1.00D-03  DTMAX   =  0.00D+00  THROCCDE=  1.00D-01  THROCCDE=  1.00D-01
 THRPRINT=  2.50D-01


 Variable memory set to 2000000000 words,  buffer space 

 ZSYMEL=NOSYM
 ZUNIT=ANG


Geometry recognized as XYZ

 SETTING NKERNA         =         1.00000000                                  
 SETTING NKERNB         =         1.00000000                                  
 SETTING GF             =     0.00000000D+00                                  
 SETTING SING           =         1.00000000                                  
 SETTING THRDUM         =     1.00000000D-04                                  
 SETTING GRIDTHR        =     1.00000000D-08                                  
 SETTING BASIS          =    AVTZ


 Recomputing integrals since basis changed


 Using spherical harmonics

 Library entry O      S aug-cc-pVTZ          selected for orbital group  1
 Library entry O      P aug-cc-pVTZ          selected for orbital group  1
 Library entry O      D aug-cc-pVTZ          selected for orbital group  1
 Library entry O      F aug-cc-pVTZ          selected for orbital group  1
 Library entry H      S aug-cc-pVTZ          selected for orbital group  2
 Library entry H      P aug-cc-pVTZ          selected for orbital group  2
 Library entry H      D aug-cc-pVTZ          selected for orbital group  2
 Library entry C      S aug-cc-pVTZ          selected for orbital group  3
 Library entry C      P aug-cc-pVTZ          selected for orbital group  3
 Library entry C      D aug-cc-pVTZ          selected for orbital group  3
 Library entry C      F aug-cc-pVTZ          selected for orbital group  3


 PROGRAM * SEWARD (Integral evaluation for generally contracted gaussian basis sets)     Author: Roland Lindh, 1990

 Geometry written to block  1 of record 700


 Point group  C1  



 ATOMIC COORDINATES

 NR  ATOM    CHARGE       X              Y              Z

   1  O1      8.00    0.000000000    0.000000000    0.000000000
   2  H1      1.00    0.000000000    0.000000000    1.842293999
   3  H2      1.00    0.000000000    1.780688927   -0.493596464
   4  C1      6.00   -6.193010455    2.801518980    2.403542658
   5  H41     1.00   -4.656285171    1.699997622    3.119937832
   6  H42     1.00   -5.973046335    4.726205038    2.982932688
   7  H43     1.00   -7.940251230    2.077186956    3.118237078
   8  H44     1.00   -6.176569838    2.685300823    0.384937212

 Bond lengths in Bohr (Angstrom)

 1-2  1.842293999  1-3  1.847834009  4-5  2.021904040  4-6  2.022002335  4-7  2.021953343
     ( 0.974900000)     ( 0.977831647)     ( 1.069945541)     ( 1.069997556)     ( 1.069971630)

 4-8  2.022015060
     ( 1.070004290)

 Bond angles

  2-1-3  105.49305961   5-4-6  109.53398059   5-4-7  109.65604535   5-4-8  108.43490854

  6-4-7  109.49436728   6-4-8  109.86987750   7-4-8  109.83468330

 NUCLEAR CHARGE:                   20
 NUMBER OF PRIMITIVE AOS:         296
 NUMBER OF SYMMETRY AOS:          266
 NUMBER OF CONTRACTIONS:          230   (  230A   )
 NUMBER OF CORE ORBITALS:           2   (    2A   )
 NUMBER OF VALENCE ORBITALS:       14   (   14A   )


 NUCLEAR REPULSION ENERGY   36.71209306


 Basis set:  JKFIT                   
 Basis size:   740
 Attributes:
 Sphericals:   T
 Basis set:  MP2FIT                  
 Basis size:   816
 Attributes:
 Sphericals:   T
 Basis set:  RI                      
 Basis size:   556
 Attributes:
 Sphericals:   T
 Basis set:  TDDFT                   
 Basis size:   816
 Attributes:
 Sphericals:   T

 **********************************************************************************************************************************


 Eigenvalues of metric

         1 0.627E-04 0.796E-04 0.896E-04 0.102E-03 0.333E-03 0.375E-03 0.624E-03 0.703E-03


 Contracted 2-electron integrals neglected if value below      1.0D-14
 AO integral compression algorithm  1   Integral accuracy      1.0D-14

     2197.815 MB (compressed) written to integral file ( 68.5%)

     Node minimum: 540.541 MB, node maximum: 556.270 MB


 NUMBER OF SORTED TWO-ELECTRON INTEGRALS:   88219044.     BUFFER LENGTH:  32768
 NUMBER OF SEGMENTS:   6  SEGMENT LENGTH:   15998348      RECORD LENGTH: 524288

 Memory used in sort:      16.56 MW

 SORT1 READ   400769927. AND WROTE    81750773. INTEGRALS IN    237 RECORDS. CPU TIME:    14.08 SEC, REAL TIME:    16.35 SEC
 SORT2 READ   327143994. AND WROTE   352862895. INTEGRALS IN   8468 RECORDS. CPU TIME:     2.69 SEC, REAL TIME:     4.02 SEC

 Node minimum:    88205762.  Node maximum:    88225686. integrals

 OPERATOR DM      FOR CENTER  0  COORDINATES:    0.000000    0.000000    0.000000


 **********************************************************************************************************************************
 DATASETS  * FILE   NREC   LENGTH (MB)   RECORD NAMES
              1      18       32.04       500      610      700      900      950      970     1000      129      960     1100   
                                          VAR    BASINP    GEOM    SYMINP    ZMAT    AOBASIS   BASIS     P2S    ABASIS      S 
                                         1400     1410     1200     1210     1080     1600     1650     1700   
                                           T        V       H0       H01     AOSYM     SMH    MOLCAS    OPER   

 PROGRAMS   *        TOTAL       INT
 CPU TIMES  *        22.06     21.85
 REAL TIME  *        32.04 SEC
 DISK USED  *        32.49 MB (local),        6.21 GB (total)
 GA USED    *         0.00 MB       (max)       0.00 MB       (current)
 **********************************************************************************************************************************


 PROGRAM * RHF-SCF (CLOSED SHELL)       Authors: W. Meyer, H.-J. Werner


 NUMBER OF ELECTRONS:      10+   10-    SPACE SYMMETRY=1    SPIN SYMMETRY: Singlet 
 CONVERGENCE THRESHOLDS:    1.00E-08 (Density)    1.00E-11 (Energy)
 MAX. NUMBER OF ITERATIONS:       60
 INTERPOLATION TYPE:            DIIS
 INTERPOLATION STEPS:              2 (START)      1 (STEP)
 LEVEL SHIFTS:                  0.00 (CLOSED)  0.00 (OPEN) 



 Orbital guess generated from atomic densities. Full valence occupancy:   16

 Molecular orbital dump at record        2100.2

 Initial occupancy:  10

 ITERATION    DDIFF          GRAD             ENERGY        2-EL.EN.            DIPOLE MOMENTS         DIIS   ORB.
    1      0.000D+00      0.000D+00      -116.21362009    158.783859    0.00443    0.91024    0.68735    0    start
    2      0.000D+00      0.522D-02      -116.25741981    153.996103   -0.03173    0.51361    0.38001    1    diag
    3      0.550D-02      0.305D-02      -116.27065134    155.992690   -0.02114    0.61407    0.45775    2    diag
    4      0.182D-02      0.453D-03      -116.27130256    155.881957   -0.02000    0.60548    0.45185    3    diag
    5      0.399D-03      0.132D-03      -116.27136894    155.876258   -0.02057    0.60511    0.45181    4    diag
    6      0.143D-03      0.323D-04      -116.27137267    155.882167   -0.02068    0.60443    0.45146    5    diag
    7      0.403D-04      0.622D-05      -116.27137289    155.880605   -0.02070    0.60445    0.45152    6    diag
    8      0.111D-04      0.157D-05      -116.27137290    155.880751   -0.02073    0.60439    0.45149    7    diag
    9      0.244D-05      0.354D-06      -116.27137290    155.880725   -0.02073    0.60437    0.45148    8    diag
   10      0.778D-06      0.423D-07      -116.27137290    155.880727   -0.02073    0.60437    0.45148    9    orth
   11      0.589D-07      0.111D-07      -116.27137290    155.880728   -0.02073    0.60437    0.45148    9    diag
   12      0.233D-07      0.301D-08      -116.27137290    155.880728   -0.02073    0.60437    0.45148    9    diag
   13      0.437D-08      0.802D-09      -116.27137290    155.880728   -0.02073    0.60437    0.45148    0    orth

 Final occupancy:  10

 !RHF STATE  1.1 Energy              -116.271372903873
 Nuclear energy                        36.71209306
 One-electron energy                 -230.92383005
 Two-electron energy                   77.94036408
 Virial quotient                       -1.00101969
 !RHF STATE  1.1 Dipole moment         -0.02073225     0.60436935     0.45147795
 Dipole moment /Debye                  -0.05269268     1.53605304     1.14746732

 Orbital energies:

         1.1          2.1          3.1          4.1          5.1          6.1          7.1          8.1          9.1         10.1
    -20.569385   -11.200349    -1.342857    -0.953984    -0.708942    -0.579522    -0.555157    -0.553106    -0.550943    -0.507304

        11.1         12.1
      0.026259     0.042241


 HOMO     10.1    -0.507304 =     -13.8044eV
 LUMO     11.1     0.026259 =       0.7145eV
 LUMO-HOMO         0.533563 =      14.5190eV


 **********************************************************************************************************************************
 DATASETS  * FILE   NREC   LENGTH (MB)   RECORD NAMES
              1      18       32.04       500      610      700      900      950      970     1000      129      960     1100   
                                          VAR    BASINP    GEOM    SYMINP    ZMAT    AOBASIS   BASIS     P2S    ABASIS      S 
                                         1400     1410     1200     1210     1080     1600     1650     1700   
                                           T        V       H0       H01     AOSYM     SMH    MOLCAS    OPER   

              2       4        3.96       700     1000      520     2100   
                                         GEOM     BASIS   MCVARS     RHF  

 PROGRAMS   *        TOTAL    HF-SCF       INT
 CPU TIMES  *        36.45     14.39     21.85
 REAL TIME  *        48.44 SEC
 DISK USED  *        39.90 MB (local),        6.24 GB (total)
 SF USED    *         0.21 MB
 GA USED    *         0.00 MB       (max)       0.00 MB       (current)
 **********************************************************************************************************************************

 Basis set:  JKFIT                   
 Basis size:   740
 Attributes:
 Sphericals:   T
 Basis set:  MP2FIT                  
 Basis size:   816
 Attributes:
 Sphericals:   T
 Basis set:  RI                      
 Basis size:   556
 Attributes:
 Sphericals:   T
 Basis set:  TDDFT                   
 Basis size:   816
 Attributes:
 Sphericals:   T

 PROGRAM * CCSD (Closed-shell coupled cluster)     Authors: C. Hampel, H.-J. Werner, 1991, M. Deegan, P.J. Knowles, 1992


 Convergence thresholds:  THRVAR = 1.00D-08  THRDEN = 1.00D-10

 CCSD(T)     terms to be evaluated (factor= 1.000)


 Number of core orbitals:           2 (   2 )
 Number of closed-shell orbitals:   8 (   8 )
 Number of external orbitals:     220 ( 220 )

 Molecular orbitals read from record     2100.2  Type=RHF/CANONICAL (state 1.1)

 Number of N-1 electron functions:               8
 Number of N-2 electron functions:              36
 Number of singly external CSFs:              1760
 Number of doubly external CSFs:           1549680
 Total number of CSFs:                     1551441

 Length of J-op  integral file:               0.00 MB
 Length of K-op  integral file:               3.65 MB
 Length of 3-ext integral record:             0.00 MB

 Memory could be reduced to 116.39 Mwords without degradation in triples

 Integral transformation finished. Total CPU:  30.76 sec, npass=  1  Memory used:  59.35 MW

 Reference energy:                   -116.27137290

 MP2 singlet pair energy:              -0.31736094
 MP2 triplet pair energy:              -0.15384393
 MP2 correlation energy:               -0.47120487
 MP2 total energy:                   -116.74257778

 SCS-MP2 correlation energy:           -0.47655824   (PS=  1.200000  PT=  0.333333)
 SCS-MP2 total energy:               -116.74793115

 ITER.      SQ.NORM     CORR.ENERGY   TOTAL ENERGY   ENERGY CHANGE        DEN1      VAR(S)    VAR(P)  DIIS     TIME  TIME/IT
   1      1.13536802    -0.49390314  -116.76527604    -0.02269826    -0.01148553  0.14D-02  0.20D-02  1  1    47.04    16.36
   2      1.14442059    -0.49531818  -116.76669109    -0.00141505    -0.01035908  0.23D-04  0.24D-03  2  2    63.46    16.61
   3      1.14742025    -0.49544862  -116.76682152    -0.00013044    -0.00196576  0.14D-04  0.11D-04  3  3    79.96    16.71
   4      1.14822458    -0.49544932  -116.76682222    -0.00000070    -0.00036290  0.58D-06  0.12D-05  4  4    96.37    16.74
   5      1.14838251    -0.49544662  -116.76681952     0.00000270    -0.00005035  0.21D-06  0.78D-07  5  5   112.74    16.76
   6      1.14843013    -0.49544208  -116.76681499     0.00000453    -0.00001194  0.19D-07  0.56D-08  6  6   129.34    16.81
   7      1.14843853    -0.49544146  -116.76681437     0.00000062    -0.00000090  0.17D-08  0.10D-08  6  2   145.92    16.83
   8      1.14844055    -0.49544131  -116.76681422     0.00000015    -0.00000015  0.35D-09  0.11D-09  6  1   162.34    16.84
   9      1.14844133    -0.49544127  -116.76681417     0.00000004     0.00000015  0.28D-10  0.13D-10  6  3   178.88    16.85
  10      1.14844155    -0.49544125  -116.76681415     0.00000002    -0.00000001  0.32D-11  0.21D-11  6  4   195.32    16.86
  11      1.14844151    -0.49544126  -116.76681416    -0.00000001     0.00000006  0.60D-12  0.28D-12  6  6   211.86    16.87
  12      1.14844150    -0.49544126  -116.76681416    -0.00000000     0.00000002  0.10D-12  0.36D-13  6  5   228.43    16.88
  13      1.14844148    -0.49544126  -116.76681416    -0.00000000     0.00000001  0.18D-13  0.58D-14  6  2   244.81    16.88
  14      1.14844147    -0.49544126  -116.76681417    -0.00000000     0.00000000  0.25D-14  0.12D-14  6  1   261.26    16.88
  15      1.14844147    -0.49544126  -116.76681417    -0.00000000     0.00000000  0.19D-15  0.13D-15  6  3   277.73    16.88
  16      1.14844147    -0.49544126  -116.76681417    -0.00000000    -0.00000000  0.25D-16  0.18D-16  6  4   294.00    16.88
  17      1.14844147    -0.49544126  -116.76681417     0.00000000    -0.00000000  0.34D-17  0.25D-17  6  6   310.43    16.88

 Norm of t1 vector:      0.05126567      S-energy:    -0.00000000      T1 diagnostic:  0.00906258
                                                                       D1 diagnostic:  0.02232482


 Total CPU time for triples:    263.34 sec


 RESULTS
 =======

  Reference energy                   -116.271372903870
  CCSD singlet pair energy             -0.354387879940
  CCSD triplet pair energy             -0.141053381729
  CCSD correlation energy              -0.495441261676

  Triples (T) contribution             -0.015391700084
  Total correlation energy             -0.510832961760

  CCSD total energy                  -116.766814165546
  CCSD[T] energy                     -116.782730298803
  CCSD-T energy                      -116.781953195415
 !CCSD(T) total energy               -116.782205865630

 Timing summary (sec):

 STEP                 CPU(USER)    SYS     CPU(TOT)    WALL
 Transformation         30.95      1.46     32.41     32.49
 CCSD iterations       279.51      7.12    286.63    286.97
 Triples               263.34      2.13    265.47    265.79

 Program statistics:

 Available memory in ccsd:              1999999734
 Min. memory needed in ccsd:               4617529
 Max. memory used in ccsd:                 5944569
 Max. memory used in cckext:               4248553 (17 integral passes)



 **********************************************************************************************************************************
 DATASETS  * FILE   NREC   LENGTH (MB)   RECORD NAMES
              1      19      398.13       500      610      700      900      950      970     1000      129      960     1100   
                                          VAR    BASINP    GEOM    SYMINP    ZMAT    AOBASIS   BASIS     P2S    ABASIS      S 
                                         1400     1410     1200     1210     1080     1600     1650     1700     1380   
                                           T        V       H0       H01     AOSYM     SMH    MOLCAS    OPER     JKOP   

              2       4        3.96       700     1000      520     2100   
                                         GEOM     BASIS   MCVARS     RHF  

 PROGRAMS   *        TOTAL   CCSD(T)    HF-SCF       INT
 CPU TIMES  *       610.48    574.02     14.39     21.85
 REAL TIME  *       634.52 SEC
 DISK USED  *       570.36 MB (local),        7.86 GB (total)
 SF USED    *       504.31 MB
 GA USED    *         0.00 MB       (max)       0.00 MB       (current)
 **********************************************************************************************************************************

 Running procedure: SET_MONOMER1

 Dummy atoms: C1  H41  H42  H43  H44


 Recomputing one-electron integrals since nuclear charges changed


 PROGRAM * SEWARD (Integral evaluation for generally contracted gaussian basis sets)     Author: Roland Lindh, 1990

 Geometry written to block  1 of record 700


 Point group  C1  



 ATOMIC COORDINATES

 NR  ATOM    CHARGE       X              Y              Z

   1  O1      8.00    0.000000000    0.000000000    0.000000000
   2  H1      1.00    0.000000000    0.000000000    1.842293999
   3  H2      1.00    0.000000000    1.780688927   -0.493596464
   4  C1      0.00   -6.193010455    2.801518980    2.403542658
   5  H41     0.00   -4.656285171    1.699997622    3.119937832
   6  H42     0.00   -5.973046335    4.726205038    2.982932688
   7  H43     0.00   -7.940251230    2.077186956    3.118237078
   8  H44     0.00   -6.176569838    2.685300823    0.384937212

 Bond lengths in Bohr (Angstrom)

 1-2  1.842293999  1-3  1.847834009  4-5  2.021904040  4-6  2.022002335  4-7  2.021953343
     ( 0.974900000)     ( 0.977831647)     ( 1.069945541)     ( 1.069997556)     ( 1.069971630)

 4-8  2.022015060
     ( 1.070004290)

 Bond angles

  2-1-3  105.49305961   5-4-6  109.53398059   5-4-7  109.65604535   5-4-8  108.43490854

  6-4-7  109.49436728   6-4-8  109.86987750   7-4-8  109.83468330

 NUCLEAR CHARGE:                   10
 NUMBER OF PRIMITIVE AOS:         296
 NUMBER OF SYMMETRY AOS:          266
 NUMBER OF CONTRACTIONS:          230   (  230A   )
 NUMBER OF CORE ORBITALS:           1   (    1A   )
 NUMBER OF VALENCE ORBITALS:        6   (    6A   )

 MOLECULE CHANGED: INITIALIZING OCCUPATION AND DUMP RECORDS


 NUCLEAR REPULSION ENERGY    9.01226390

 Basis set:  JKFIT                   
 Basis size:   740
 Attributes:
 Sphericals:   T
 Basis set:  MP2FIT                  
 Basis size:   816
 Attributes:
 Sphericals:   T
 Basis set:  RI                      
 Basis size:   556
 Attributes:
 Sphericals:   T
 Basis set:  TDDFT                   
 Basis size:   816
 Attributes:
 Sphericals:   T

 Eigenvalues of metric

         1 0.627E-04 0.796E-04 0.896E-04 0.102E-03 0.333E-03 0.375E-03 0.624E-03 0.703E-03


 Contracted 2-electron integrals neglected if value below      1.0D-14

 OPERATOR DM      FOR CENTER  0  COORDINATES:    0.000000    0.000000    0.000000


 **********************************************************************************************************************************
 DATASETS  * FILE   NREC   LENGTH (MB)   RECORD NAMES
              1      18       32.04       500      610      700      900      950      970     1000      129      960     1100   
                                          VAR    BASINP    GEOM    SYMINP    ZMAT    AOBASIS   BASIS     P2S    ABASIS      S 
                                         1400     1410     1200     1210     1080     1600     1650     1700   
                                           T        V       H0       H01     AOSYM     SMH    MOLCAS    OPER   

              2       5        5.05       700     1000      520     2100      200   
                                         GEOM     BASIS   MCVARS     RHF    OPTIONS    

 PROGRAMS   *        TOTAL       INT   CCSD(T)    HF-SCF       INT
 CPU TIMES  *       610.69      0.21    574.02     14.39     21.85
 REAL TIME  *       635.34 SEC
 DISK USED  *       570.36 MB (local),        7.86 GB (total)
 SF USED    *       504.31 MB
 GA USED    *         0.00 MB       (max)       0.00 MB       (current)
 **********************************************************************************************************************************


 PROGRAM * RHF-SCF (CLOSED SHELL)       Authors: W. Meyer, H.-J. Werner


 NUMBER OF ELECTRONS:       5+    5-    SPACE SYMMETRY=1    SPIN SYMMETRY: Singlet 
 CONVERGENCE THRESHOLDS:    1.00E-08 (Density)    1.00E-11 (Energy)
 MAX. NUMBER OF ITERATIONS:       60
 INTERPOLATION TYPE:            DIIS
 INTERPOLATION STEPS:              2 (START)      1 (STEP)
 LEVEL SHIFTS:                  0.00 (CLOSED)  0.00 (OPEN) 



 Orbital guess generated from atomic densities. Full valence occupancy:    7

 Molecular orbital dump at record        2101.2

 Initial occupancy:   5

 ITERATION    DDIFF          GRAD             ENERGY        2-EL.EN.            DIPOLE MOMENTS         DIIS   ORB.
    1      0.000D+00      0.000D+00       -76.02057578     77.398610    0.00021    0.91371    0.69091    0    start
    2      0.000D+00      0.640D-02       -76.04718705     73.775794    0.00035    0.53236    0.40378    1    diag
    3      0.445D-02      0.407D-02       -76.05848652     75.376099    0.00030    0.62660    0.47497    2    diag
    4      0.161D-02      0.375D-03       -76.05867639     75.286815    0.00030    0.62293    0.47242    3    diag
    5      0.206D-03      0.104D-03       -76.05869611     75.300851    0.00030    0.62153    0.47146    4    diag
    6      0.647D-04      0.202D-04       -76.05869732     75.299991    0.00030    0.62127    0.47128    5    diag
    7      0.170D-04      0.398D-05       -76.05869738     75.300118    0.00030    0.62116    0.47121    6    diag
    8      0.470D-05      0.740D-06       -76.05869738     75.300103    0.00030    0.62113    0.47119    7    diag
    9      0.788D-06      0.942D-07       -76.05869738     75.300094    0.00030    0.62113    0.47119    8    diag
   10      0.884D-07      0.231D-07       -76.05869738     75.300098    0.00030    0.62113    0.47119    9    orth
   11      0.225D-07      0.414D-08       -76.05869738     75.300097    0.00030    0.62113    0.47119    9    diag
   12      0.451D-08      0.603D-09       -76.05869738     75.300097    0.00030    0.62113    0.47119    0    orth

 Final occupancy:   5

 !RHF STATE  1.1 Energy               -76.058697380005
 Nuclear energy                         9.01226390
 One-electron energy                 -122.72100987
 Two-electron energy                   37.65004860
 Virial quotient                       -1.00231306
 !RHF STATE  1.1 Dipole moment          0.00030295     0.62112796     0.47118734
 Dipole moment /Debye                   0.00076998     1.57864639     1.19756033

 Orbital energies:

         1.1          2.1          3.1          4.1          5.1          6.1          7.1
    -20.570065    -1.343240    -0.709280    -0.579361    -0.508510     0.019643     0.039677


 HOMO      5.1    -0.508510 =     -13.8373eV
 LUMO      6.1     0.019643 =       0.5345eV
 LUMO-HOMO         0.528153 =      14.3718eV


 **********************************************************************************************************************************
 DATASETS  * FILE   NREC   LENGTH (MB)   RECORD NAMES
              1      18       32.04       500      610      700      900      950      970     1000      129      960     1100   
                                          VAR    BASINP    GEOM    SYMINP    ZMAT    AOBASIS   BASIS     P2S    ABASIS      S 
                                         1400     1410     1200     1210     1080     1600     1650     1700   
                                           T        V       H0       H01     AOSYM     SMH    MOLCAS    OPER   

              2       6        9.09       700     1000      520     2100      200     2101   
                                         GEOM     BASIS   MCVARS     RHF    OPTIONS    RHF  

 PROGRAMS   *        TOTAL    HF-SCF       INT   CCSD(T)    HF-SCF       INT
 CPU TIMES  *       624.21     13.52      0.21    574.02     14.39     21.85
 REAL TIME  *       650.45 SEC
 DISK USED  *       570.36 MB (local),        7.86 GB (total)
 SF USED    *       504.31 MB
 GA USED    *         0.00 MB       (max)       0.00 MB       (current)
 **********************************************************************************************************************************

 Basis set:  JKFIT                   
 Basis size:   740
 Attributes:
 Sphericals:   T
 Basis set:  MP2FIT                  
 Basis size:   816
 Attributes:
 Sphericals:   T
 Basis set:  RI                      
 Basis size:   556
 Attributes:
 Sphericals:   T
 Basis set:  TDDFT                   
 Basis size:   816
 Attributes:
 Sphericals:   T

 PROGRAM * CCSD (Closed-shell coupled cluster)     Authors: C. Hampel, H.-J. Werner, 1991, M. Deegan, P.J. Knowles, 1992


 Convergence thresholds:  THRVAR = 1.00D-08  THRDEN = 1.00D-10

 CCSD(T)     terms to be evaluated (factor= 1.000)


 Number of core orbitals:           1 (   1 )
 Number of closed-shell orbitals:   4 (   4 )
 Number of external orbitals:     225 ( 225 )

 Molecular orbitals read from record     2101.2  Type=RHF/CANONICAL (state 1.1)

 Number of N-1 electron functions:               4
 Number of N-2 electron functions:              10
 Number of singly external CSFs:               900
 Number of doubly external CSFs:            405450
 Total number of CSFs:                      406351

 Length of J-op  integral file:               0.00 MB
 Length of K-op  integral file:               3.65 MB
 Length of 3-ext integral record:             0.00 MB

 Memory could be reduced to 75.63 Mwords without degradation in triples

 Integral transformation finished. Total CPU:  14.73 sec, npass=  1  Memory used:  32.52 MW

 Reference energy:                    -76.05869738

 MP2 singlet pair energy:              -0.17170715
 MP2 triplet pair energy:              -0.09821623
 MP2 correlation energy:               -0.26992338
 MP2 total energy:                    -76.32862076

 SCS-MP2 correlation energy:           -0.26716090   (PS=  1.200000  PT=  0.333333)
 SCS-MP2 total energy:                -76.32585828

 ITER.      SQ.NORM     CORR.ENERGY   TOTAL ENERGY   ENERGY CHANGE        DEN1      VAR(S)    VAR(P)  DIIS     TIME  TIME/IT
   1      1.06406270    -0.27407565   -76.33277303    -0.00415227     0.00158638  0.92D-03  0.10D-02  1  1    18.86     4.21
   2      1.06790542    -0.27438274   -76.33308012    -0.00030709    -0.00492199  0.11D-04  0.13D-03  2  2    22.96     4.31
   3      1.06935194    -0.27446637   -76.33316375    -0.00008364    -0.00093502  0.11D-04  0.59D-05  3  3    27.05     4.33
   4      1.06982360    -0.27445993   -76.33315731     0.00000644    -0.00021750  0.51D-06  0.72D-06  4  4    31.18     4.34
   5      1.06992965    -0.27445695   -76.33315433     0.00000298    -0.00003349  0.17D-06  0.48D-07  5  5    35.43     4.35
   6      1.06996617    -0.27445358   -76.33315096     0.00000336    -0.00000745  0.17D-07  0.39D-08  6  6    39.60     4.36
   7      1.06997361    -0.27445323   -76.33315061     0.00000035    -0.00000072  0.15D-08  0.82D-09  6  1    43.72     4.37
   8      1.06997549    -0.27445314   -76.33315052     0.00000009    -0.00000014  0.24D-09  0.94D-10  6  2    47.87     4.37
   9      1.06997605    -0.27445310   -76.33315048     0.00000004     0.00000020  0.19D-10  0.84D-11  6  3    52.05     4.37
  10      1.06997623    -0.27445309   -76.33315047     0.00000002    -0.00000002  0.27D-11  0.13D-11  6  4    56.26     4.37
  11      1.06997622    -0.27445309   -76.33315047    -0.00000001     0.00000002  0.59D-12  0.16D-12  6  5    60.36     4.37
  12      1.06997622    -0.27445309   -76.33315047     0.00000000     0.00000000  0.99D-13  0.32D-13  6  6    64.53     4.38
  13      1.06997621    -0.27445309   -76.33315047    -0.00000000     0.00000000  0.15D-13  0.57D-14  6  1    68.68     4.38
  14      1.06997621    -0.27445309   -76.33315047    -0.00000000     0.00000000  0.14D-14  0.68D-15  6  2    72.89     4.38
  15      1.06997621    -0.27445309   -76.33315047    -0.00000000     0.00000000  0.17D-15  0.12D-15  6  3    77.06     4.38
  16      1.06997621    -0.27445309   -76.33315047    -0.00000000     0.00000000  0.34D-16  0.17D-16  6  4    81.27     4.39

 Norm of t1 vector:      0.04108643      S-energy:    -0.00000000      T1 diagnostic:  0.01027161
                                                                       D1 diagnostic:  0.02182108


 Total CPU time for triples:     42.22 sec


 RESULTS
 =======

  Reference energy                    -76.058697380004
  CCSD singlet pair energy             -0.187513713667
  CCSD triplet pair energy             -0.086939379323
  CCSD correlation energy              -0.274453093048

  Triples (T) contribution             -0.008824504930
  Total correlation energy             -0.283277597978

  CCSD total energy                   -76.333150473052
  CCSD[T] energy                      -76.342310471113
  CCSD-T energy                       -76.341794316238
 !CCSD(T) total energy                -76.341974977981

 Timing summary (sec):

 STEP                 CPU(USER)    SYS     CPU(TOT)    WALL
 Transformation         14.79      0.84     15.63     15.65
 CCSD iterations        66.50      3.64     70.14     70.22
 Triples                42.22      0.48     42.70     42.76

 Program statistics:

 Available memory in ccsd:              1999999921
 Min. memory needed in ccsd:               1865022
 Max. memory used in ccsd:                 2159652
 Max. memory used in cckext:               1451153 (16 integral passes)



 **********************************************************************************************************************************
 DATASETS  * FILE   NREC   LENGTH (MB)   RECORD NAMES
              1      19      222.33       500      610      700      900      950      970     1000      129      960     1100   
                                          VAR    BASINP    GEOM    SYMINP    ZMAT    AOBASIS   BASIS     P2S    ABASIS      S 
                                         1400     1410     1200     1210     1080     1600     1650     1700     1380   
                                           T        V       H0       H01     AOSYM     SMH    MOLCAS    OPER     JKOP   

              2       6        9.09       700     1000      520     2100      200     2101   
                                         GEOM     BASIS   MCVARS     RHF    OPTIONS    RHF  

 PROGRAMS   *        TOTAL   CCSD(T)    HF-SCF       INT   CCSD(T)    HF-SCF       INT
 CPU TIMES  *       747.99    123.78     13.52      0.21    574.02     14.39     21.85
 REAL TIME  *       779.91 SEC
 DISK USED  *       570.36 MB (local),        7.86 GB (total)
 SF USED    *       504.31 MB
 GA USED    *         0.00 MB       (max)       0.00 MB       (current)
 **********************************************************************************************************************************

 Running procedure: SET_MONOMER2

 Dummy atoms: O1  H1  H2


 Recomputing one-electron integrals since nuclear charges changed


 PROGRAM * SEWARD (Integral evaluation for generally contracted gaussian basis sets)     Author: Roland Lindh, 1990

 Geometry written to block  1 of record 700


 Point group  C1  



 ATOMIC COORDINATES

 NR  ATOM    CHARGE       X              Y              Z

   1  O1      0.00    0.000000000    0.000000000    0.000000000
   2  H1      0.00    0.000000000    0.000000000    1.842293999
   3  H2      0.00    0.000000000    1.780688927   -0.493596464
   4  C1      6.00   -6.193010455    2.801518980    2.403542658
   5  H41     1.00   -4.656285171    1.699997622    3.119937832
   6  H42     1.00   -5.973046335    4.726205038    2.982932688
   7  H43     1.00   -7.940251230    2.077186956    3.118237078
   8  H44     1.00   -6.176569838    2.685300823    0.384937212

 Bond lengths in Bohr (Angstrom)

 1-2  1.842293999  1-3  1.847834009  4-5  2.021904040  4-6  2.022002335  4-7  2.021953343
     ( 0.974900000)     ( 0.977831647)     ( 1.069945541)     ( 1.069997556)     ( 1.069971630)

 4-8  2.022015060
     ( 1.070004290)

 Bond angles

  2-1-3  105.49305961   5-4-6  109.53398059   5-4-7  109.65604535   5-4-8  108.43490854

  6-4-7  109.49436728   6-4-8  109.86987750   7-4-8  109.83468330

 NUCLEAR CHARGE:                   10
 NUMBER OF PRIMITIVE AOS:         296
 NUMBER OF SYMMETRY AOS:          266
 NUMBER OF CONTRACTIONS:          230   (  230A   )
 NUMBER OF CORE ORBITALS:           1   (    1A   )
 NUMBER OF VALENCE ORBITALS:        8   (    8A   )

 MOLECULE CHANGED: INITIALIZING OCCUPATION AND DUMP RECORDS


 NUCLEAR REPULSION ENERGY   13.68681606

 Basis set:  JKFIT                   
 Basis size:   740
 Attributes:
 Sphericals:   T
 Basis set:  MP2FIT                  
 Basis size:   816
 Attributes:
 Sphericals:   T
 Basis set:  RI                      
 Basis size:   556
 Attributes:
 Sphericals:   T
 Basis set:  TDDFT                   
 Basis size:   816
 Attributes:
 Sphericals:   T

 Eigenvalues of metric

         1 0.627E-04 0.796E-04 0.896E-04 0.102E-03 0.333E-03 0.375E-03 0.624E-03 0.703E-03


 Contracted 2-electron integrals neglected if value below      1.0D-14

 OPERATOR DM      FOR CENTER  0  COORDINATES:    0.000000    0.000000    0.000000


 **********************************************************************************************************************************
 DATASETS  * FILE   NREC   LENGTH (MB)   RECORD NAMES
              1      18       32.04       500      610      700      900      950      970     1000      129      960     1100   
                                          VAR    BASINP    GEOM    SYMINP    ZMAT    AOBASIS   BASIS     P2S    ABASIS      S 
                                         1400     1410     1200     1210     1080     1600     1650     1700   
                                           T        V       H0       H01     AOSYM     SMH    MOLCAS    OPER   

              2       6        9.09       700     1000      520     2100      200     2101   
                                         GEOM     BASIS   MCVARS     RHF    OPTIONS    RHF  

 PROGRAMS   *        TOTAL       INT   CCSD(T)    HF-SCF       INT   CCSD(T)    HF-SCF       INT
 CPU TIMES  *       748.24      0.24    123.78     13.52      0.21    574.02     14.39     21.85
 REAL TIME  *       780.68 SEC
 DISK USED  *       570.36 MB (local),        7.86 GB (total)
 SF USED    *       504.31 MB
 GA USED    *         0.00 MB       (max)       0.00 MB       (current)
 **********************************************************************************************************************************


 PROGRAM * RHF-SCF (CLOSED SHELL)       Authors: W. Meyer, H.-J. Werner


 NUMBER OF ELECTRONS:       5+    5-    SPACE SYMMETRY=1    SPIN SYMMETRY: Singlet 
 CONVERGENCE THRESHOLDS:    1.00E-08 (Density)    1.00E-11 (Energy)
 MAX. NUMBER OF ITERATIONS:       60
 INTERPOLATION TYPE:            DIIS
 INTERPOLATION STEPS:              2 (START)      1 (STEP)
 LEVEL SHIFTS:                  0.00 (CLOSED)  0.00 (OPEN) 



 Orbital guess generated from atomic densities. Full valence occupancy:    9

 Molecular orbital dump at record        2102.2

 Initial occupancy:   5

 ITERATION    DDIFF          GRAD             ENERGY        2-EL.EN.            DIPOLE MOMENTS         DIIS   ORB.
    1      0.000D+00      0.000D+00       -40.19358787     53.494047    0.00410   -0.00276   -0.00129    0    start
    2      0.000D+00      0.353D-02       -40.21070537     52.213686    0.00129   -0.00088   -0.00037    1    diag
    3      0.324D-02      0.137D-02       -40.21295383     52.664858    0.00182   -0.00124   -0.00054    2    diag
    4      0.903D-03      0.342D-03       -40.21326929     52.609832    0.00162   -0.00110   -0.00047    3    diag
    5      0.299D-03      0.444D-04       -40.21327469     52.612170    0.00159   -0.00108   -0.00046    4    diag
    6      0.819D-04      0.345D-05       -40.21327473     52.612268    0.00159   -0.00108   -0.00046    5    diag
    7      0.681D-05      0.264D-06       -40.21327473     52.612233    0.00159   -0.00108   -0.00046    6    diag
    8      0.997D-06      0.221D-07       -40.21327473     52.612234    0.00159   -0.00108   -0.00046    7    diag
    9      0.188D-06      0.283D-08       -40.21327473     52.612234    0.00159   -0.00108   -0.00046    8    diag
   10      0.105D-07      0.791D-09       -40.21327473     52.612234    0.00159   -0.00108   -0.00046    9    orth
   11      0.121D-08      0.106D-09       -40.21327473     52.612234    0.00159   -0.00108   -0.00046    0    orth

 Final occupancy:   5

 !RHF STATE  1.1 Energy               -40.213274727345
 Nuclear energy                        13.68681606
 One-electron energy                  -80.20620774
 Two-electron energy                   26.30611695
 Virial quotient                       -0.99870092
 !RHF STATE  1.1 Dipole moment          0.00159242    -0.00108110    -0.00046336
 Dipole moment /Debye                   0.00404726    -0.00274769    -0.00117766

 Orbital energies:

         1.1          2.1          3.1          4.1          5.1          6.1          7.1
    -11.197210    -0.950741    -0.551695    -0.549760    -0.547582     0.027559     0.041725


 HOMO      5.1    -0.547582 =     -14.9005eV
 LUMO      6.1     0.027559 =       0.7499eV
 LUMO-HOMO         0.575140 =      15.6504eV


 **********************************************************************************************************************************
 DATASETS  * FILE   NREC   LENGTH (MB)   RECORD NAMES
              1      18       32.04       500      610      700      900      950      970     1000      129      960     1100   
                                          VAR    BASINP    GEOM    SYMINP    ZMAT    AOBASIS   BASIS     P2S    ABASIS      S 
                                         1400     1410     1200     1210     1080     1600     1650     1700   
                                           T        V       H0       H01     AOSYM     SMH    MOLCAS    OPER   

              2       7       13.71       700     1000      520     2100      200     2101     2102   
                                         GEOM     BASIS   MCVARS     RHF    OPTIONS    RHF      RHF  

 PROGRAMS   *        TOTAL    HF-SCF       INT   CCSD(T)    HF-SCF       INT   CCSD(T)    HF-SCF       INT
 CPU TIMES  *       760.70     12.46      0.24    123.78     13.52      0.21    574.02     14.39     21.85
 REAL TIME  *       794.66 SEC
 DISK USED  *       570.36 MB (local),        7.86 GB (total)
 SF USED    *       504.31 MB
 GA USED    *         0.00 MB       (max)       0.00 MB       (current)
 **********************************************************************************************************************************

 Basis set:  JKFIT                   
 Basis size:   740
 Attributes:
 Sphericals:   T
 Basis set:  MP2FIT                  
 Basis size:   816
 Attributes:
 Sphericals:   T
 Basis set:  RI                      
 Basis size:   556
 Attributes:
 Sphericals:   T
 Basis set:  TDDFT                   
 Basis size:   816
 Attributes:
 Sphericals:   T

 PROGRAM * CCSD (Closed-shell coupled cluster)     Authors: C. Hampel, H.-J. Werner, 1991, M. Deegan, P.J. Knowles, 1992


 Convergence thresholds:  THRVAR = 1.00D-08  THRDEN = 1.00D-10

 CCSD(T)     terms to be evaluated (factor= 1.000)


 Number of core orbitals:           1 (   1 )
 Number of closed-shell orbitals:   4 (   4 )
 Number of external orbitals:     225 ( 225 )

 Molecular orbitals read from record     2102.2  Type=RHF/CANONICAL (state 1.1)

 Number of N-1 electron functions:               4
 Number of N-2 electron functions:              10
 Number of singly external CSFs:               900
 Number of doubly external CSFs:            405450
 Total number of CSFs:                      406351

 Length of J-op  integral file:               0.00 MB
 Length of K-op  integral file:               3.65 MB
 Length of 3-ext integral record:             0.00 MB

 Memory could be reduced to 75.63 Mwords without degradation in triples

 Integral transformation finished. Total CPU:  14.62 sec, npass=  1  Memory used:  32.52 MW

 Reference energy:                    -40.21327473

 MP2 singlet pair energy:              -0.14545967
 MP2 triplet pair energy:              -0.05506543
 MP2 correlation energy:               -0.20052510
 MP2 total energy:                    -40.41379983

 SCS-MP2 correlation energy:           -0.20881454   (PS=  1.200000  PT=  0.333333)
 SCS-MP2 total energy:                -40.42208926

 ITER.      SQ.NORM     CORR.ENERGY   TOTAL ENERGY   ENERGY CHANGE        DEN1      VAR(S)    VAR(P)  DIIS     TIME  TIME/IT
   1      1.07101010    -0.21907103   -40.43234576    -0.01854593    -0.01309259  0.46D-03  0.10D-02  1  1    18.74     4.20
   2      1.07650316    -0.22017228   -40.43344701    -0.00110125    -0.00567774  0.13D-04  0.71D-04  2  2    22.82     4.31
   3      1.07773177    -0.22022557   -40.43350030    -0.00005328    -0.00078837  0.16D-05  0.48D-05  3  3    27.02     4.41
   4      1.07803584    -0.22023457   -40.43350930    -0.00000901    -0.00012819  0.92D-07  0.22D-06  4  4    31.14     4.40
   5      1.07808205    -0.22023351   -40.43350824     0.00000107    -0.00001886  0.57D-08  0.16D-07  5  5    35.18     4.38
   6      1.07808694    -0.22023272   -40.43350745     0.00000079    -0.00000159  0.47D-09  0.11D-08  6  6    39.26     4.35
   7      1.07808765    -0.22023257   -40.43350729     0.00000015    -0.00000033  0.33D-10  0.94D-10  6  1    43.26     4.33
   8      1.07808770    -0.22023260   -40.43350733    -0.00000003     0.00000011  0.28D-11  0.56D-11  6  2    47.23     4.31
   9      1.07808770    -0.22023260   -40.43350733    -0.00000000     0.00000002  0.32D-12  0.49D-12  6  3    51.19     4.30
  10      1.07808770    -0.22023260   -40.43350733     0.00000000     0.00000001  0.27D-13  0.50D-13  6  4    55.13     4.29
  11      1.07808769    -0.22023260   -40.43350733     0.00000000     0.00000001  0.22D-14  0.50D-14  6  5    59.10     4.28
  12      1.07808769    -0.22023260   -40.43350733     0.00000000     0.00000000  0.53D-16  0.58D-15  6  6    63.01     4.27

 Norm of t1 vector:      0.02947121      S-energy:     0.00000000      T1 diagnostic:  0.00736780
                                                                       D1 diagnostic:  0.01186613

 Total CPU time for triples:     38.45 sec


 RESULTS
 =======

  Reference energy                    -40.213274727345
  CCSD singlet pair energy             -0.166737768763
  CCSD triplet pair energy             -0.053494830910
  CCSD correlation energy              -0.220232599613

  Triples (T) contribution             -0.006423397845
  Total correlation energy             -0.226655997458

  CCSD total energy                   -40.433507326958
  CCSD[T] energy                      -40.440113279200
  CCSD-T energy                       -40.439862827129
 !CCSD(T) total energy                -40.439930724803

 Timing summary (sec):

 STEP                 CPU(USER)    SYS     CPU(TOT)    WALL
 Transformation         14.68      0.80     15.48     15.50
 CCSD iterations        48.33      2.63     50.96     51.26
 Triples                38.45      0.37     38.82     38.87

 Program statistics:

 Available memory in ccsd:              1999999916
 Min. memory needed in ccsd:               1865022
 Max. memory used in ccsd:                 2159652
 Max. memory used in cckext:               1451153 (12 integral passes)



 **********************************************************************************************************************************
 DATASETS  * FILE   NREC   LENGTH (MB)   RECORD NAMES
              1      19      222.33       500      610      700      900      950      970     1000      129      960     1100   
                                          VAR    BASINP    GEOM    SYMINP    ZMAT    AOBASIS   BASIS     P2S    ABASIS      S 
                                         1400     1410     1200     1210     1080     1600     1650     1700     1380   
                                           T        V       H0       H01     AOSYM     SMH    MOLCAS    OPER     JKOP   

              2       7       13.71       700     1000      520     2100      200     2101     2102   
                                         GEOM     BASIS   MCVARS     RHF    OPTIONS    RHF      RHF  

 PROGRAMS   *        TOTAL   CCSD(T)    HF-SCF       INT   CCSD(T)    HF-SCF       INT   CCSD(T)    HF-SCF       INT
 CPU TIMES  *       862.38    101.67     12.46      0.24    123.78     13.52      0.21    574.02     14.39     21.85
 REAL TIME  *       901.01 SEC
 DISK USED  *       570.36 MB (local),        7.86 GB (total)
 SF USED    *       504.31 MB
 GA USED    *         0.00 MB       (max)       0.00 MB       (current)
 **********************************************************************************************************************************
 Molecular orbitals read from record     2102.2  Type=RHF/CANONICAL (state 1.1)
 Occupation numbers read from record     2102.2  Type=RHF/RHF (state 1.1)
 Orbital energies read from record       2102.2  Type=RHF/CANONICAL (state 1.1)
 Redundancy group numbers read from rec  2102.2  Type=RHF/RHF (state 1.1)

 CCSD(T)/aug-cc-pVTZ energy=    -40.439930724803

         CCSD(T)          HF-SCF         CCSD(T)          HF-SCF         CCSD(T)          HF-SCF
    -40.43993072    -40.21327473    -76.34197498    -76.05869738   -116.78220587   -116.27137290
 **********************************************************************************************************************************
 Molpro calculation terminated
