
 Primary working directories    : /scratch/klimes/383084/molpro.HpwjIvRHUw
 Secondary working directories  : /scratch/klimes/383084/molpro.HpwjIvRHUw
 Wavefunction directory         : /scratch/klimes/383084/
 Main file repository           : /scratch/klimes/383084/molpro.HpwjIvRHUw/

 id        : karlovklimes

 Nodes                      nprocs
 nc-22.cc.karlov.mff.cuni.cz    4

 Using customized tuning parameters: mindgm=1; mindgv=20; mindgc=4; mindgr=1; noblas=0; minvec=7
 default implementation of scratch files=sf  


 Variables initialized (930), CPU time= 0.01 sec
                                                                                 !gdirect
 memory,2000,m
 gthresh,orbital=1d-10,energy=1d-10,grid=1d-8
 
 symmetry,nosym
 angstrom
 geometry={
 O2        -0.069900000000     -0.226200000000      2.872700000000
 H3         0.635400000000     -0.815900000000      3.168900000000
 H4        -0.918500000000     -0.721300000000      3.072500000000
 C1        -3.277200000000      1.482500000000      1.271900000000
 H41        -2.464000000000      0.899600000000      1.651000000000
 H42        -3.160800000000      2.501000000000      1.578500000000
 H43        -4.201800000000      1.099200000000      1.650100000000
 H44        -3.268500000000      1.421000000000      0.203700000000
 }
 
 nkerna=1
 nkernb=1
 
 gf=0
 sing=1
 thrdum=1d-4
 gridthr=1d-8
 
 basis={
 set,orbital
 default,avtz
 set,jkfit
 default,avqz/jkfit
 set,mp2fit
 default,avqz/mp2fit
 set,ri
 default,avqz/optri
 set,tddft
 default,avqz/mp2fit
 }
 
 proc set_monomer1
 dummy,4,5,6,7,8
 endproc
 
 proc set_monomer2
 dummy,1,2,3
 endproc
 
                                                                                 !1234 energy
 {hf,accu=1.d-16}
 ccsd(t)
 
 set_monomer1
 {hf,accu=1.d-16}
 ccsd(t)
 
 set_monomer2
 {hf,accu=1.d-16}
 ccsd(t)
 
 Commands  initialized (760), CPU time= 0.02 sec, 617 directives.
 Default parameters read. Elapsed time= 0.22 sec

 Checking input...
 Passed
1


                                         ***  PROGRAM SYSTEM MOLPRO  ***
                                       Copyright, TTI GmbH Stuttgart, 2015
                                    Version 2019.1 linked Jan 14 2019 13:09:19


 **********************************************************************************************************************************
 LABEL *                                                                                 
  64 bit mpp version                                                                     DATE: 11-Mar-20          TIME: 12:52:30  
 **********************************************************************************************************************************

 SHA1:             d688ac825633d238f2093ded1675ba87ccd55965
 **********************************************************************************************************************************

 THRESHOLDS:

 ZERO    =  1.00D-12  ONEINT  =  1.00D-12  TWOINT  =  1.00D-11  PREFAC  =  1.00D-14  XXXXXX  =  1.00D-09  EORDER  =  1.00D-04
 ENERGY  =  1.00D-10  ETEST   =  0.00D+00  EDENS   =  0.00D+00  THRDEDEF=  1.00D-06  GRADIENT=  1.00D-02  STEP    =  1.00D-03
 ORBITAL =  1.00D-10  CIVEC   =  1.00D-05  COEFF   =  1.00D-04  PRINTCI =  5.00D-02  PUNCHCI =  9.90D+01  OPTGRAD =  3.00D-04
 OPTENERG=  1.00D-06  OPTSTEP =  3.00D-04  THRGRAD =  1.00D-10  COMPRESS=  1.00D-11  VARMIN  =  1.00D-07  VARMAX  =  1.00D-03
 THRDOUB =  0.00D+00  THRDIV  =  1.00D-05  THRRED  =  1.00D-07  THRPSP  =  1.00D+00  THRDC   =  1.00D-10  THRCS   =  1.00D-10
 THRNRM  =  1.00D-08  THREQ   =  0.00D+00  THRDE   =  1.00D+00  THRREF  =  1.00D-05  SPARFAC =  1.00D+00  THRDLP  =  1.00D-07
 THRDIA  =  1.00D-10  THRDLS  =  1.00D-07  THRGPS  =  0.00D+00  THRKEX  =  0.00D+00  THRDIS  =  2.00D-01  THRVAR  =  1.00D-10
 THRLOC  =  1.00D-06  THRGAP  =  1.00D-06  THRLOCT = -1.00D+00  THRGAPT = -1.00D+00  THRORB  =  1.00D-06  THRMLTP =  0.00D+00
 THRCPQCI=  1.00D-10  KEXTA   =  0.00D+00  THRCOARS=  0.00D+00  SYMTOL  =  1.00D-06  GRADTOL =  1.00D-06  THROVL  =  1.00D-08
 THRORTH =  1.00D-08  GRID    =  1.00D-08  GRIDMAX =  1.00D-03  DTMAX   =  0.00D+00  THROCCDE=  1.00D-01  THROCCDE=  1.00D-01
 THRPRINT=  2.50D-01


 Variable memory set to 2000000000 words,  buffer space 

 ZSYMEL=NOSYM
 ZUNIT=ANG


Geometry recognized as XYZ

 SETTING NKERNA         =         1.00000000                                  
 SETTING NKERNB         =         1.00000000                                  
 SETTING GF             =     0.00000000D+00                                  
 SETTING SING           =         1.00000000                                  
 SETTING THRDUM         =     1.00000000D-04                                  
 SETTING GRIDTHR        =     1.00000000D-08                                  
 SETTING BASIS          =    AVTZ


 Recomputing integrals since basis changed


 Using spherical harmonics

 Library entry O      S aug-cc-pVTZ          selected for orbital group  1
 Library entry O      P aug-cc-pVTZ          selected for orbital group  1
 Library entry O      D aug-cc-pVTZ          selected for orbital group  1
 Library entry O      F aug-cc-pVTZ          selected for orbital group  1
 Library entry H      S aug-cc-pVTZ          selected for orbital group  2
 Library entry H      P aug-cc-pVTZ          selected for orbital group  2
 Library entry H      D aug-cc-pVTZ          selected for orbital group  2
 Library entry C      S aug-cc-pVTZ          selected for orbital group  3
 Library entry C      P aug-cc-pVTZ          selected for orbital group  3
 Library entry C      D aug-cc-pVTZ          selected for orbital group  3
 Library entry C      F aug-cc-pVTZ          selected for orbital group  3


 PROGRAM * SEWARD (Integral evaluation for generally contracted gaussian basis sets)     Author: Roland Lindh, 1990

 Geometry written to block  1 of record 700


 Point group  C1  



 ATOMIC COORDINATES

 NR  ATOM    CHARGE       X              Y              Z

   1  O2      8.00   -0.132091856   -0.427456049    5.428616238
   2  H3      1.00    1.200731980   -1.541827545    5.988353116
   3  H4      1.00   -1.735713445   -1.363059454    5.806183518
   4  C1      6.00   -6.193010455    2.801518980    2.403542658
   5  H41     1.00   -4.656285171    1.699997622    3.119937832
   6  H42     1.00   -5.973046335    4.726205038    2.982932688
   7  H43     1.00   -7.940251230    2.077186956    3.118237078
   8  H44     1.00   -6.176569838    2.685300823    0.384937212

 Bond lengths in Bohr (Angstrom)

 1-2  1.825253018  1-3  1.894601009  4-5  2.021904040  4-6  2.022002335  4-7  2.021953343
     ( 0.965882301)     ( 1.002579678)     ( 1.069945541)     ( 1.069997556)     ( 1.069971630)

 4-8  2.022015060
     ( 1.070004290)

 Bond angles

  2-1-3  104.80057086   5-4-6  109.53398059   5-4-7  109.65604535   5-4-8  108.43490854

  6-4-7  109.49436728   6-4-8  109.86987750   7-4-8  109.83468330

 NUCLEAR CHARGE:                   20
 NUMBER OF PRIMITIVE AOS:         296
 NUMBER OF SYMMETRY AOS:          266
 NUMBER OF CONTRACTIONS:          230   (  230A   )
 NUMBER OF CORE ORBITALS:           2   (    2A   )
 NUMBER OF VALENCE ORBITALS:       14   (   14A   )


 NUCLEAR REPULSION ENERGY   35.86337232


 Basis set:  JKFIT                   
 Basis size:   740
 Attributes:
 Sphericals:   T
 Basis set:  MP2FIT                  
 Basis size:   816
 Attributes:
 Sphericals:   T
 Basis set:  RI                      
 Basis size:   556
 Attributes:
 Sphericals:   T
 Basis set:  TDDFT                   
 Basis size:   816
 Attributes:
 Sphericals:   T

 **********************************************************************************************************************************


 Eigenvalues of metric

         1 0.373E-04 0.777E-04 0.103E-03 0.106E-03 0.330E-03 0.341E-03 0.510E-03 0.682E-03


 Contracted 2-electron integrals neglected if value below      1.0D-14
 AO integral compression algorithm  1   Integral accuracy      1.0D-14

     2118.910 MB (compressed) written to integral file ( 66.1%)

     Node minimum: 500.695 MB, node maximum: 551.289 MB


 NUMBER OF SORTED TWO-ELECTRON INTEGRALS:   88219044.     BUFFER LENGTH:  32768
 NUMBER OF SEGMENTS:   6  SEGMENT LENGTH:   15998348      RECORD LENGTH: 524288

 Memory used in sort:      16.56 MW

 SORT1 READ   400769927. AND WROTE    79941339. INTEGRALS IN    231 RECORDS. CPU TIME:    12.99 SEC, REAL TIME:    14.49 SEC
 SORT2 READ   320179048. AND WROTE   352862895. INTEGRALS IN   7640 RECORDS. CPU TIME:     2.16 SEC, REAL TIME:     3.49 SEC

 Node minimum:    88205762.  Node maximum:    88225686. integrals

 OPERATOR DM      FOR CENTER  0  COORDINATES:    0.000000    0.000000    0.000000


 **********************************************************************************************************************************
 DATASETS  * FILE   NREC   LENGTH (MB)   RECORD NAMES
              1      18       32.04       500      610      700      900      950      970     1000      129      960     1100   
                                          VAR    BASINP    GEOM    SYMINP    ZMAT    AOBASIS   BASIS     P2S    ABASIS      S 
                                         1400     1410     1200     1210     1080     1600     1650     1700   
                                           T        V       H0       H01     AOSYM     SMH    MOLCAS    OPER   

 PROGRAMS   *        TOTAL       INT
 CPU TIMES  *        19.90     19.69
 REAL TIME  *        27.38 SEC
 DISK USED  *        32.49 MB (local),        6.03 GB (total)
 GA USED    *         0.00 MB       (max)       0.00 MB       (current)
 **********************************************************************************************************************************


 PROGRAM * RHF-SCF (CLOSED SHELL)       Authors: W. Meyer, H.-J. Werner


 NUMBER OF ELECTRONS:      10+   10-    SPACE SYMMETRY=1    SPIN SYMMETRY: Singlet 
 CONVERGENCE THRESHOLDS:    1.00E-08 (Density)    1.00E-11 (Energy)
 MAX. NUMBER OF ITERATIONS:       60
 INTERPOLATION TYPE:            DIIS
 INTERPOLATION STEPS:              2 (START)      1 (STEP)
 LEVEL SHIFTS:                  0.00 (CLOSED)  0.00 (OPEN) 



 Orbital guess generated from atomic densities. Full valence occupancy:   16

 Molecular orbital dump at record        2100.2

 Initial occupancy:  10

 ITERATION    DDIFF          GRAD             ENERGY        2-EL.EN.            DIPOLE MOMENTS         DIIS   ORB.
    1      0.000D+00      0.000D+00      -116.21195242    157.362078   -0.14324   -1.05316    0.47927    0    start
    2      0.000D+00      0.522D-02      -116.25576336    152.384473   -0.02222   -0.59486    0.27909    1    diag
    3      0.550D-02      0.308D-02      -116.26929265    154.450030   -0.05164   -0.71229    0.32951    2    diag
    4      0.185D-02      0.456D-03      -116.26995015    154.337984   -0.04904   -0.70254    0.32467    3    diag
    5      0.409D-03      0.134D-03      -116.27001858    154.333362   -0.04823   -0.70210    0.32446    4    diag
    6      0.149D-03      0.328D-04      -116.27002246    154.339252   -0.04797   -0.70136    0.32409    5    diag
    7      0.412D-04      0.644D-05      -116.27002269    154.337776   -0.04795   -0.70137    0.32408    6    diag
    8      0.115D-04      0.164D-05      -116.27002271    154.337933   -0.04791   -0.70130    0.32405    7    diag
    9      0.242D-05      0.371D-06      -116.27002271    154.337906   -0.04790   -0.70128    0.32404    8    diag
   10      0.778D-06      0.418D-07      -116.27002271    154.337907   -0.04790   -0.70128    0.32404    9    orth
   11      0.661D-07      0.103D-07      -116.27002271    154.337909   -0.04790   -0.70128    0.32404    9    diag
   12      0.235D-07      0.268D-08      -116.27002271    154.337908   -0.04790   -0.70128    0.32404    9    diag
   13      0.403D-08      0.700D-09      -116.27002271    154.337909   -0.04790   -0.70128    0.32404    0    orth

 Final occupancy:  10

 !RHF STATE  1.1 Energy              -116.270022711977
 Nuclear energy                        35.86337232
 One-electron energy                 -229.30234933
 Two-electron energy                   77.16895430
 Virial quotient                       -1.00123652
 !RHF STATE  1.1 Dipole moment         -0.04789565    -0.70127819     0.32403781
 Dipole moment /Debye                  -0.12173063    -1.78235462     0.82356803

 Orbital energies:

         1.1          2.1          3.1          4.1          5.1          6.1          7.1          8.1          9.1         10.1
    -20.572735   -11.192254    -1.341454    -0.945986    -0.705556    -0.580651    -0.546829    -0.545190    -0.542300    -0.509264

        11.1         12.1
      0.025961     0.039759


 HOMO     10.1    -0.509264 =     -13.8578eV
 LUMO     11.1     0.025961 =       0.7064eV
 LUMO-HOMO         0.535225 =      14.5642eV


 **********************************************************************************************************************************
 DATASETS  * FILE   NREC   LENGTH (MB)   RECORD NAMES
              1      18       32.04       500      610      700      900      950      970     1000      129      960     1100   
                                          VAR    BASINP    GEOM    SYMINP    ZMAT    AOBASIS   BASIS     P2S    ABASIS      S 
                                         1400     1410     1200     1210     1080     1600     1650     1700   
                                           T        V       H0       H01     AOSYM     SMH    MOLCAS    OPER   

              2       4        3.96       700     1000      520     2100   
                                         GEOM     BASIS   MCVARS     RHF  

 PROGRAMS   *        TOTAL    HF-SCF       INT
 CPU TIMES  *        34.13     14.22     19.69
 REAL TIME  *        43.38 SEC
 DISK USED  *        39.90 MB (local),        6.06 GB (total)
 SF USED    *         0.21 MB
 GA USED    *         0.00 MB       (max)       0.00 MB       (current)
 **********************************************************************************************************************************

 Basis set:  JKFIT                   
 Basis size:   740
 Attributes:
 Sphericals:   T
 Basis set:  MP2FIT                  
 Basis size:   816
 Attributes:
 Sphericals:   T
 Basis set:  RI                      
 Basis size:   556
 Attributes:
 Sphericals:   T
 Basis set:  TDDFT                   
 Basis size:   816
 Attributes:
 Sphericals:   T

 PROGRAM * CCSD (Closed-shell coupled cluster)     Authors: C. Hampel, H.-J. Werner, 1991, M. Deegan, P.J. Knowles, 1992


 Convergence thresholds:  THRVAR = 1.00D-08  THRDEN = 1.00D-10

 CCSD(T)     terms to be evaluated (factor= 1.000)


 Number of core orbitals:           2 (   2 )
 Number of closed-shell orbitals:   8 (   8 )
 Number of external orbitals:     220 ( 220 )

 Molecular orbitals read from record     2100.2  Type=RHF/CANONICAL (state 1.1)

 Number of N-1 electron functions:               8
 Number of N-2 electron functions:              36
 Number of singly external CSFs:              1760
 Number of doubly external CSFs:           1549680
 Total number of CSFs:                     1551441

 Length of J-op  integral file:               0.00 MB
 Length of K-op  integral file:               3.65 MB
 Length of 3-ext integral record:             0.00 MB

 Memory could be reduced to 116.39 Mwords without degradation in triples

 Integral transformation finished. Total CPU:  27.65 sec, npass=  1  Memory used:  59.35 MW

 Reference energy:                   -116.27002271

 MP2 singlet pair energy:              -0.31778157
 MP2 triplet pair energy:              -0.15403190
 MP2 correlation energy:               -0.47181347
 MP2 total energy:                   -116.74183618

 SCS-MP2 correlation energy:           -0.47717996   (PS=  1.200000  PT=  0.333333)
 SCS-MP2 total energy:               -116.74720267

 ITER.      SQ.NORM     CORR.ENERGY   TOTAL ENERGY   ENERGY CHANGE        DEN1      VAR(S)    VAR(P)  DIIS     TIME  TIME/IT
   1      1.13586576    -0.49438484  -116.76440755    -0.02257137    -0.01126751  0.14D-02  0.21D-02  1  1    42.86    15.33
   2      1.14499047    -0.49579787  -116.76582058    -0.00141303    -0.01042202  0.23D-04  0.25D-03  2  2    58.46    15.65
   3      1.14803584    -0.49593253  -116.76595524    -0.00013466    -0.00199103  0.14D-04  0.12D-04  3  3    74.06    15.76
   4      1.14885673    -0.49593416  -116.76595687    -0.00000163    -0.00036840  0.59D-06  0.12D-05  4  4    89.46    15.79
   5      1.14901642    -0.49593144  -116.76595416     0.00000271    -0.00005079  0.20D-06  0.78D-07  5  5   104.97    15.80
   6      1.14906504    -0.49592678  -116.76594949     0.00000467    -0.00001210  0.17D-07  0.49D-08  6  6   120.44    15.82
   7      1.14907340    -0.49592621  -116.76594892     0.00000056    -0.00000080  0.12D-08  0.80D-09  6  2   135.91    15.83
   8      1.14907517    -0.49592607  -116.76594879     0.00000014    -0.00000000  0.23D-09  0.78D-10  6  1   151.30    15.83
   9      1.14907591    -0.49592602  -116.76594873     0.00000006     0.00000001  0.18D-10  0.11D-10  6  3   166.80    15.83
  10      1.14907606    -0.49592601  -116.76594872     0.00000001     0.00000001  0.26D-11  0.15D-11  6  4   182.24    15.84
  11      1.14907599    -0.49592602  -116.76594873    -0.00000001     0.00000006  0.50D-12  0.25D-12  6  6   197.64    15.84
  12      1.14907597    -0.49592602  -116.76594873    -0.00000000     0.00000002  0.86D-13  0.26D-13  6  5   213.06    15.85
  13      1.14907595    -0.49592602  -116.76594873    -0.00000000     0.00000000  0.15D-13  0.40D-14  6  2   228.52    15.85
  14      1.14907595    -0.49592602  -116.76594873    -0.00000000     0.00000000  0.18D-14  0.98D-15  6  1   244.05    15.85
  15      1.14907595    -0.49592602  -116.76594873    -0.00000000    -0.00000000  0.18D-15  0.93D-16  6  3   259.51    15.85
  16      1.14907595    -0.49592602  -116.76594873    -0.00000000    -0.00000000  0.31D-16  0.13D-16  6  4   274.95    15.86

 Norm of t1 vector:      0.05145553      S-energy:     0.00000000      T1 diagnostic:  0.00909614
                                                                       D1 diagnostic:  0.02244756


 Total CPU time for triples:    238.89 sec


 RESULTS
 =======

  Reference energy                   -116.270022711977
  CCSD singlet pair energy             -0.354895979411
  CCSD triplet pair energy             -0.141030039420
  CCSD correlation energy              -0.495926018819

  Triples (T) contribution             -0.015447307125
  Total correlation energy             -0.511373325943

  CCSD total energy                  -116.765948730795
  CCSD[T] energy                     -116.781925698642
  CCSD-T energy                      -116.781140832993
 !CCSD(T) total energy               -116.781396037920

 Timing summary (sec):

 STEP                 CPU(USER)    SYS     CPU(TOT)    WALL
 Transformation         27.79      1.32     29.11     29.33
 CCSD iterations       247.18      6.30    253.48    253.77
 Triples               238.89      1.30    240.19    240.46

 Program statistics:

 Available memory in ccsd:              1999999734
 Min. memory needed in ccsd:               4617529
 Max. memory used in ccsd:                 5944569
 Max. memory used in cckext:               4248553 (16 integral passes)



 **********************************************************************************************************************************
 DATASETS  * FILE   NREC   LENGTH (MB)   RECORD NAMES
              1      19      398.13       500      610      700      900      950      970     1000      129      960     1100   
                                          VAR    BASINP    GEOM    SYMINP    ZMAT    AOBASIS   BASIS     P2S    ABASIS      S 
                                         1400     1410     1200     1210     1080     1600     1650     1700     1380   
                                           T        V       H0       H01     AOSYM     SMH    MOLCAS    OPER     JKOP   

              2       4        3.96       700     1000      520     2100   
                                         GEOM     BASIS   MCVARS     RHF  

 PROGRAMS   *        TOTAL   CCSD(T)    HF-SCF       INT
 CPU TIMES  *       548.24    514.09     14.22     19.69
 REAL TIME  *       567.80 SEC
 DISK USED  *       570.36 MB (local),        7.68 GB (total)
 SF USED    *       504.31 MB
 GA USED    *         0.00 MB       (max)       0.00 MB       (current)
 **********************************************************************************************************************************

 Running procedure: SET_MONOMER1

 Dummy atoms: C1  H41  H42  H43  H44


 Recomputing one-electron integrals since nuclear charges changed


 PROGRAM * SEWARD (Integral evaluation for generally contracted gaussian basis sets)     Author: Roland Lindh, 1990

 Geometry written to block  1 of record 700


 Point group  C1  



 ATOMIC COORDINATES

 NR  ATOM    CHARGE       X              Y              Z

   1  O2      8.00   -0.132091856   -0.427456049    5.428616238
   2  H3      1.00    1.200731980   -1.541827545    5.988353116
   3  H4      1.00   -1.735713445   -1.363059454    5.806183518
   4  C1      0.00   -6.193010455    2.801518980    2.403542658
   5  H41     0.00   -4.656285171    1.699997622    3.119937832
   6  H42     0.00   -5.973046335    4.726205038    2.982932688
   7  H43     0.00   -7.940251230    2.077186956    3.118237078
   8  H44     0.00   -6.176569838    2.685300823    0.384937212

 Bond lengths in Bohr (Angstrom)

 1-2  1.825253018  1-3  1.894601009  4-5  2.021904040  4-6  2.022002335  4-7  2.021953343
     ( 0.965882301)     ( 1.002579678)     ( 1.069945541)     ( 1.069997556)     ( 1.069971630)

 4-8  2.022015060
     ( 1.070004290)

 Bond angles

  2-1-3  104.80057086   5-4-6  109.53398059   5-4-7  109.65604535   5-4-8  108.43490854

  6-4-7  109.49436728   6-4-8  109.86987750   7-4-8  109.83468330

 NUCLEAR CHARGE:                   10
 NUMBER OF PRIMITIVE AOS:         296
 NUMBER OF SYMMETRY AOS:          266
 NUMBER OF CONTRACTIONS:          230   (  230A   )
 NUMBER OF CORE ORBITALS:           1   (    1A   )
 NUMBER OF VALENCE ORBITALS:        6   (    6A   )

 MOLECULE CHANGED: INITIALIZING OCCUPATION AND DUMP RECORDS


 NUCLEAR REPULSION ENERGY    8.94474756

 Basis set:  JKFIT                   
 Basis size:   740
 Attributes:
 Sphericals:   T
 Basis set:  MP2FIT                  
 Basis size:   816
 Attributes:
 Sphericals:   T
 Basis set:  RI                      
 Basis size:   556
 Attributes:
 Sphericals:   T
 Basis set:  TDDFT                   
 Basis size:   816
 Attributes:
 Sphericals:   T

 Eigenvalues of metric

         1 0.373E-04 0.777E-04 0.103E-03 0.106E-03 0.330E-03 0.341E-03 0.510E-03 0.682E-03


 Contracted 2-electron integrals neglected if value below      1.0D-14

 OPERATOR DM      FOR CENTER  0  COORDINATES:    0.000000    0.000000    0.000000


 **********************************************************************************************************************************
 DATASETS  * FILE   NREC   LENGTH (MB)   RECORD NAMES
              1      18       32.04       500      610      700      900      950      970     1000      129      960     1100   
                                          VAR    BASINP    GEOM    SYMINP    ZMAT    AOBASIS   BASIS     P2S    ABASIS      S 
                                         1400     1410     1200     1210     1080     1600     1650     1700   
                                           T        V       H0       H01     AOSYM     SMH    MOLCAS    OPER   

              2       5        5.05       700     1000      520     2100      200   
                                         GEOM     BASIS   MCVARS     RHF    OPTIONS    

 PROGRAMS   *        TOTAL       INT   CCSD(T)    HF-SCF       INT
 CPU TIMES  *       548.51      0.25    514.09     14.22     19.69
 REAL TIME  *       568.62 SEC
 DISK USED  *       570.36 MB (local),        7.68 GB (total)
 SF USED    *       504.31 MB
 GA USED    *         0.00 MB       (max)       0.00 MB       (current)
 **********************************************************************************************************************************


 PROGRAM * RHF-SCF (CLOSED SHELL)       Authors: W. Meyer, H.-J. Werner


 NUMBER OF ELECTRONS:       5+    5-    SPACE SYMMETRY=1    SPIN SYMMETRY: Singlet 
 CONVERGENCE THRESHOLDS:    1.00E-08 (Density)    1.00E-11 (Energy)
 MAX. NUMBER OF ITERATIONS:       60
 INTERPOLATION TYPE:            DIIS
 INTERPOLATION STEPS:              2 (START)      1 (STEP)
 LEVEL SHIFTS:                  0.00 (CLOSED)  0.00 (OPEN) 



 Orbital guess generated from atomic densities. Full valence occupancy:    7

 Molecular orbital dump at record        2101.2

 Initial occupancy:   5

 ITERATION    DDIFF          GRAD             ENERGY        2-EL.EN.            DIPOLE MOMENTS         DIIS   ORB.
    1      0.000D+00      0.000D+00       -76.01840299     77.302313   -0.15112   -1.05033    0.47988    0    start
    2      0.000D+00      0.640D-02       -76.04512690     73.645502   -0.07592   -0.60712    0.27775    1    diag
    3      0.445D-02      0.412D-02       -76.05674303     75.267510   -0.09221   -0.71757    0.32822    2    diag
    4      0.163D-02      0.379D-03       -76.05693936     75.177827   -0.08930   -0.71319    0.32629    3    diag
    5      0.211D-03      0.107D-03       -76.05696081     75.192309   -0.08812   -0.71154    0.32557    4    diag
    6      0.713D-04      0.213D-04       -76.05696220     75.191356   -0.08775   -0.71121    0.32543    5    diag
    7      0.182D-04      0.427D-05       -76.05696226     75.191485   -0.08766   -0.71108    0.32538    6    diag
    8      0.472D-05      0.767D-06       -76.05696227     75.191468   -0.08764   -0.71105    0.32536    7    diag
    9      0.767D-06      0.100D-06       -76.05696227     75.191458   -0.08764   -0.71105    0.32536    8    diag
   10      0.101D-06      0.263D-07       -76.05696227     75.191461   -0.08764   -0.71105    0.32536    9    orth
   11      0.251D-07      0.622D-08       -76.05696227     75.191461   -0.08764   -0.71105    0.32536    9    diag
   12      0.680D-08      0.122D-08       -76.05696227     75.191461   -0.08764   -0.71105    0.32536    0    orth

 Final occupancy:   5

 !RHF STATE  1.1 Energy               -76.056962265684
 Nuclear energy                         8.94474756
 One-electron energy                 -122.59744029
 Two-electron energy                   37.59573047
 Virial quotient                       -1.00262573
 !RHF STATE  1.1 Dipole moment         -0.08764032    -0.71104545     0.32535798
 Dipole moment /Debye                  -0.22274489    -1.80717889     0.82692333

 Orbital energies:

         1.1          2.1          3.1          4.1          5.1          6.1          7.1
    -20.571659    -1.340186    -0.703939    -0.579079    -0.508126     0.022012     0.036885


 HOMO      5.1    -0.508126 =     -13.8268eV
 LUMO      6.1     0.022012 =       0.5990eV
 LUMO-HOMO         0.530137 =      14.4258eV


 **********************************************************************************************************************************
 DATASETS  * FILE   NREC   LENGTH (MB)   RECORD NAMES
              1      18       32.04       500      610      700      900      950      970     1000      129      960     1100   
                                          VAR    BASINP    GEOM    SYMINP    ZMAT    AOBASIS   BASIS     P2S    ABASIS      S 
                                         1400     1410     1200     1210     1080     1600     1650     1700   
                                           T        V       H0       H01     AOSYM     SMH    MOLCAS    OPER   

              2       6        9.09       700     1000      520     2100      200     2101   
                                         GEOM     BASIS   MCVARS     RHF    OPTIONS    RHF  

 PROGRAMS   *        TOTAL    HF-SCF       INT   CCSD(T)    HF-SCF       INT
 CPU TIMES  *       561.58     13.07      0.25    514.09     14.22     19.69
 REAL TIME  *       583.32 SEC
 DISK USED  *       570.36 MB (local),        7.68 GB (total)
 SF USED    *       504.31 MB
 GA USED    *         0.00 MB       (max)       0.00 MB       (current)
 **********************************************************************************************************************************

 Basis set:  JKFIT                   
 Basis size:   740
 Attributes:
 Sphericals:   T
 Basis set:  MP2FIT                  
 Basis size:   816
 Attributes:
 Sphericals:   T
 Basis set:  RI                      
 Basis size:   556
 Attributes:
 Sphericals:   T
 Basis set:  TDDFT                   
 Basis size:   816
 Attributes:
 Sphericals:   T

 PROGRAM * CCSD (Closed-shell coupled cluster)     Authors: C. Hampel, H.-J. Werner, 1991, M. Deegan, P.J. Knowles, 1992


 Convergence thresholds:  THRVAR = 1.00D-08  THRDEN = 1.00D-10

 CCSD(T)     terms to be evaluated (factor= 1.000)


 Number of core orbitals:           1 (   1 )
 Number of closed-shell orbitals:   4 (   4 )
 Number of external orbitals:     225 ( 225 )

 Molecular orbitals read from record     2101.2  Type=RHF/CANONICAL (state 1.1)

 Number of N-1 electron functions:               4
 Number of N-2 electron functions:              10
 Number of singly external CSFs:               900
 Number of doubly external CSFs:            405450
 Total number of CSFs:                      406351

 Length of J-op  integral file:               0.00 MB
 Length of K-op  integral file:               3.65 MB
 Length of 3-ext integral record:             0.00 MB

 Memory could be reduced to 75.63 Mwords without degradation in triples

 Integral transformation finished. Total CPU:  13.21 sec, npass=  1  Memory used:  32.52 MW

 Reference energy:                    -76.05696227

 MP2 singlet pair energy:              -0.17215266
 MP2 triplet pair energy:              -0.09844390
 MP2 correlation energy:               -0.27059657
 MP2 total energy:                    -76.32755883

 SCS-MP2 correlation energy:           -0.26783718   (PS=  1.200000  PT=  0.333333)
 SCS-MP2 total energy:                -76.32479945

 ITER.      SQ.NORM     CORR.ENERGY   TOTAL ENERGY   ENERGY CHANGE        DEN1      VAR(S)    VAR(P)  DIIS     TIME  TIME/IT
   1      1.06461293    -0.27466665   -76.33162891    -0.00407008     0.00177272  0.95D-03  0.10D-02  1  1    17.14     4.07
   2      1.06855004    -0.27498011   -76.33194238    -0.00031346    -0.00499734  0.12D-04  0.13D-03  2  2    21.16     4.17
   3      1.07006118    -0.27506908   -76.33203134    -0.00008897    -0.00096555  0.12D-04  0.61D-05  3  3    25.16     4.19
   4      1.07055760    -0.27506277   -76.33202503     0.00000631    -0.00022688  0.51D-06  0.73D-06  4  4    29.27     4.20
   5      1.07066702    -0.27505982   -76.33202208     0.00000295    -0.00003394  0.16D-06  0.46D-07  5  5    33.20     4.21
   6      1.07070528    -0.27505619   -76.33201846     0.00000363    -0.00000789  0.13D-07  0.30D-08  6  6    37.22     4.22
   7      1.07071213    -0.27505593   -76.33201820     0.00000026    -0.00000077  0.96D-09  0.54D-09  6  1    41.32     4.22
   8      1.07071330    -0.27505590   -76.33201816     0.00000004     0.00000032  0.15D-09  0.59D-10  6  2    45.33     4.22
   9      1.07071386    -0.27505584   -76.33201811     0.00000005     0.00000001  0.13D-10  0.64D-11  6  3    49.34     4.22
  10      1.07071396    -0.27505584   -76.33201810     0.00000001     0.00000001  0.27D-11  0.92D-12  6  4    53.33     4.23
  11      1.07071392    -0.27505584   -76.33201811    -0.00000001     0.00000003  0.52D-12  0.18D-12  6  6    57.33     4.23
  12      1.07071392    -0.27505584   -76.33201811    -0.00000000     0.00000001  0.75D-13  0.24D-13  6  5    61.31     4.23
  13      1.07071390    -0.27505584   -76.33201811    -0.00000000     0.00000000  0.97D-14  0.34D-14  6  1    65.46     4.24
  14      1.07071390    -0.27505584   -76.33201811    -0.00000000     0.00000000  0.11D-14  0.68D-15  6  2    69.51     4.24
  15      1.07071390    -0.27505584   -76.33201811    -0.00000000    -0.00000000  0.96D-16  0.70D-16  6  3    73.51     4.24
  16      1.07071390    -0.27505584   -76.33201811    -0.00000000    -0.00000000  0.12D-16  0.87D-17  6  4    77.46     4.24

 Norm of t1 vector:      0.04174667      S-energy:    -0.00000000      T1 diagnostic:  0.01043667
                                                                       D1 diagnostic:  0.02222591


 Total CPU time for triples:     37.67 sec


 RESULTS
 =======

  Reference energy                    -76.056962265686
  CCSD singlet pair energy             -0.188063617273
  CCSD triplet pair energy             -0.086992226214
  CCSD correlation energy              -0.275055843501

  Triples (T) contribution             -0.008909278860
  Total correlation energy             -0.283965122361

  CCSD total energy                   -76.332018109187
  CCSD[T] energy                      -76.341270742266
  CCSD-T energy                       -76.340742526199
 !CCSD(T) total energy                -76.340927388047

 Timing summary (sec):

 STEP                 CPU(USER)    SYS     CPU(TOT)    WALL
 Transformation         13.25      0.78     14.03     14.05
 CCSD iterations        64.23      3.58     67.81     67.89
 Triples                37.67      0.30     37.97     38.01

 Program statistics:

 Available memory in ccsd:              1999999921
 Min. memory needed in ccsd:               1865022
 Max. memory used in ccsd:                 2159652
 Max. memory used in cckext:               1451153 (16 integral passes)



 **********************************************************************************************************************************
 DATASETS  * FILE   NREC   LENGTH (MB)   RECORD NAMES
              1      19      222.33       500      610      700      900      950      970     1000      129      960     1100   
                                          VAR    BASINP    GEOM    SYMINP    ZMAT    AOBASIS   BASIS     P2S    ABASIS      S 
                                         1400     1410     1200     1210     1080     1600     1650     1700     1380   
                                           T        V       H0       H01     AOSYM     SMH    MOLCAS    OPER     JKOP   

              2       6        9.09       700     1000      520     2100      200     2101   
                                         GEOM     BASIS   MCVARS     RHF    OPTIONS    RHF  

 PROGRAMS   *        TOTAL   CCSD(T)    HF-SCF       INT   CCSD(T)    HF-SCF       INT
 CPU TIMES  *       676.96    115.38     13.07      0.25    514.09     14.22     19.69
 REAL TIME  *       704.06 SEC
 DISK USED  *       570.36 MB (local),        7.68 GB (total)
 SF USED    *       504.31 MB
 GA USED    *         0.00 MB       (max)       0.00 MB       (current)
 **********************************************************************************************************************************

 Running procedure: SET_MONOMER2

 Dummy atoms: O2  H3  H4


 Recomputing one-electron integrals since nuclear charges changed


 PROGRAM * SEWARD (Integral evaluation for generally contracted gaussian basis sets)     Author: Roland Lindh, 1990

 Geometry written to block  1 of record 700


 Point group  C1  



 ATOMIC COORDINATES

 NR  ATOM    CHARGE       X              Y              Z

   1  O2      0.00   -0.132091856   -0.427456049    5.428616238
   2  H3      0.00    1.200731980   -1.541827545    5.988353116
   3  H4      0.00   -1.735713445   -1.363059454    5.806183518
   4  C1      6.00   -6.193010455    2.801518980    2.403542658
   5  H41     1.00   -4.656285171    1.699997622    3.119937832
   6  H42     1.00   -5.973046335    4.726205038    2.982932688
   7  H43     1.00   -7.940251230    2.077186956    3.118237078
   8  H44     1.00   -6.176569838    2.685300823    0.384937212

 Bond lengths in Bohr (Angstrom)

 1-2  1.825253018  1-3  1.894601009  4-5  2.021904040  4-6  2.022002335  4-7  2.021953343
     ( 0.965882301)     ( 1.002579678)     ( 1.069945541)     ( 1.069997556)     ( 1.069971630)

 4-8  2.022015060
     ( 1.070004290)

 Bond angles

  2-1-3  104.80057086   5-4-6  109.53398059   5-4-7  109.65604535   5-4-8  108.43490854

  6-4-7  109.49436728   6-4-8  109.86987750   7-4-8  109.83468330

 NUCLEAR CHARGE:                   10
 NUMBER OF PRIMITIVE AOS:         296
 NUMBER OF SYMMETRY AOS:          266
 NUMBER OF CONTRACTIONS:          230   (  230A   )
 NUMBER OF CORE ORBITALS:           1   (    1A   )
 NUMBER OF VALENCE ORBITALS:        8   (    8A   )

 MOLECULE CHANGED: INITIALIZING OCCUPATION AND DUMP RECORDS


 NUCLEAR REPULSION ENERGY   13.68681606

 Basis set:  JKFIT                   
 Basis size:   740
 Attributes:
 Sphericals:   T
 Basis set:  MP2FIT                  
 Basis size:   816
 Attributes:
 Sphericals:   T
 Basis set:  RI                      
 Basis size:   556
 Attributes:
 Sphericals:   T
 Basis set:  TDDFT                   
 Basis size:   816
 Attributes:
 Sphericals:   T

 Eigenvalues of metric

         1 0.373E-04 0.777E-04 0.103E-03 0.106E-03 0.330E-03 0.341E-03 0.510E-03 0.682E-03


 Contracted 2-electron integrals neglected if value below      1.0D-14

 OPERATOR DM      FOR CENTER  0  COORDINATES:    0.000000    0.000000    0.000000


 **********************************************************************************************************************************
 DATASETS  * FILE   NREC   LENGTH (MB)   RECORD NAMES
              1      18       32.04       500      610      700      900      950      970     1000      129      960     1100   
                                          VAR    BASINP    GEOM    SYMINP    ZMAT    AOBASIS   BASIS     P2S    ABASIS      S 
                                         1400     1410     1200     1210     1080     1600     1650     1700   
                                           T        V       H0       H01     AOSYM     SMH    MOLCAS    OPER   

              2       6        9.09       700     1000      520     2100      200     2101   
                                         GEOM     BASIS   MCVARS     RHF    OPTIONS    RHF  

 PROGRAMS   *        TOTAL       INT   CCSD(T)    HF-SCF       INT   CCSD(T)    HF-SCF       INT
 CPU TIMES  *       677.22      0.24    115.38     13.07      0.25    514.09     14.22     19.69
 REAL TIME  *       704.85 SEC
 DISK USED  *       570.36 MB (local),        7.68 GB (total)
 SF USED    *       504.31 MB
 GA USED    *         0.00 MB       (max)       0.00 MB       (current)
 **********************************************************************************************************************************


 PROGRAM * RHF-SCF (CLOSED SHELL)       Authors: W. Meyer, H.-J. Werner


 NUMBER OF ELECTRONS:       5+    5-    SPACE SYMMETRY=1    SPIN SYMMETRY: Singlet 
 CONVERGENCE THRESHOLDS:    1.00E-08 (Density)    1.00E-11 (Energy)
 MAX. NUMBER OF ITERATIONS:       60
 INTERPOLATION TYPE:            DIIS
 INTERPOLATION STEPS:              2 (START)      1 (STEP)
 LEVEL SHIFTS:                  0.00 (CLOSED)  0.00 (OPEN) 



 Orbital guess generated from atomic densities. Full valence occupancy:    9

 Molecular orbital dump at record        2102.2

 Initial occupancy:   5

 ITERATION    DDIFF          GRAD             ENERGY        2-EL.EN.            DIPOLE MOMENTS         DIIS   ORB.
    1      0.000D+00      0.000D+00       -40.19359052     53.494062    0.00414   -0.00277   -0.00129    0    start
    2      0.000D+00      0.353D-02       -40.21070812     52.213708    0.00134   -0.00090   -0.00037    1    diag
    3      0.327D-02      0.137D-02       -40.21295655     52.664883    0.00187   -0.00125   -0.00054    2    diag
    4      0.918D-03      0.342D-03       -40.21327198     52.609865    0.00167   -0.00112   -0.00048    3    diag
    5      0.306D-03      0.443D-04       -40.21327737     52.612200    0.00164   -0.00110   -0.00047    4    diag
    6      0.828D-04      0.345D-05       -40.21327741     52.612299    0.00164   -0.00110   -0.00047    5    diag
    7      0.703D-05      0.264D-06       -40.21327741     52.612264    0.00164   -0.00110   -0.00047    6    diag
    8      0.101D-05      0.221D-07       -40.21327741     52.612265    0.00164   -0.00110   -0.00047    7    diag
    9      0.188D-06      0.285D-08       -40.21327741     52.612265    0.00164   -0.00110   -0.00047    8    diag
   10      0.101D-07      0.792D-09       -40.21327741     52.612265    0.00164   -0.00110   -0.00047    9    orth
   11      0.132D-08      0.106D-09       -40.21327741     52.612265    0.00164   -0.00110   -0.00047    0    orth

 Final occupancy:   5

 !RHF STATE  1.1 Energy               -40.213277409760
 Nuclear energy                        13.68681606
 One-electron energy                  -80.20622591
 Two-electron energy                   26.30613245
 Virial quotient                       -0.99869565
 !RHF STATE  1.1 Dipole moment          0.00163567    -0.00109651    -0.00046604
 Dipole moment /Debye                   0.00415719    -0.00278686    -0.00118447

 Orbital energies:

         1.1          2.1          3.1          4.1          5.1          6.1          7.1
    -11.197206    -0.950742    -0.551694    -0.549757    -0.547582     0.026063     0.039454


 HOMO      5.1    -0.547582 =     -14.9005eV
 LUMO      6.1     0.026063 =       0.7092eV
 LUMO-HOMO         0.573644 =      15.6097eV


 **********************************************************************************************************************************
 DATASETS  * FILE   NREC   LENGTH (MB)   RECORD NAMES
              1      18       32.04       500      610      700      900      950      970     1000      129      960     1100   
                                          VAR    BASINP    GEOM    SYMINP    ZMAT    AOBASIS   BASIS     P2S    ABASIS      S 
                                         1400     1410     1200     1210     1080     1600     1650     1700   
                                           T        V       H0       H01     AOSYM     SMH    MOLCAS    OPER   

              2       7       13.71       700     1000      520     2100      200     2101     2102   
                                         GEOM     BASIS   MCVARS     RHF    OPTIONS    RHF      RHF  

 PROGRAMS   *        TOTAL    HF-SCF       INT   CCSD(T)    HF-SCF       INT   CCSD(T)    HF-SCF       INT
 CPU TIMES  *       689.14     11.92      0.24    115.38     13.07      0.25    514.09     14.22     19.69
 REAL TIME  *       718.41 SEC
 DISK USED  *       570.36 MB (local),        7.68 GB (total)
 SF USED    *       504.31 MB
 GA USED    *         0.00 MB       (max)       0.00 MB       (current)
 **********************************************************************************************************************************

 Basis set:  JKFIT                   
 Basis size:   740
 Attributes:
 Sphericals:   T
 Basis set:  MP2FIT                  
 Basis size:   816
 Attributes:
 Sphericals:   T
 Basis set:  RI                      
 Basis size:   556
 Attributes:
 Sphericals:   T
 Basis set:  TDDFT                   
 Basis size:   816
 Attributes:
 Sphericals:   T

 PROGRAM * CCSD (Closed-shell coupled cluster)     Authors: C. Hampel, H.-J. Werner, 1991, M. Deegan, P.J. Knowles, 1992


 Convergence thresholds:  THRVAR = 1.00D-08  THRDEN = 1.00D-10

 CCSD(T)     terms to be evaluated (factor= 1.000)


 Number of core orbitals:           1 (   1 )
 Number of closed-shell orbitals:   4 (   4 )
 Number of external orbitals:     225 ( 225 )

 Molecular orbitals read from record     2102.2  Type=RHF/CANONICAL (state 1.1)

 Number of N-1 electron functions:               4
 Number of N-2 electron functions:              10
 Number of singly external CSFs:               900
 Number of doubly external CSFs:            405450
 Total number of CSFs:                      406351

 Length of J-op  integral file:               0.00 MB
 Length of K-op  integral file:               3.65 MB
 Length of 3-ext integral record:             0.00 MB

 Memory could be reduced to 75.63 Mwords without degradation in triples

 Integral transformation finished. Total CPU:  13.05 sec, npass=  1  Memory used:  32.52 MW

 Reference energy:                    -40.21327741

 MP2 singlet pair energy:              -0.14546315
 MP2 triplet pair energy:              -0.05506582
 MP2 correlation energy:               -0.20052897
 MP2 total energy:                    -40.41380638

 SCS-MP2 correlation energy:           -0.20881896   (PS=  1.200000  PT=  0.333333)
 SCS-MP2 total energy:                -40.42209637

 ITER.      SQ.NORM     CORR.ENERGY   TOTAL ENERGY   ENERGY CHANGE        DEN1      VAR(S)    VAR(P)  DIIS     TIME  TIME/IT
   1      1.07101123    -0.21907447   -40.43235188    -0.01854549    -0.01309200  0.46D-03  0.10D-02  1  1    17.05     4.11
   2      1.07650403    -0.22017572   -40.43345313    -0.00110125    -0.00567755  0.13D-04  0.71D-04  2  2    21.13     4.19
   3      1.07773297    -0.22022901   -40.43350642    -0.00005329    -0.00078868  0.16D-05  0.48D-05  3  3    25.09     4.22
   4      1.07803716    -0.22023802   -40.43351543    -0.00000901    -0.00012823  0.92D-07  0.22D-06  4  4    29.14     4.24
   5      1.07808338    -0.22023695   -40.43351436     0.00000107    -0.00001887  0.57D-08  0.16D-07  5  5    33.17     4.24
   6      1.07808825    -0.22023616   -40.43351357     0.00000079    -0.00000158  0.46D-09  0.11D-08  6  6    37.15     4.25
   7      1.07808896    -0.22023601   -40.43351342     0.00000015    -0.00000033  0.32D-10  0.91D-10  6  1    41.19     4.25
   8      1.07808900    -0.22023604   -40.43351345    -0.00000003     0.00000011  0.27D-11  0.53D-11  6  2    45.33     4.25
   9      1.07808901    -0.22023605   -40.43351346    -0.00000000     0.00000002  0.31D-12  0.47D-12  6  3    49.42     4.25
  10      1.07808901    -0.22023605   -40.43351345     0.00000000     0.00000001  0.27D-13  0.49D-13  6  4    53.47     4.26
  11      1.07808900    -0.22023605   -40.43351345     0.00000000     0.00000001  0.22D-14  0.49D-14  6  5    57.47     4.26
  12      1.07808900    -0.22023604   -40.43351345     0.00000000     0.00000000  0.57D-16  0.60D-15  6  6    61.55     4.27

 Norm of t1 vector:      0.02947291      S-energy:     0.00000000      T1 diagnostic:  0.00736823
                                                                       D1 diagnostic:  0.01186649

 Total CPU time for triples:     37.83 sec


 RESULTS
 =======

  Reference energy                    -40.213277409760
  CCSD singlet pair energy             -0.166740938117
  CCSD triplet pair energy             -0.053495106877
  CCSD correlation energy              -0.220236044944

  Triples (T) contribution             -0.006423659657
  Total correlation energy             -0.226659704602

  CCSD total energy                   -40.433513454705
  CCSD[T] energy                      -40.440119689576
  CCSD-T energy                       -40.439869222582
 !CCSD(T) total energy                -40.439937114362

 Timing summary (sec):

 STEP                 CPU(USER)    SYS     CPU(TOT)    WALL
 Transformation         13.09      0.80     13.89     13.91
 CCSD iterations        48.48      2.64     51.12     51.23
 Triples                37.83      0.31     38.14     38.19

 Program statistics:

 Available memory in ccsd:              1999999916
 Min. memory needed in ccsd:               1865022
 Max. memory used in ccsd:                 2159652
 Max. memory used in cckext:               1451153 (12 integral passes)



 **********************************************************************************************************************************
 DATASETS  * FILE   NREC   LENGTH (MB)   RECORD NAMES
              1      19      222.33       500      610      700      900      950      970     1000      129      960     1100   
                                          VAR    BASINP    GEOM    SYMINP    ZMAT    AOBASIS   BASIS     P2S    ABASIS      S 
                                         1400     1410     1200     1210     1080     1600     1650     1700     1380   
                                           T        V       H0       H01     AOSYM     SMH    MOLCAS    OPER     JKOP   

              2       7       13.71       700     1000      520     2100      200     2101     2102   
                                         GEOM     BASIS   MCVARS     RHF    OPTIONS    RHF      RHF  

 PROGRAMS   *        TOTAL   CCSD(T)    HF-SCF       INT   CCSD(T)    HF-SCF       INT   CCSD(T)    HF-SCF       INT
 CPU TIMES  *       788.78     99.63     11.92      0.24    115.38     13.07      0.25    514.09     14.22     19.69
 REAL TIME  *       822.51 SEC
 DISK USED  *       570.36 MB (local),        7.68 GB (total)
 SF USED    *       504.31 MB
 GA USED    *         0.00 MB       (max)       0.00 MB       (current)
 **********************************************************************************************************************************
 Molecular orbitals read from record     2102.2  Type=RHF/CANONICAL (state 1.1)
 Occupation numbers read from record     2102.2  Type=RHF/RHF (state 1.1)
 Orbital energies read from record       2102.2  Type=RHF/CANONICAL (state 1.1)
 Redundancy group numbers read from rec  2102.2  Type=RHF/RHF (state 1.1)

 CCSD(T)/aug-cc-pVTZ energy=    -40.439937114362

         CCSD(T)          HF-SCF         CCSD(T)          HF-SCF         CCSD(T)          HF-SCF
    -40.43993711    -40.21327741    -76.34092739    -76.05696227   -116.78139604   -116.27002271
 **********************************************************************************************************************************
 Molpro calculation terminated
