
 Primary working directories    : /scratch/klimes/383085/molpro.1yAux30SkA
 Secondary working directories  : /scratch/klimes/383085/molpro.1yAux30SkA
 Wavefunction directory         : /scratch/klimes/383085/
 Main file repository           : /scratch/klimes/383085/molpro.1yAux30SkA/

 id        : karlovklimes

 Nodes                      nprocs
 nc-22.cc.karlov.mff.cuni.cz    4

 Using customized tuning parameters: mindgm=1; mindgv=20; mindgc=4; mindgr=1; noblas=0; minvec=7
 default implementation of scratch files=sf  


 Variables initialized (930), CPU time= 0.01 sec
                                                                                 !gdirect
 memory,2000,m
 gthresh,orbital=1d-10,energy=1d-10,grid=1d-8
 
 symmetry,nosym
 angstrom
 geometry={
 O3        -0.151700000000      2.697200000000     -0.844800000000
 H5         0.533400000000      2.998100000000     -1.454900000000
 H6        -1.003200000000      2.770600000000     -1.357600000000
 C1        -3.277200000000      1.482500000000      1.271900000000
 H41        -2.464000000000      0.899600000000      1.651000000000
 H42        -3.160800000000      2.501000000000      1.578500000000
 H43        -4.201800000000      1.099200000000      1.650100000000
 H44        -3.268500000000      1.421000000000      0.203700000000
 }
 
 nkerna=1
 nkernb=1
 
 gf=0
 sing=1
 thrdum=1d-4
 gridthr=1d-8
 
 basis={
 set,orbital
 default,avtz
 set,jkfit
 default,avqz/jkfit
 set,mp2fit
 default,avqz/mp2fit
 set,ri
 default,avqz/optri
 set,tddft
 default,avqz/mp2fit
 }
 
 proc set_monomer1
 dummy,4,5,6,7,8
 endproc
 
 proc set_monomer2
 dummy,1,2,3
 endproc
 
                                                                                 !1234 energy
 {hf,accu=1.d-16}
 ccsd(t)
 
 set_monomer1
 {hf,accu=1.d-16}
 ccsd(t)
 
 set_monomer2
 {hf,accu=1.d-16}
 ccsd(t)
 
 Commands  initialized (760), CPU time= 0.02 sec, 617 directives.
 Default parameters read. Elapsed time= 0.20 sec

 Checking input...
 Passed
1


                                         ***  PROGRAM SYSTEM MOLPRO  ***
                                       Copyright, TTI GmbH Stuttgart, 2015
                                    Version 2019.1 linked Jan 14 2019 13:09:19


 **********************************************************************************************************************************
 LABEL *                                                                                 
  64 bit mpp version                                                                     DATE: 11-Mar-20          TIME: 12:52:30  
 **********************************************************************************************************************************

 SHA1:             d688ac825633d238f2093ded1675ba87ccd55965
 **********************************************************************************************************************************

 THRESHOLDS:

 ZERO    =  1.00D-12  ONEINT  =  1.00D-12  TWOINT  =  1.00D-11  PREFAC  =  1.00D-14  XXXXXX  =  1.00D-09  EORDER  =  1.00D-04
 ENERGY  =  1.00D-10  ETEST   =  0.00D+00  EDENS   =  0.00D+00  THRDEDEF=  1.00D-06  GRADIENT=  1.00D-02  STEP    =  1.00D-03
 ORBITAL =  1.00D-10  CIVEC   =  1.00D-05  COEFF   =  1.00D-04  PRINTCI =  5.00D-02  PUNCHCI =  9.90D+01  OPTGRAD =  3.00D-04
 OPTENERG=  1.00D-06  OPTSTEP =  3.00D-04  THRGRAD =  1.00D-10  COMPRESS=  1.00D-11  VARMIN  =  1.00D-07  VARMAX  =  1.00D-03
 THRDOUB =  0.00D+00  THRDIV  =  1.00D-05  THRRED  =  1.00D-07  THRPSP  =  1.00D+00  THRDC   =  1.00D-10  THRCS   =  1.00D-10
 THRNRM  =  1.00D-08  THREQ   =  0.00D+00  THRDE   =  1.00D+00  THRREF  =  1.00D-05  SPARFAC =  1.00D+00  THRDLP  =  1.00D-07
 THRDIA  =  1.00D-10  THRDLS  =  1.00D-07  THRGPS  =  0.00D+00  THRKEX  =  0.00D+00  THRDIS  =  2.00D-01  THRVAR  =  1.00D-10
 THRLOC  =  1.00D-06  THRGAP  =  1.00D-06  THRLOCT = -1.00D+00  THRGAPT = -1.00D+00  THRORB  =  1.00D-06  THRMLTP =  0.00D+00
 THRCPQCI=  1.00D-10  KEXTA   =  0.00D+00  THRCOARS=  0.00D+00  SYMTOL  =  1.00D-06  GRADTOL =  1.00D-06  THROVL  =  1.00D-08
 THRORTH =  1.00D-08  GRID    =  1.00D-08  GRIDMAX =  1.00D-03  DTMAX   =  0.00D+00  THROCCDE=  1.00D-01  THROCCDE=  1.00D-01
 THRPRINT=  2.50D-01


 Variable memory set to 2000000000 words,  buffer space 

 ZSYMEL=NOSYM
 ZUNIT=ANG


Geometry recognized as XYZ

 SETTING NKERNA         =         1.00000000                                  
 SETTING NKERNB         =         1.00000000                                  
 SETTING GF             =     0.00000000D+00                                  
 SETTING SING           =         1.00000000                                  
 SETTING THRDUM         =     1.00000000D-04                                  
 SETTING GRIDTHR        =     1.00000000D-08                                  
 SETTING BASIS          =    AVTZ


 Recomputing integrals since basis changed


 Using spherical harmonics

 Library entry O      S aug-cc-pVTZ          selected for orbital group  1
 Library entry O      P aug-cc-pVTZ          selected for orbital group  1
 Library entry O      D aug-cc-pVTZ          selected for orbital group  1
 Library entry O      F aug-cc-pVTZ          selected for orbital group  1
 Library entry H      S aug-cc-pVTZ          selected for orbital group  2
 Library entry H      P aug-cc-pVTZ          selected for orbital group  2
 Library entry H      D aug-cc-pVTZ          selected for orbital group  2
 Library entry C      S aug-cc-pVTZ          selected for orbital group  3
 Library entry C      P aug-cc-pVTZ          selected for orbital group  3
 Library entry C      D aug-cc-pVTZ          selected for orbital group  3
 Library entry C      F aug-cc-pVTZ          selected for orbital group  3


 PROGRAM * SEWARD (Integral evaluation for generally contracted gaussian basis sets)     Author: Roland Lindh, 1990

 Geometry written to block  1 of record 700


 Point group  C1  



 ATOMIC COORDINATES

 NR  ATOM    CHARGE       X              Y              Z

   1  O3      8.00   -0.286671453    5.096969303   -1.596440630
   2  H5      1.00    1.007979915    5.665587894   -2.749362539
   3  H6      1.00   -1.895773248    5.235675201   -2.565492187
   4  C1      6.00   -6.193010455    2.801518980    2.403542658
   5  H41     1.00   -4.656285171    1.699997622    3.119937832
   6  H42     1.00   -5.973046335    4.726205038    2.982932688
   7  H43     1.00   -7.940251230    2.077186956    3.118237078
   8  H44     1.00   -6.176569838    2.685300823    0.384937212

 Bond lengths in Bohr (Angstrom)

 1-2  1.824466550  1-3  1.883483165  4-5  2.021904040  4-6  2.022002335  4-7  2.021953343
     ( 0.965466121)     ( 0.996696368)     ( 1.069945541)     ( 1.069997556)     ( 1.069971630)

 4-8  2.022015060
     ( 1.070004290)

 Bond angles

  2-1-3  104.96066383   5-4-6  109.53398059   5-4-7  109.65604535   5-4-8  108.43490854

  6-4-7  109.49436728   6-4-8  109.86987750   7-4-8  109.83468330

 NUCLEAR CHARGE:                   20
 NUMBER OF PRIMITIVE AOS:         296
 NUMBER OF SYMMETRY AOS:          266
 NUMBER OF CONTRACTIONS:          230   (  230A   )
 NUMBER OF CORE ORBITALS:           2   (    2A   )
 NUMBER OF VALENCE ORBITALS:       14   (   14A   )


 NUCLEAR REPULSION ENERGY   35.80046073


 Basis set:  JKFIT                   
 Basis size:   740
 Attributes:
 Sphericals:   T
 Basis set:  MP2FIT                  
 Basis size:   816
 Attributes:
 Sphericals:   T
 Basis set:  RI                      
 Basis size:   556
 Attributes:
 Sphericals:   T
 Basis set:  TDDFT                   
 Basis size:   816
 Attributes:
 Sphericals:   T

 **********************************************************************************************************************************


 Eigenvalues of metric

         1 0.598E-04 0.698E-04 0.994E-04 0.105E-03 0.333E-03 0.357E-03 0.689E-03 0.728E-03


 Contracted 2-electron integrals neglected if value below      1.0D-14
 AO integral compression algorithm  1   Integral accuracy      1.0D-14

     2107.900 MB (compressed) written to integral file ( 65.8%)

     Node minimum: 492.831 MB, node maximum: 556.532 MB


 NUMBER OF SORTED TWO-ELECTRON INTEGRALS:   88219044.     BUFFER LENGTH:  32768
 NUMBER OF SEGMENTS:   6  SEGMENT LENGTH:   15998348      RECORD LENGTH: 524288

 Memory used in sort:      16.56 MW

 SORT1 READ   400769927. AND WROTE    79976834. INTEGRALS IN    233 RECORDS. CPU TIME:     7.88 SEC, REAL TIME:     8.89 SEC
 SORT2 READ   320280731. AND WROTE   352862895. INTEGRALS IN   7520 RECORDS. CPU TIME:     1.66 SEC, REAL TIME:     2.69 SEC

 Node minimum:    88205762.  Node maximum:    88225686. integrals

 OPERATOR DM      FOR CENTER  0  COORDINATES:    0.000000    0.000000    0.000000


 **********************************************************************************************************************************
 DATASETS  * FILE   NREC   LENGTH (MB)   RECORD NAMES
              1      18       32.04       500      610      700      900      950      970     1000      129      960     1100   
                                          VAR    BASINP    GEOM    SYMINP    ZMAT    AOBASIS   BASIS     P2S    ABASIS      S 
                                         1400     1410     1200     1210     1080     1600     1650     1700   
                                           T        V       H0       H01     AOSYM     SMH    MOLCAS    OPER   

 PROGRAMS   *        TOTAL       INT
 CPU TIMES  *        14.92     14.69
 REAL TIME  *        21.53 SEC
 DISK USED  *        32.49 MB (local),        6.04 GB (total)
 GA USED    *         0.00 MB       (max)       0.00 MB       (current)
 **********************************************************************************************************************************


 PROGRAM * RHF-SCF (CLOSED SHELL)       Authors: W. Meyer, H.-J. Werner


 NUMBER OF ELECTRONS:      10+   10-    SPACE SYMMETRY=1    SPIN SYMMETRY: Singlet 
 CONVERGENCE THRESHOLDS:    1.00E-08 (Density)    1.00E-11 (Energy)
 MAX. NUMBER OF ITERATIONS:       60
 INTERPOLATION TYPE:            DIIS
 INTERPOLATION STEPS:              2 (START)      1 (STEP)
 LEVEL SHIFTS:                  0.00 (CLOSED)  0.00 (OPEN) 



 Orbital guess generated from atomic densities. Full valence occupancy:   16

 Molecular orbital dump at record        2100.2

 Initial occupancy:  10

 ITERATION    DDIFF          GRAD             ENERGY        2-EL.EN.            DIPOLE MOMENTS         DIIS   ORB.
    1      0.000D+00      0.000D+00      -116.21228251    157.284066   -0.16741    0.35804   -1.08750    0    start
    2      0.000D+00      0.524D-02      -116.25634016    152.256367   -0.04944    0.20866   -0.60860    1    diag
    3      0.554D-02      0.310D-02      -116.26998900    154.335287   -0.07827    0.24695   -0.72982    2    diag
    4      0.184D-02      0.454D-03      -116.27064268    154.223547   -0.07557    0.24370   -0.71953    3    diag
    5      0.408D-03      0.133D-03      -116.27070995    154.218105   -0.07476    0.24378   -0.71914    4    diag
    6      0.144D-03      0.325D-04      -116.27071371    154.223961   -0.07440    0.24358   -0.71845    5    diag
    7      0.395D-04      0.627D-05      -116.27071393    154.222442   -0.07435    0.24360   -0.71849    6    diag
    8      0.109D-04      0.160D-05      -116.27071394    154.222586   -0.07431    0.24358   -0.71843    7    diag
    9      0.240D-05      0.360D-06      -116.27071394    154.222561   -0.07430    0.24357   -0.71841    8    diag
   10      0.743D-06      0.404D-07      -116.27071394    154.222562   -0.07430    0.24357   -0.71841    9    orth
   11      0.577D-07      0.988D-08      -116.27071394    154.222564   -0.07430    0.24357   -0.71841    9    diag
   12      0.227D-07      0.256D-08      -116.27071394    154.222564   -0.07430    0.24357   -0.71841    9    diag
   13      0.394D-08      0.686D-09      -116.27071394    154.222564   -0.07430    0.24357   -0.71841    0    orth

 Final occupancy:  10

 !RHF STATE  1.1 Energy              -116.270713944478
 Nuclear energy                        35.80046073
 One-electron energy                 -229.18245660
 Two-electron energy                   77.11128193
 Virial quotient                       -1.00117310
 !RHF STATE  1.1 Dipole moment         -0.07429983     0.24357346    -0.71841284
 Dipole moment /Debye                  -0.18883896     0.61906144    -1.82590369

 Orbital energies:

         1.1          2.1          3.1          4.1          5.1          6.1          7.1          8.1          9.1         10.1
    -20.570816   -11.192914    -1.341289    -0.946266    -0.705675    -0.579230    -0.547455    -0.545171    -0.543073    -0.508058

        11.1         12.1
      0.027507     0.038648


 HOMO     10.1    -0.508058 =     -13.8250eV
 LUMO     11.1     0.027507 =       0.7485eV
 LUMO-HOMO         0.535564 =      14.5734eV


 **********************************************************************************************************************************
 DATASETS  * FILE   NREC   LENGTH (MB)   RECORD NAMES
              1      18       32.04       500      610      700      900      950      970     1000      129      960     1100   
                                          VAR    BASINP    GEOM    SYMINP    ZMAT    AOBASIS   BASIS     P2S    ABASIS      S 
                                         1400     1410     1200     1210     1080     1600     1650     1700   
                                           T        V       H0       H01     AOSYM     SMH    MOLCAS    OPER   

              2       4        3.96       700     1000      520     2100   
                                         GEOM     BASIS   MCVARS     RHF  

 PROGRAMS   *        TOTAL    HF-SCF       INT
 CPU TIMES  *        29.28     14.35     14.69
 REAL TIME  *        38.35 SEC
 DISK USED  *        39.90 MB (local),        6.07 GB (total)
 SF USED    *         0.21 MB
 GA USED    *         0.00 MB       (max)       0.00 MB       (current)
 **********************************************************************************************************************************

 Basis set:  JKFIT                   
 Basis size:   740
 Attributes:
 Sphericals:   T
 Basis set:  MP2FIT                  
 Basis size:   816
 Attributes:
 Sphericals:   T
 Basis set:  RI                      
 Basis size:   556
 Attributes:
 Sphericals:   T
 Basis set:  TDDFT                   
 Basis size:   816
 Attributes:
 Sphericals:   T

 PROGRAM * CCSD (Closed-shell coupled cluster)     Authors: C. Hampel, H.-J. Werner, 1991, M. Deegan, P.J. Knowles, 1992


 Convergence thresholds:  THRVAR = 1.00D-08  THRDEN = 1.00D-10

 CCSD(T)     terms to be evaluated (factor= 1.000)


 Number of core orbitals:           2 (   2 )
 Number of closed-shell orbitals:   8 (   8 )
 Number of external orbitals:     220 ( 220 )

 Molecular orbitals read from record     2100.2  Type=RHF/CANONICAL (state 1.1)

 Number of N-1 electron functions:               8
 Number of N-2 electron functions:              36
 Number of singly external CSFs:              1760
 Number of doubly external CSFs:           1549680
 Total number of CSFs:                     1551441

 Length of J-op  integral file:               0.00 MB
 Length of K-op  integral file:               3.65 MB
 Length of 3-ext integral record:             0.00 MB

 Memory could be reduced to 116.39 Mwords without degradation in triples

 Integral transformation finished. Total CPU:  23.89 sec, npass=  1  Memory used:  59.35 MW

 Reference energy:                   -116.27071394

 MP2 singlet pair energy:              -0.31752889
 MP2 triplet pair energy:              -0.15375631
 MP2 correlation energy:               -0.47128521
 MP2 total energy:                   -116.74199915

 SCS-MP2 correlation energy:           -0.47670527   (PS=  1.200000  PT=  0.333333)
 SCS-MP2 total energy:               -116.74741921

 ITER.      SQ.NORM     CORR.ENERGY   TOTAL ENERGY   ENERGY CHANGE        DEN1      VAR(S)    VAR(P)  DIIS     TIME  TIME/IT
   1      1.13560425    -0.49390519  -116.76461913    -0.02261998    -0.01135389  0.14D-02  0.21D-02  1  1    38.42    14.51
   2      1.14470323    -0.49532132  -116.76603527    -0.00141614    -0.01040171  0.23D-04  0.24D-03  2  2    52.97    14.72
   3      1.14772974    -0.49545610  -116.76617005    -0.00013478    -0.00197998  0.14D-04  0.12D-04  3  3    67.58    14.79
   4      1.14854525    -0.49545788  -116.76617183    -0.00000178    -0.00036589  0.59D-06  0.11D-05  4  4    82.19    14.83
   5      1.14870311    -0.49545506  -116.76616901     0.00000282    -0.00005025  0.20D-06  0.77D-07  5  5    96.79    14.85
   6      1.14875126    -0.49545041  -116.76616435     0.00000465    -0.00001202  0.17D-07  0.48D-08  6  6   111.30    14.87
   7      1.14875953    -0.49544984  -116.76616379     0.00000056    -0.00000080  0.12D-08  0.78D-09  6  2   125.98    14.89
   8      1.14876127    -0.49544971  -116.76616365     0.00000014    -0.00000000  0.22D-09  0.78D-10  6  1   140.56    14.89
   9      1.14876198    -0.49544965  -116.76616359     0.00000006     0.00000001  0.18D-10  0.11D-10  6  3   154.96    14.90
  10      1.14876199    -0.49544965  -116.76616360    -0.00000000     0.00000007  0.45D-11  0.26D-11  6  1   169.54    14.91
  11      1.14876201    -0.49544965  -116.76616360     0.00000000     0.00000003  0.49D-12  0.17D-12  6  5   184.22    14.91
  12      1.14876203    -0.49544965  -116.76616360     0.00000000    -0.00000000  0.96D-13  0.31D-13  6  4   198.79    14.91
  13      1.14876202    -0.49544965  -116.76616360    -0.00000000    -0.00000000  0.13D-13  0.52D-14  6  2   213.41    14.92
  14      1.14876203    -0.49544965  -116.76616360     0.00000000    -0.00000000  0.13D-14  0.80D-15  6  6   228.03    14.92
  15      1.14876203    -0.49544965  -116.76616360     0.00000000     0.00000000  0.19D-15  0.11D-15  6  3   242.61    14.93
  16      1.14876203    -0.49544965  -116.76616360    -0.00000000     0.00000000  0.26D-16  0.17D-16  6  1   257.31    14.93

 Norm of t1 vector:      0.05131397      S-energy:     0.00000000      T1 diagnostic:  0.00907111
                                                                       D1 diagnostic:  0.02230407


 Total CPU time for triples:    218.70 sec


 RESULTS
 =======

  Reference energy                   -116.270713944479
  CCSD singlet pair energy             -0.354646584684
  CCSD triplet pair energy             -0.140803066803
  CCSD correlation energy              -0.495449651400

  Triples (T) contribution             -0.015372786083
  Total correlation energy             -0.510822437484

  CCSD total energy                  -116.766163595880
  CCSD[T] energy                     -116.782063137393
  CCSD-T energy                      -116.781283115959
 !CCSD(T) total energy               -116.781536381963

 Timing summary (sec):

 STEP                 CPU(USER)    SYS     CPU(TOT)    WALL
 Transformation         24.22      1.13     25.35     25.76
 CCSD iterations       233.11      5.58    238.69    238.95
 Triples               218.70      0.98    219.68    219.91

 Program statistics:

 Available memory in ccsd:              1999999734
 Min. memory needed in ccsd:               4617529
 Max. memory used in ccsd:                 5944569
 Max. memory used in cckext:               4248553 (16 integral passes)



 **********************************************************************************************************************************
 DATASETS  * FILE   NREC   LENGTH (MB)   RECORD NAMES
              1      19      398.13       500      610      700      900      950      970     1000      129      960     1100   
                                          VAR    BASINP    GEOM    SYMINP    ZMAT    AOBASIS   BASIS     P2S    ABASIS      S 
                                         1400     1410     1200     1210     1080     1600     1650     1700     1380   
                                           T        V       H0       H01     AOSYM     SMH    MOLCAS    OPER     JKOP   

              2       4        3.96       700     1000      520     2100   
                                         GEOM     BASIS   MCVARS     RHF  

 PROGRAMS   *        TOTAL   CCSD(T)    HF-SCF       INT
 CPU TIMES  *       505.51    476.23     14.35     14.69
 REAL TIME  *       523.77 SEC
 DISK USED  *       570.36 MB (local),        7.69 GB (total)
 SF USED    *       504.31 MB
 GA USED    *         0.00 MB       (max)       0.00 MB       (current)
 **********************************************************************************************************************************

 Running procedure: SET_MONOMER1

 Dummy atoms: C1  H41  H42  H43  H44


 Recomputing one-electron integrals since nuclear charges changed


 PROGRAM * SEWARD (Integral evaluation for generally contracted gaussian basis sets)     Author: Roland Lindh, 1990

 Geometry written to block  1 of record 700


 Point group  C1  



 ATOMIC COORDINATES

 NR  ATOM    CHARGE       X              Y              Z

   1  O3      8.00   -0.286671453    5.096969303   -1.596440630
   2  H5      1.00    1.007979915    5.665587894   -2.749362539
   3  H6      1.00   -1.895773248    5.235675201   -2.565492187
   4  C1      0.00   -6.193010455    2.801518980    2.403542658
   5  H41     0.00   -4.656285171    1.699997622    3.119937832
   6  H42     0.00   -5.973046335    4.726205038    2.982932688
   7  H43     0.00   -7.940251230    2.077186956    3.118237078
   8  H44     0.00   -6.176569838    2.685300823    0.384937212

 Bond lengths in Bohr (Angstrom)

 1-2  1.824466550  1-3  1.883483165  4-5  2.021904040  4-6  2.022002335  4-7  2.021953343
     ( 0.965466121)     ( 0.996696368)     ( 1.069945541)     ( 1.069997556)     ( 1.069971630)

 4-8  2.022015060
     ( 1.070004290)

 Bond angles

  2-1-3  104.96066383   5-4-6  109.53398059   5-4-7  109.65604535   5-4-8  108.43490854

  6-4-7  109.49436728   6-4-8  109.86987750   7-4-8  109.83468330

 NUCLEAR CHARGE:                   10
 NUMBER OF PRIMITIVE AOS:         296
 NUMBER OF SYMMETRY AOS:          266
 NUMBER OF CONTRACTIONS:          230   (  230A   )
 NUMBER OF CORE ORBITALS:           1   (    1A   )
 NUMBER OF VALENCE ORBITALS:        6   (    6A   )

 MOLECULE CHANGED: INITIALIZING OCCUPATION AND DUMP RECORDS


 NUCLEAR REPULSION ENERGY    8.97229507

 Basis set:  JKFIT                   
 Basis size:   740
 Attributes:
 Sphericals:   T
 Basis set:  MP2FIT                  
 Basis size:   816
 Attributes:
 Sphericals:   T
 Basis set:  RI                      
 Basis size:   556
 Attributes:
 Sphericals:   T
 Basis set:  TDDFT                   
 Basis size:   816
 Attributes:
 Sphericals:   T

 Eigenvalues of metric

         1 0.598E-04 0.698E-04 0.994E-04 0.105E-03 0.333E-03 0.357E-03 0.689E-03 0.728E-03


 Contracted 2-electron integrals neglected if value below      1.0D-14

 OPERATOR DM      FOR CENTER  0  COORDINATES:    0.000000    0.000000    0.000000


 **********************************************************************************************************************************
 DATASETS  * FILE   NREC   LENGTH (MB)   RECORD NAMES
              1      18       32.04       500      610      700      900      950      970     1000      129      960     1100   
                                          VAR    BASINP    GEOM    SYMINP    ZMAT    AOBASIS   BASIS     P2S    ABASIS      S 
                                         1400     1410     1200     1210     1080     1600     1650     1700   
                                           T        V       H0       H01     AOSYM     SMH    MOLCAS    OPER   

              2       5        5.05       700     1000      520     2100      200   
                                         GEOM     BASIS   MCVARS     RHF    OPTIONS    

 PROGRAMS   *        TOTAL       INT   CCSD(T)    HF-SCF       INT
 CPU TIMES  *       505.72      0.21    476.23     14.35     14.69
 REAL TIME  *       524.60 SEC
 DISK USED  *       570.36 MB (local),        7.69 GB (total)
 SF USED    *       504.31 MB
 GA USED    *         0.00 MB       (max)       0.00 MB       (current)
 **********************************************************************************************************************************


 PROGRAM * RHF-SCF (CLOSED SHELL)       Authors: W. Meyer, H.-J. Werner


 NUMBER OF ELECTRONS:       5+    5-    SPACE SYMMETRY=1    SPIN SYMMETRY: Singlet 
 CONVERGENCE THRESHOLDS:    1.00E-08 (Density)    1.00E-11 (Energy)
 MAX. NUMBER OF ITERATIONS:       60
 INTERPOLATION TYPE:            DIIS
 INTERPOLATION STEPS:              2 (START)      1 (STEP)
 LEVEL SHIFTS:                  0.00 (CLOSED)  0.00 (OPEN) 



 Orbital guess generated from atomic densities. Full valence occupancy:    7

 Molecular orbital dump at record        2101.2

 Initial occupancy:   5

 ITERATION    DDIFF          GRAD             ENERGY        2-EL.EN.            DIPOLE MOMENTS         DIIS   ORB.
    1      0.000D+00      0.000D+00       -76.01918776     77.340726   -0.17153    0.36116   -1.08737    0    start
    2      0.000D+00      0.640D-02       -76.04588370     73.697289   -0.08987    0.21069   -0.63066    1    diag
    3      0.444D-02      0.410D-02       -76.05738045     75.310895   -0.10811    0.24839   -0.74430    2    diag
    4      0.161D-02      0.377D-03       -76.05757437     75.221342   -0.10552    0.24717   -0.73993    3    diag
    5      0.209D-03      0.106D-03       -76.05759518     75.235665   -0.10447    0.24672   -0.73828    4    diag
    6      0.695D-04      0.209D-04       -76.05759651     75.234748   -0.10415    0.24665   -0.73796    5    diag
    7      0.179D-04      0.417D-05       -76.05759657     75.234876   -0.10407    0.24662   -0.73784    6    diag
    8      0.467D-05      0.757D-06       -76.05759657     75.234860   -0.10406    0.24661   -0.73780    7    diag
    9      0.762D-06      0.980D-07       -76.05759657     75.234850   -0.10405    0.24661   -0.73780    8    diag
   10      0.867D-07      0.252D-07       -76.05759657     75.234854   -0.10405    0.24661   -0.73780    9    orth
   11      0.236D-07      0.572D-08       -76.05759657     75.234853   -0.10405    0.24661   -0.73780    9    diag
   12      0.632D-08      0.112D-08       -76.05759657     75.234853   -0.10405    0.24661   -0.73780    0    orth

 Final occupancy:   5

 !RHF STATE  1.1 Energy               -76.057596572450
 Nuclear energy                         8.97229507
 One-electron energy                 -122.64731828
 Two-electron energy                   37.61742664
 Virial quotient                       -1.00249437
 !RHF STATE  1.1 Dipole moment         -0.10405428     0.24660668    -0.73779939
 Dipole moment /Debye                  -0.26446227     0.62677060    -1.87517617

 Orbital energies:

         1.1          2.1          3.1          4.1          5.1          6.1          7.1
    -20.571083    -1.341533    -0.705877    -0.579415    -0.508325     0.023549     0.034965


 HOMO      5.1    -0.508325 =     -13.8322eV
 LUMO      6.1     0.023549 =       0.6408eV
 LUMO-HOMO         0.531873 =      14.4730eV


 **********************************************************************************************************************************
 DATASETS  * FILE   NREC   LENGTH (MB)   RECORD NAMES
              1      18       32.04       500      610      700      900      950      970     1000      129      960     1100   
                                          VAR    BASINP    GEOM    SYMINP    ZMAT    AOBASIS   BASIS     P2S    ABASIS      S 
                                         1400     1410     1200     1210     1080     1600     1650     1700   
                                           T        V       H0       H01     AOSYM     SMH    MOLCAS    OPER   

              2       6        9.09       700     1000      520     2100      200     2101   
                                         GEOM     BASIS   MCVARS     RHF    OPTIONS    RHF  

 PROGRAMS   *        TOTAL    HF-SCF       INT   CCSD(T)    HF-SCF       INT
 CPU TIMES  *       519.04     13.32      0.21    476.23     14.35     14.69
 REAL TIME  *       540.03 SEC
 DISK USED  *       570.36 MB (local),        7.69 GB (total)
 SF USED    *       504.31 MB
 GA USED    *         0.00 MB       (max)       0.00 MB       (current)
 **********************************************************************************************************************************

 Basis set:  JKFIT                   
 Basis size:   740
 Attributes:
 Sphericals:   T
 Basis set:  MP2FIT                  
 Basis size:   816
 Attributes:
 Sphericals:   T
 Basis set:  RI                      
 Basis size:   556
 Attributes:
 Sphericals:   T
 Basis set:  TDDFT                   
 Basis size:   816
 Attributes:
 Sphericals:   T

 PROGRAM * CCSD (Closed-shell coupled cluster)     Authors: C. Hampel, H.-J. Werner, 1991, M. Deegan, P.J. Knowles, 1992


 Convergence thresholds:  THRVAR = 1.00D-08  THRDEN = 1.00D-10

 CCSD(T)     terms to be evaluated (factor= 1.000)


 Number of core orbitals:           1 (   1 )
 Number of closed-shell orbitals:   4 (   4 )
 Number of external orbitals:     225 ( 225 )

 Molecular orbitals read from record     2101.2  Type=RHF/CANONICAL (state 1.1)

 Number of N-1 electron functions:               4
 Number of N-2 electron functions:              10
 Number of singly external CSFs:               900
 Number of doubly external CSFs:            405450
 Total number of CSFs:                      406351

 Length of J-op  integral file:               0.00 MB
 Length of K-op  integral file:               3.65 MB
 Length of 3-ext integral record:             0.00 MB

 Memory could be reduced to 75.63 Mwords without degradation in triples

 Integral transformation finished. Total CPU:  12.10 sec, npass=  1  Memory used:  32.52 MW

 Reference energy:                    -76.05759657

 MP2 singlet pair energy:              -0.17194329
 MP2 triplet pair energy:              -0.09835064
 MP2 correlation energy:               -0.27029393
 MP2 total energy:                    -76.32789051

 SCS-MP2 correlation energy:           -0.26752791   (PS=  1.200000  PT=  0.333333)
 SCS-MP2 total energy:                -76.32512448

 ITER.      SQ.NORM     CORR.ENERGY   TOTAL ENERGY   ENERGY CHANGE        DEN1      VAR(S)    VAR(P)  DIIS     TIME  TIME/IT
   1      1.06439691    -0.27440067   -76.33199725    -0.00410674     0.00169334  0.94D-03  0.10D-02  1  1    15.98     3.98
   2      1.06829718    -0.27471251   -76.33230908    -0.00031183    -0.00496712  0.12D-04  0.13D-03  2  2    19.87     4.04
   3      1.06978498    -0.27479968   -76.33239625    -0.00008717    -0.00095351  0.12D-04  0.60D-05  3  3    23.77     4.06
   4      1.07027385    -0.27479324   -76.33238981     0.00000644    -0.00022388  0.50D-06  0.71D-06  4  4    27.65     4.09
   5      1.07038083    -0.27479029   -76.33238686     0.00000295    -0.00003311  0.16D-06  0.45D-07  5  5    31.60     4.09
   6      1.07041837    -0.27478669   -76.33238326     0.00000360    -0.00000776  0.12D-07  0.29D-08  6  6    35.44     4.10
   7      1.07042501    -0.27478644   -76.33238301     0.00000025    -0.00000074  0.94D-09  0.52D-09  6  1    39.37     4.10
   8      1.07042615    -0.27478640   -76.33238297     0.00000003     0.00000032  0.15D-09  0.59D-10  6  2    43.30     4.11
   9      1.07042668    -0.27478635   -76.33238292     0.00000005     0.00000002  0.13D-10  0.64D-11  6  3    47.18     4.11
  10      1.07042678    -0.27478634   -76.33238291     0.00000001     0.00000001  0.26D-11  0.88D-12  6  4    51.00     4.11
  11      1.07042674    -0.27478635   -76.33238292    -0.00000001     0.00000003  0.48D-12  0.16D-12  6  6    54.85     4.11
  12      1.07042674    -0.27478635   -76.33238292    -0.00000000     0.00000001  0.69D-13  0.23D-13  6  5    58.69     4.11
  13      1.07042673    -0.27478635   -76.33238292    -0.00000000     0.00000000  0.91D-14  0.34D-14  6  1    62.55     4.11
  14      1.07042672    -0.27478635   -76.33238292    -0.00000000     0.00000000  0.10D-14  0.67D-15  6  2    66.38     4.11
  15      1.07042672    -0.27478635   -76.33238292     0.00000000    -0.00000000  0.92D-16  0.73D-16  6  3    70.27     4.11
  16      1.07042672    -0.27478635   -76.33238292    -0.00000000    -0.00000000  0.13D-16  0.94D-17  6  4    74.11     4.11

 Norm of t1 vector:      0.04152764      S-energy:    -0.00000000      T1 diagnostic:  0.01038191
                                                                       D1 diagnostic:  0.02209683


 Total CPU time for triples:     34.81 sec


 RESULTS
 =======

  Reference energy                    -76.057596572451
  CCSD singlet pair energy             -0.187818720294
  CCSD triplet pair energy             -0.086967629903
  CCSD correlation energy              -0.274786350216

  Triples (T) contribution             -0.008871305260
  Total correlation energy             -0.283657655477

  CCSD total energy                   -76.332382922667
  CCSD[T] energy                      -76.341594513720
  CCSD-T energy                       -76.341071059931
 !CCSD(T) total energy                -76.341254227927

 Timing summary (sec):

 STEP                 CPU(USER)    SYS     CPU(TOT)    WALL
 Transformation         12.15      0.69     12.84     12.86
 CCSD iterations        61.98      3.74     65.72     65.77
 Triples                34.81      0.19     35.00     35.04

 Program statistics:

 Available memory in ccsd:              1999999921
 Min. memory needed in ccsd:               1865022
 Max. memory used in ccsd:                 2159652
 Max. memory used in cckext:               1451153 (16 integral passes)



 **********************************************************************************************************************************
 DATASETS  * FILE   NREC   LENGTH (MB)   RECORD NAMES
              1      19      222.33       500      610      700      900      950      970     1000      129      960     1100   
                                          VAR    BASINP    GEOM    SYMINP    ZMAT    AOBASIS   BASIS     P2S    ABASIS      S 
                                         1400     1410     1200     1210     1080     1600     1650     1700     1380   
                                           T        V       H0       H01     AOSYM     SMH    MOLCAS    OPER     JKOP   

              2       6        9.09       700     1000      520     2100      200     2101   
                                         GEOM     BASIS   MCVARS     RHF    OPTIONS    RHF  

 PROGRAMS   *        TOTAL   CCSD(T)    HF-SCF       INT   CCSD(T)    HF-SCF       INT
 CPU TIMES  *       628.20    109.16     13.32      0.21    476.23     14.35     14.69
 REAL TIME  *       654.45 SEC
 DISK USED  *       570.36 MB (local),        7.69 GB (total)
 SF USED    *       504.31 MB
 GA USED    *         0.00 MB       (max)       0.00 MB       (current)
 **********************************************************************************************************************************

 Running procedure: SET_MONOMER2

 Dummy atoms: O3  H5  H6


 Recomputing one-electron integrals since nuclear charges changed


 PROGRAM * SEWARD (Integral evaluation for generally contracted gaussian basis sets)     Author: Roland Lindh, 1990

 Geometry written to block  1 of record 700


 Point group  C1  



 ATOMIC COORDINATES

 NR  ATOM    CHARGE       X              Y              Z

   1  O3      0.00   -0.286671453    5.096969303   -1.596440630
   2  H5      0.00    1.007979915    5.665587894   -2.749362539
   3  H6      0.00   -1.895773248    5.235675201   -2.565492187
   4  C1      6.00   -6.193010455    2.801518980    2.403542658
   5  H41     1.00   -4.656285171    1.699997622    3.119937832
   6  H42     1.00   -5.973046335    4.726205038    2.982932688
   7  H43     1.00   -7.940251230    2.077186956    3.118237078
   8  H44     1.00   -6.176569838    2.685300823    0.384937212

 Bond lengths in Bohr (Angstrom)

 1-2  1.824466550  1-3  1.883483165  4-5  2.021904040  4-6  2.022002335  4-7  2.021953343
     ( 0.965466121)     ( 0.996696368)     ( 1.069945541)     ( 1.069997556)     ( 1.069971630)

 4-8  2.022015060
     ( 1.070004290)

 Bond angles

  2-1-3  104.96066383   5-4-6  109.53398059   5-4-7  109.65604535   5-4-8  108.43490854

  6-4-7  109.49436728   6-4-8  109.86987750   7-4-8  109.83468330

 NUCLEAR CHARGE:                   10
 NUMBER OF PRIMITIVE AOS:         296
 NUMBER OF SYMMETRY AOS:          266
 NUMBER OF CONTRACTIONS:          230   (  230A   )
 NUMBER OF CORE ORBITALS:           1   (    1A   )
 NUMBER OF VALENCE ORBITALS:        8   (    8A   )

 MOLECULE CHANGED: INITIALIZING OCCUPATION AND DUMP RECORDS


 NUCLEAR REPULSION ENERGY   13.68681606

 Basis set:  JKFIT                   
 Basis size:   740
 Attributes:
 Sphericals:   T
 Basis set:  MP2FIT                  
 Basis size:   816
 Attributes:
 Sphericals:   T
 Basis set:  RI                      
 Basis size:   556
 Attributes:
 Sphericals:   T
 Basis set:  TDDFT                   
 Basis size:   816
 Attributes:
 Sphericals:   T

 Eigenvalues of metric

         1 0.598E-04 0.698E-04 0.994E-04 0.105E-03 0.333E-03 0.357E-03 0.689E-03 0.728E-03


 Contracted 2-electron integrals neglected if value below      1.0D-14

 OPERATOR DM      FOR CENTER  0  COORDINATES:    0.000000    0.000000    0.000000


 **********************************************************************************************************************************
 DATASETS  * FILE   NREC   LENGTH (MB)   RECORD NAMES
              1      18       32.04       500      610      700      900      950      970     1000      129      960     1100   
                                          VAR    BASINP    GEOM    SYMINP    ZMAT    AOBASIS   BASIS     P2S    ABASIS      S 
                                         1400     1410     1200     1210     1080     1600     1650     1700   
                                           T        V       H0       H01     AOSYM     SMH    MOLCAS    OPER   

              2       6        9.09       700     1000      520     2100      200     2101   
                                         GEOM     BASIS   MCVARS     RHF    OPTIONS    RHF  

 PROGRAMS   *        TOTAL       INT   CCSD(T)    HF-SCF       INT   CCSD(T)    HF-SCF       INT
 CPU TIMES  *       628.44      0.22    109.16     13.32      0.21    476.23     14.35     14.69
 REAL TIME  *       655.20 SEC
 DISK USED  *       570.36 MB (local),        7.69 GB (total)
 SF USED    *       504.31 MB
 GA USED    *         0.00 MB       (max)       0.00 MB       (current)
 **********************************************************************************************************************************


 PROGRAM * RHF-SCF (CLOSED SHELL)       Authors: W. Meyer, H.-J. Werner


 NUMBER OF ELECTRONS:       5+    5-    SPACE SYMMETRY=1    SPIN SYMMETRY: Singlet 
 CONVERGENCE THRESHOLDS:    1.00E-08 (Density)    1.00E-11 (Energy)
 MAX. NUMBER OF ITERATIONS:       60
 INTERPOLATION TYPE:            DIIS
 INTERPOLATION STEPS:              2 (START)      1 (STEP)
 LEVEL SHIFTS:                  0.00 (CLOSED)  0.00 (OPEN) 



 Orbital guess generated from atomic densities. Full valence occupancy:    9

 Molecular orbital dump at record        2102.2

 Initial occupancy:   5

 ITERATION    DDIFF          GRAD             ENERGY        2-EL.EN.            DIPOLE MOMENTS         DIIS   ORB.
    1      0.000D+00      0.000D+00       -40.19358834     53.494047    0.00409   -0.00277   -0.00130    0    start
    2      0.000D+00      0.353D-02       -40.21070597     52.213681    0.00126   -0.00090   -0.00037    1    diag
    3      0.324D-02      0.137D-02       -40.21295449     52.664854    0.00180   -0.00125   -0.00054    2    diag
    4      0.915D-03      0.342D-03       -40.21326997     52.609827    0.00159   -0.00112   -0.00048    3    diag
    5      0.302D-03      0.444D-04       -40.21327536     52.612166    0.00157   -0.00110   -0.00047    4    diag
    6      0.757D-04      0.345D-05       -40.21327540     52.612263    0.00157   -0.00110   -0.00047    5    diag
    7      0.646D-05      0.264D-06       -40.21327540     52.612229    0.00156   -0.00110   -0.00047    6    diag
    8      0.962D-06      0.221D-07       -40.21327540     52.612230    0.00156   -0.00110   -0.00047    7    diag
    9      0.190D-06      0.284D-08       -40.21327540     52.612230    0.00156   -0.00110   -0.00047    8    diag
   10      0.117D-07      0.795D-09       -40.21327540     52.612230    0.00156   -0.00110   -0.00047    9    orth
   11      0.121D-08      0.106D-09       -40.21327540     52.612230    0.00156   -0.00110   -0.00047    0    orth

 Final occupancy:   5

 !RHF STATE  1.1 Energy               -40.213275401302
 Nuclear energy                        13.68681606
 One-electron energy                  -80.20620625
 Two-electron energy                   26.30611479
 Virial quotient                       -0.99870074
 !RHF STATE  1.1 Dipole moment          0.00156459    -0.00109850    -0.00046503
 Dipole moment /Debye                   0.00397654    -0.00279191    -0.00118190

 Orbital energies:

         1.1          2.1          3.1          4.1          5.1          6.1          7.1
    -11.197211    -0.950741    -0.551694    -0.549761    -0.547581     0.026325     0.038574


 HOMO      5.1    -0.547581 =     -14.9004eV
 LUMO      6.1     0.026325 =       0.7163eV
 LUMO-HOMO         0.573906 =      15.6168eV


 **********************************************************************************************************************************
 DATASETS  * FILE   NREC   LENGTH (MB)   RECORD NAMES
              1      18       32.04       500      610      700      900      950      970     1000      129      960     1100   
                                          VAR    BASINP    GEOM    SYMINP    ZMAT    AOBASIS   BASIS     P2S    ABASIS      S 
                                         1400     1410     1200     1210     1080     1600     1650     1700   
                                           T        V       H0       H01     AOSYM     SMH    MOLCAS    OPER   

              2       7       13.71       700     1000      520     2100      200     2101     2102   
                                         GEOM     BASIS   MCVARS     RHF    OPTIONS    RHF      RHF  

 PROGRAMS   *        TOTAL    HF-SCF       INT   CCSD(T)    HF-SCF       INT   CCSD(T)    HF-SCF       INT
 CPU TIMES  *       640.69     12.25      0.22    109.16     13.32      0.21    476.23     14.35     14.69
 REAL TIME  *       669.47 SEC
 DISK USED  *       570.36 MB (local),        7.69 GB (total)
 SF USED    *       504.31 MB
 GA USED    *         0.00 MB       (max)       0.00 MB       (current)
 **********************************************************************************************************************************

 Basis set:  JKFIT                   
 Basis size:   740
 Attributes:
 Sphericals:   T
 Basis set:  MP2FIT                  
 Basis size:   816
 Attributes:
 Sphericals:   T
 Basis set:  RI                      
 Basis size:   556
 Attributes:
 Sphericals:   T
 Basis set:  TDDFT                   
 Basis size:   816
 Attributes:
 Sphericals:   T

 PROGRAM * CCSD (Closed-shell coupled cluster)     Authors: C. Hampel, H.-J. Werner, 1991, M. Deegan, P.J. Knowles, 1992


 Convergence thresholds:  THRVAR = 1.00D-08  THRDEN = 1.00D-10

 CCSD(T)     terms to be evaluated (factor= 1.000)


 Number of core orbitals:           1 (   1 )
 Number of closed-shell orbitals:   4 (   4 )
 Number of external orbitals:     225 ( 225 )

 Molecular orbitals read from record     2102.2  Type=RHF/CANONICAL (state 1.1)

 Number of N-1 electron functions:               4
 Number of N-2 electron functions:              10
 Number of singly external CSFs:               900
 Number of doubly external CSFs:            405450
 Total number of CSFs:                      406351

 Length of J-op  integral file:               0.00 MB
 Length of K-op  integral file:               3.65 MB
 Length of 3-ext integral record:             0.00 MB

 Memory could be reduced to 75.63 Mwords without degradation in triples

 Integral transformation finished. Total CPU:  12.14 sec, npass=  1  Memory used:  32.52 MW

 Reference energy:                    -40.21327540

 MP2 singlet pair energy:              -0.14544564
 MP2 triplet pair energy:              -0.05506337
 MP2 correlation energy:               -0.20050901
 MP2 total energy:                    -40.41378441

 SCS-MP2 correlation energy:           -0.20879642   (PS=  1.200000  PT=  0.333333)
 SCS-MP2 total energy:                -40.42207182

 ITER.      SQ.NORM     CORR.ENERGY   TOTAL ENERGY   ENERGY CHANGE        DEN1      VAR(S)    VAR(P)  DIIS     TIME  TIME/IT
   1      1.07100971    -0.21905857   -40.43233397    -0.01854956    -0.01309615  0.46D-03  0.10D-02  1  1    16.06     3.98
   2      1.07650300    -0.22015970   -40.43343511    -0.00110113    -0.00567816  0.13D-04  0.71D-04  2  2    19.94     4.05
   3      1.07773132    -0.22021304   -40.43348844    -0.00005333    -0.00078802  0.16D-05  0.48D-05  3  3    23.77     4.07
   4      1.07803532    -0.22022204   -40.43349744    -0.00000900    -0.00012814  0.92D-07  0.22D-06  4  4    27.68     4.08
   5      1.07808151    -0.22022097   -40.43349637     0.00000107    -0.00001886  0.57D-08  0.16D-07  5  5    31.56     4.08
   6      1.07808634    -0.22022018   -40.43349558     0.00000079    -0.00000155  0.45D-09  0.11D-08  6  6    35.47     4.09
   7      1.07808704    -0.22022003   -40.43349543     0.00000015    -0.00000032  0.31D-10  0.88D-10  6  1    39.30     4.09
   8      1.07808707    -0.22022007   -40.43349547    -0.00000004     0.00000012  0.26D-11  0.49D-11  6  2    43.16     4.09
   9      1.07808708    -0.22022007   -40.43349547    -0.00000000     0.00000002  0.28D-12  0.45D-12  6  3    47.09     4.10
  10      1.07808708    -0.22022007   -40.43349547     0.00000000     0.00000001  0.26D-13  0.47D-13  6  4    50.93     4.10
  11      1.07808707    -0.22022007   -40.43349547     0.00000000     0.00000001  0.22D-14  0.47D-14  6  5    54.80     4.10
  12      1.07808707    -0.22022007   -40.43349547     0.00000000     0.00000000  0.47D-16  0.56D-15  6  6    58.74     4.10
  13      1.07808707    -0.22022007   -40.43349547    -0.00000000     0.00000000  0.73D-17  0.60D-16  6  1    62.54     4.10
  14      1.07808707    -0.22022007   -40.43349547    -0.00000000     0.00000000  0.14D-17  0.76D-17  6  2    66.38     4.10

 Norm of t1 vector:      0.02946867      S-energy:     0.00000000      T1 diagnostic:  0.00736717
                                                                       D1 diagnostic:  0.01186453

 Total CPU time for triples:     34.55 sec


 RESULTS
 =======

  Reference energy                    -40.213275401301
  CCSD singlet pair energy             -0.166727053325
  CCSD triplet pair energy             -0.053493013502
  CCSD correlation energy              -0.220220066803

  Triples (T) contribution             -0.006422280235
  Total correlation energy             -0.226642347038

  CCSD total energy                   -40.433495468104
  CCSD[T] energy                      -40.440100306670
  CCSD-T energy                       -40.439849837842
 !CCSD(T) total energy                -40.439917748339

 Timing summary (sec):

 STEP                 CPU(USER)    SYS     CPU(TOT)    WALL
 Transformation         12.20      0.58     12.78     12.81
 CCSD iterations        54.21      3.22     57.43     57.50
 Triples                34.55      0.23     34.78     34.81

 Program statistics:

 Available memory in ccsd:              1999999916
 Min. memory needed in ccsd:               1865022
 Max. memory used in ccsd:                 2159652
 Max. memory used in cckext:               1451153 (14 integral passes)



 **********************************************************************************************************************************
 DATASETS  * FILE   NREC   LENGTH (MB)   RECORD NAMES
              1      19      222.33       500      610      700      900      950      970     1000      129      960     1100   
                                          VAR    BASINP    GEOM    SYMINP    ZMAT    AOBASIS   BASIS     P2S    ABASIS      S 
                                         1400     1410     1200     1210     1080     1600     1650     1700     1380   
                                           T        V       H0       H01     AOSYM     SMH    MOLCAS    OPER     JKOP   

              2       7       13.71       700     1000      520     2100      200     2101     2102   
                                         GEOM     BASIS   MCVARS     RHF    OPTIONS    RHF      RHF  

 PROGRAMS   *        TOTAL   CCSD(T)    HF-SCF       INT   CCSD(T)    HF-SCF       INT   CCSD(T)    HF-SCF       INT
 CPU TIMES  *       741.85    101.16     12.25      0.22    109.16     13.32      0.21    476.23     14.35     14.69
 REAL TIME  *       775.31 SEC
 DISK USED  *       570.36 MB (local),        7.69 GB (total)
 SF USED    *       504.31 MB
 GA USED    *         0.00 MB       (max)       0.00 MB       (current)
 **********************************************************************************************************************************
 Molecular orbitals read from record     2102.2  Type=RHF/CANONICAL (state 1.1)
 Occupation numbers read from record     2102.2  Type=RHF/RHF (state 1.1)
 Orbital energies read from record       2102.2  Type=RHF/CANONICAL (state 1.1)
 Redundancy group numbers read from rec  2102.2  Type=RHF/RHF (state 1.1)

 CCSD(T)/aug-cc-pVTZ energy=    -40.439917748339

         CCSD(T)          HF-SCF         CCSD(T)          HF-SCF         CCSD(T)          HF-SCF
    -40.43991775    -40.21327540    -76.34125423    -76.05759657   -116.78153638   -116.27071394
 **********************************************************************************************************************************
 Molpro calculation terminated
