
 Primary working directories    : /scratch/klimes/383086/molpro.FXg3V7MstS
 Secondary working directories  : /scratch/klimes/383086/molpro.FXg3V7MstS
 Wavefunction directory         : /scratch/klimes/383086/
 Main file repository           : /scratch/klimes/383086/molpro.FXg3V7MstS/

 id        : karlovklimes

 Nodes                      nprocs
 nc-20.cc.karlov.mff.cuni.cz    4

 Using customized tuning parameters: mindgm=1; mindgv=20; mindgc=4; mindgr=1; noblas=0; minvec=7
 default implementation of scratch files=sf  


 Variables initialized (930), CPU time= 0.01 sec
                                                                                 !gdirect
 memory,2000,m
 gthresh,orbital=1d-10,energy=1d-10,grid=1d-8
 
 symmetry,nosym
 angstrom
 geometry={
 O4        -2.158000000000     -1.371300000000     -0.952200000000
 H7        -2.663200000000     -0.760300000000     -1.523700000000
 H8        -1.370200000000     -0.860500000000     -0.644400000000
 C1        -3.277200000000      1.482500000000      1.271900000000
 H41        -2.464000000000      0.899600000000      1.651000000000
 H42        -3.160800000000      2.501000000000      1.578500000000
 H43        -4.201800000000      1.099200000000      1.650100000000
 H44        -3.268500000000      1.421000000000      0.203700000000
 }
 
 nkerna=1
 nkernb=1
 
 gf=0
 sing=1
 thrdum=1d-4
 gridthr=1d-8
 
 basis={
 set,orbital
 default,avtz
 set,jkfit
 default,avqz/jkfit
 set,mp2fit
 default,avqz/mp2fit
 set,ri
 default,avqz/optri
 set,tddft
 default,avqz/mp2fit
 }
 
 proc set_monomer1
 dummy,4,5,6,7,8
 endproc
 
 proc set_monomer2
 dummy,1,2,3
 endproc
 
                                                                                 !1234 energy
 {hf,accu=1.d-16}
 ccsd(t)
 
 set_monomer1
 {hf,accu=1.d-16}
 ccsd(t)
 
 set_monomer2
 {hf,accu=1.d-16}
 ccsd(t)
 
 Commands  initialized (760), CPU time= 0.01 sec, 617 directives.
 Default parameters read. Elapsed time= 0.20 sec

 Checking input...
 Passed
1


                                         ***  PROGRAM SYSTEM MOLPRO  ***
                                       Copyright, TTI GmbH Stuttgart, 2015
                                    Version 2019.1 linked Jan 14 2019 13:09:19


 **********************************************************************************************************************************
 LABEL *                                                                                 
  64 bit mpp version                                                                     DATE: 11-Mar-20          TIME: 12:52:29  
 **********************************************************************************************************************************

 SHA1:             d688ac825633d238f2093ded1675ba87ccd55965
 **********************************************************************************************************************************

 THRESHOLDS:

 ZERO    =  1.00D-12  ONEINT  =  1.00D-12  TWOINT  =  1.00D-11  PREFAC  =  1.00D-14  XXXXXX  =  1.00D-09  EORDER  =  1.00D-04
 ENERGY  =  1.00D-10  ETEST   =  0.00D+00  EDENS   =  0.00D+00  THRDEDEF=  1.00D-06  GRADIENT=  1.00D-02  STEP    =  1.00D-03
 ORBITAL =  1.00D-10  CIVEC   =  1.00D-05  COEFF   =  1.00D-04  PRINTCI =  5.00D-02  PUNCHCI =  9.90D+01  OPTGRAD =  3.00D-04
 OPTENERG=  1.00D-06  OPTSTEP =  3.00D-04  THRGRAD =  1.00D-10  COMPRESS=  1.00D-11  VARMIN  =  1.00D-07  VARMAX  =  1.00D-03
 THRDOUB =  0.00D+00  THRDIV  =  1.00D-05  THRRED  =  1.00D-07  THRPSP  =  1.00D+00  THRDC   =  1.00D-10  THRCS   =  1.00D-10
 THRNRM  =  1.00D-08  THREQ   =  0.00D+00  THRDE   =  1.00D+00  THRREF  =  1.00D-05  SPARFAC =  1.00D+00  THRDLP  =  1.00D-07
 THRDIA  =  1.00D-10  THRDLS  =  1.00D-07  THRGPS  =  0.00D+00  THRKEX  =  0.00D+00  THRDIS  =  2.00D-01  THRVAR  =  1.00D-10
 THRLOC  =  1.00D-06  THRGAP  =  1.00D-06  THRLOCT = -1.00D+00  THRGAPT = -1.00D+00  THRORB  =  1.00D-06  THRMLTP =  0.00D+00
 THRCPQCI=  1.00D-10  KEXTA   =  0.00D+00  THRCOARS=  0.00D+00  SYMTOL  =  1.00D-06  GRADTOL =  1.00D-06  THROVL  =  1.00D-08
 THRORTH =  1.00D-08  GRID    =  1.00D-08  GRIDMAX =  1.00D-03  DTMAX   =  0.00D+00  THROCCDE=  1.00D-01  THROCCDE=  1.00D-01
 THRPRINT=  2.50D-01


 Variable memory set to 2000000000 words,  buffer space 

 ZSYMEL=NOSYM
 ZUNIT=ANG


Geometry recognized as XYZ

 SETTING NKERNA         =         1.00000000                                  
 SETTING NKERNB         =         1.00000000                                  
 SETTING GF             =     0.00000000D+00                                  
 SETTING SING           =         1.00000000                                  
 SETTING THRDUM         =     1.00000000D-04                                  
 SETTING GRIDTHR        =     1.00000000D-08                                  
 SETTING BASIS          =    AVTZ


 Recomputing integrals since basis changed


 Using spherical harmonics

 Library entry O      S aug-cc-pVTZ          selected for orbital group  1
 Library entry O      P aug-cc-pVTZ          selected for orbital group  1
 Library entry O      D aug-cc-pVTZ          selected for orbital group  1
 Library entry O      F aug-cc-pVTZ          selected for orbital group  1
 Library entry H      S aug-cc-pVTZ          selected for orbital group  2
 Library entry H      P aug-cc-pVTZ          selected for orbital group  2
 Library entry H      D aug-cc-pVTZ          selected for orbital group  2
 Library entry C      S aug-cc-pVTZ          selected for orbital group  3
 Library entry C      P aug-cc-pVTZ          selected for orbital group  3
 Library entry C      D aug-cc-pVTZ          selected for orbital group  3
 Library entry C      F aug-cc-pVTZ          selected for orbital group  3


 PROGRAM * SEWARD (Integral evaluation for generally contracted gaussian basis sets)     Author: Roland Lindh, 1990

 Geometry written to block  1 of record 700


 Point group  C1  



 ATOMIC COORDINATES

 NR  ATOM    CHARGE       X              Y              Z

   1  O4      8.00   -4.078028977   -2.591381435   -1.799397216
   2  H7      1.00   -5.032718615   -1.436758773   -2.879375696
   3  H8      1.00   -2.589302736   -1.626109330   -1.217739515
   4  C1      6.00   -6.193010455    2.801518980    2.403542658
   5  H41     1.00   -4.656285171    1.699997622    3.119937832
   6  H42     1.00   -5.973046335    4.726205038    2.982932688
   7  H43     1.00   -7.940251230    2.077186956    3.118237078
   8  H44     1.00   -6.176569838    2.685300823    0.384937212

 Bond lengths in Bohr (Angstrom)

 1-2  1.846872847  1-3  1.867185512  4-5  2.021904040  4-6  2.022002335  4-7  2.021953343
     ( 0.977323022)     ( 0.988072022)     ( 1.069945541)     ( 1.069997556)     ( 1.069971630)

 4-8  2.022015060
     ( 1.070004290)

 Bond angles

  2-1-3  105.73056797   5-4-6  109.53398059   5-4-7  109.65604535   5-4-8  108.43490854

  6-4-7  109.49436728   6-4-8  109.86987750   7-4-8  109.83468330

 NUCLEAR CHARGE:                   20
 NUMBER OF PRIMITIVE AOS:         296
 NUMBER OF SYMMETRY AOS:          266
 NUMBER OF CONTRACTIONS:          230   (  230A   )
 NUMBER OF CORE ORBITALS:           2   (    2A   )
 NUMBER OF VALENCE ORBITALS:       14   (   14A   )


 NUCLEAR REPULSION ENERGY   36.73664214


 Basis set:  JKFIT                   
 Basis size:   740
 Attributes:
 Sphericals:   T
 Basis set:  MP2FIT                  
 Basis size:   816
 Attributes:
 Sphericals:   T
 Basis set:  RI                      
 Basis size:   556
 Attributes:
 Sphericals:   T
 Basis set:  TDDFT                   
 Basis size:   816
 Attributes:
 Sphericals:   T

 **********************************************************************************************************************************


 Eigenvalues of metric

         1 0.672E-04 0.828E-04 0.933E-04 0.101E-03 0.337E-03 0.391E-03 0.699E-03 0.710E-03


 Contracted 2-electron integrals neglected if value below      1.0D-14
 AO integral compression algorithm  1   Integral accuracy      1.0D-14

     2294.546 MB (compressed) written to integral file ( 71.6%)

     Node minimum: 548.405 MB, node maximum: 599.785 MB


 NUMBER OF SORTED TWO-ELECTRON INTEGRALS:   88219044.     BUFFER LENGTH:  32768
 NUMBER OF SEGMENTS:   6  SEGMENT LENGTH:   15998348      RECORD LENGTH: 524288

 Memory used in sort:      16.56 MW

 SORT1 READ   400769927. AND WROTE    83134686. INTEGRALS IN    241 RECORDS. CPU TIME:     7.72 SEC, REAL TIME:     8.90 SEC
 SORT2 READ   332825365. AND WROTE   352862895. INTEGRALS IN   8368 RECORDS. CPU TIME:     2.02 SEC, REAL TIME:     2.88 SEC

 Node minimum:    88205762.  Node maximum:    88225686. integrals

 OPERATOR DM      FOR CENTER  0  COORDINATES:    0.000000    0.000000    0.000000


 **********************************************************************************************************************************
 DATASETS  * FILE   NREC   LENGTH (MB)   RECORD NAMES
              1      18       32.04       500      610      700      900      950      970     1000      129      960     1100   
                                          VAR    BASINP    GEOM    SYMINP    ZMAT    AOBASIS   BASIS     P2S    ABASIS      S 
                                         1400     1410     1200     1210     1080     1600     1650     1700   
                                           T        V       H0       H01     AOSYM     SMH    MOLCAS    OPER   

 PROGRAMS   *        TOTAL       INT
 CPU TIMES  *        14.56     14.34
 REAL TIME  *        20.06 SEC
 DISK USED  *        32.49 MB (local),        6.37 GB (total)
 GA USED    *         0.00 MB       (max)       0.00 MB       (current)
 **********************************************************************************************************************************


 PROGRAM * RHF-SCF (CLOSED SHELL)       Authors: W. Meyer, H.-J. Werner


 NUMBER OF ELECTRONS:      10+   10-    SPACE SYMMETRY=1    SPIN SYMMETRY: Singlet 
 CONVERGENCE THRESHOLDS:    1.00E-08 (Density)    1.00E-11 (Energy)
 MAX. NUMBER OF ITERATIONS:       60
 INTERPOLATION TYPE:            DIIS
 INTERPOLATION STEPS:              2 (START)      1 (STEP)
 LEVEL SHIFTS:                  0.00 (CLOSED)  0.00 (OPEN) 



 Orbital guess generated from atomic densities. Full valence occupancy:   16

 Molecular orbital dump at record        2100.2

 Initial occupancy:  10

 ITERATION    DDIFF          GRAD             ENERGY        2-EL.EN.            DIPOLE MOMENTS         DIIS   ORB.
    1      0.000D+00      0.000D+00      -116.21222821    158.877033    0.28064    1.08406   -0.25393    0    start
    2      0.000D+00      0.523D-02      -116.25616067    154.052120    0.13366    0.61471   -0.10991    1    diag
    3      0.551D-02      0.308D-02      -116.26964800    156.069177    0.17099    0.73394   -0.14793    2    diag
    4      0.183D-02      0.456D-03      -116.27030849    155.958137    0.16850    0.72369   -0.14693    3    diag
    5      0.399D-03      0.134D-03      -116.27037650    155.952257    0.16792    0.72359   -0.14658    4    diag
    6      0.144D-03      0.327D-04      -116.27038031    155.958187    0.16766    0.72291   -0.14641    5    diag
    7      0.412D-04      0.629D-05      -116.27038053    155.956606    0.16764    0.72295   -0.14643    6    diag
    8      0.113D-04      0.160D-05      -116.27038055    155.956758    0.16761    0.72289   -0.14641    7    diag
    9      0.219D-05      0.360D-06      -116.27038055    155.956732    0.16760    0.72287   -0.14640    8    diag
   10      0.749D-06      0.422D-07      -116.27038055    155.956734    0.16760    0.72287   -0.14640    9    orth
   11      0.588D-07      0.111D-07      -116.27038055    155.956735    0.16760    0.72287   -0.14640    9    diag
   12      0.241D-07      0.301D-08      -116.27038055    155.956734    0.16760    0.72287   -0.14640    9    diag
   13      0.461D-08      0.803D-09      -116.27038055    155.956735    0.16760    0.72287   -0.14640    0    orth

 Final occupancy:  10

 !RHF STATE  1.1 Energy              -116.270380548810
 Nuclear energy                        36.73664214
 One-electron energy                 -230.98539003
 Two-electron energy                   77.97836734
 Virial quotient                       -1.00121979
 !RHF STATE  1.1 Dipole moment          0.16759745     0.72287205    -0.14640286
 Dipole moment /Debye                   0.42596232     1.83723713    -0.37209459

 Orbital energies:

         1.1          2.1          3.1          4.1          5.1          6.1          7.1          8.1          9.1         10.1
    -20.570039   -11.200884    -1.339292    -0.954280    -0.705644    -0.577726    -0.555660    -0.552801    -0.551397    -0.506605

        11.1         12.1
      0.026440     0.042236


 HOMO     10.1    -0.506605 =     -13.7854eV
 LUMO     11.1     0.026440 =       0.7195eV
 LUMO-HOMO         0.533045 =      14.5049eV


 **********************************************************************************************************************************
 DATASETS  * FILE   NREC   LENGTH (MB)   RECORD NAMES
              1      18       32.04       500      610      700      900      950      970     1000      129      960     1100   
                                          VAR    BASINP    GEOM    SYMINP    ZMAT    AOBASIS   BASIS     P2S    ABASIS      S 
                                         1400     1410     1200     1210     1080     1600     1650     1700   
                                           T        V       H0       H01     AOSYM     SMH    MOLCAS    OPER   

              2       4        3.96       700     1000      520     2100   
                                         GEOM     BASIS   MCVARS     RHF  

 PROGRAMS   *        TOTAL    HF-SCF       INT
 CPU TIMES  *        28.44     13.88     14.34
 REAL TIME  *        35.52 SEC
 DISK USED  *        39.90 MB (local),        6.40 GB (total)
 SF USED    *         0.21 MB
 GA USED    *         0.00 MB       (max)       0.00 MB       (current)
 **********************************************************************************************************************************

 Basis set:  JKFIT                   
 Basis size:   740
 Attributes:
 Sphericals:   T
 Basis set:  MP2FIT                  
 Basis size:   816
 Attributes:
 Sphericals:   T
 Basis set:  RI                      
 Basis size:   556
 Attributes:
 Sphericals:   T
 Basis set:  TDDFT                   
 Basis size:   816
 Attributes:
 Sphericals:   T

 PROGRAM * CCSD (Closed-shell coupled cluster)     Authors: C. Hampel, H.-J. Werner, 1991, M. Deegan, P.J. Knowles, 1992


 Convergence thresholds:  THRVAR = 1.00D-08  THRDEN = 1.00D-10

 CCSD(T)     terms to be evaluated (factor= 1.000)


 Number of core orbitals:           2 (   2 )
 Number of closed-shell orbitals:   8 (   8 )
 Number of external orbitals:     220 ( 220 )

 Molecular orbitals read from record     2100.2  Type=RHF/CANONICAL (state 1.1)

 Number of N-1 electron functions:               8
 Number of N-2 electron functions:              36
 Number of singly external CSFs:              1760
 Number of doubly external CSFs:           1549680
 Total number of CSFs:                     1551441

 Length of J-op  integral file:               0.00 MB
 Length of K-op  integral file:               3.65 MB
 Length of 3-ext integral record:             0.00 MB

 Memory could be reduced to 116.39 Mwords without degradation in triples

 Integral transformation finished. Total CPU:  25.62 sec, npass=  1  Memory used:  59.35 MW

 Reference energy:                   -116.27038055

 MP2 singlet pair energy:              -0.31769319
 MP2 triplet pair energy:              -0.15398399
 MP2 correlation energy:               -0.47167717
 MP2 total energy:                   -116.74205772

 SCS-MP2 correlation energy:           -0.47704408   (PS=  1.200000  PT=  0.333333)
 SCS-MP2 total energy:               -116.74742463

 ITER.      SQ.NORM     CORR.ENERGY   TOTAL ENERGY   ENERGY CHANGE        DEN1      VAR(S)    VAR(P)  DIIS     TIME  TIME/IT
   1      1.13577909    -0.49431643  -116.76469698    -0.02263926    -0.01134854  0.14D-02  0.21D-02  1  1    40.47    14.80
   2      1.14490235    -0.49573721  -116.76611776    -0.00142078    -0.01041498  0.23D-04  0.25D-03  2  2    55.39    15.01
   3      1.14794827    -0.49587090  -116.76625144    -0.00013368    -0.00199028  0.15D-04  0.12D-04  3  3    70.33    15.06
   4      1.14876716    -0.49587190  -116.76625245    -0.00000100    -0.00036850  0.59D-06  0.12D-05  4  4    85.21    15.10
   5      1.14892825    -0.49586918  -116.76624972     0.00000272    -0.00005120  0.22D-06  0.80D-07  5  5   100.12    15.13
   6      1.14897707    -0.49586455  -116.76624510     0.00000463    -0.00001222  0.19D-07  0.58D-08  6  6   115.03    15.14
   7      1.14898572    -0.49586393  -116.76624448     0.00000062    -0.00000092  0.18D-08  0.11D-08  6  2   130.00    15.16
   8      1.14898779    -0.49586377  -116.76624432     0.00000015    -0.00000015  0.37D-09  0.12D-09  6  1   144.94    15.17
   9      1.14898859    -0.49586373  -116.76624428     0.00000004     0.00000015  0.30D-10  0.15D-10  6  3   159.87    15.17
  10      1.14898883    -0.49586371  -116.76624426     0.00000002    -0.00000001  0.37D-11  0.23D-11  6  4   174.85    15.18
  11      1.14898878    -0.49586372  -116.76624427    -0.00000001     0.00000006  0.72D-12  0.31D-12  6  6   189.84    15.18
  12      1.14898876    -0.49586372  -116.76624427    -0.00000000     0.00000002  0.13D-12  0.42D-13  6  5   204.84    15.18
  13      1.14898874    -0.49586372  -116.76624427    -0.00000000     0.00000001  0.21D-13  0.70D-14  6  2   219.78    15.19
  14      1.14898873    -0.49586372  -116.76624427    -0.00000000     0.00000000  0.28D-14  0.14D-14  6  1   234.73    15.19
  15      1.14898873    -0.49586372  -116.76624427    -0.00000000     0.00000000  0.23D-15  0.16D-15  6  3   249.69    15.19
  16      1.14898873    -0.49586372  -116.76624427    -0.00000000    -0.00000000  0.37D-16  0.22D-16  6  4   264.70    15.19
  17      1.14898873    -0.49586372  -116.76624427     0.00000000    -0.00000000  0.94D-17  0.35D-17  6  2   279.65    15.20

 Norm of t1 vector:      0.05161124      S-energy:    -0.00000000      T1 diagnostic:  0.00912366
                                                                       D1 diagnostic:  0.02257313


 Total CPU time for triples:    228.82 sec


 RESULTS
 =======

  Reference energy                   -116.270380548811
  CCSD singlet pair energy             -0.354805839411
  CCSD triplet pair energy             -0.141057882783
  CCSD correlation energy              -0.495863722213

  Triples (T) contribution             -0.015452782256
  Total correlation energy             -0.511316504469

  CCSD total energy                  -116.766244271024
  CCSD[T] energy                     -116.782227258361
  CCSD-T energy                      -116.781441261358
 !CCSD(T) total energy               -116.781697053280

 Timing summary (sec):

 STEP                 CPU(USER)    SYS     CPU(TOT)    WALL
 Transformation         25.81      0.92     26.73     26.85
 CCSD iterations       253.87      4.17    258.04    258.38
 Triples               228.82      1.20    230.02    230.32

 Program statistics:

 Available memory in ccsd:              1999999734
 Min. memory needed in ccsd:               4617529
 Max. memory used in ccsd:                 5944569
 Max. memory used in cckext:               4248553 (17 integral passes)



 **********************************************************************************************************************************
 DATASETS  * FILE   NREC   LENGTH (MB)   RECORD NAMES
              1      19      398.13       500      610      700      900      950      970     1000      129      960     1100   
                                          VAR    BASINP    GEOM    SYMINP    ZMAT    AOBASIS   BASIS     P2S    ABASIS      S 
                                         1400     1410     1200     1210     1080     1600     1650     1700     1380   
                                           T        V       H0       H01     AOSYM     SMH    MOLCAS    OPER     JKOP   

              2       4        3.96       700     1000      520     2100   
                                         GEOM     BASIS   MCVARS     RHF  

 PROGRAMS   *        TOTAL   CCSD(T)    HF-SCF       INT
 CPU TIMES  *       537.18    508.72     13.88     14.34
 REAL TIME  *       551.87 SEC
 DISK USED  *       570.36 MB (local),        8.02 GB (total)
 SF USED    *       504.31 MB
 GA USED    *         0.00 MB       (max)       0.00 MB       (current)
 **********************************************************************************************************************************

 Running procedure: SET_MONOMER1

 Dummy atoms: C1  H41  H42  H43  H44


 Recomputing one-electron integrals since nuclear charges changed


 PROGRAM * SEWARD (Integral evaluation for generally contracted gaussian basis sets)     Author: Roland Lindh, 1990

 Geometry written to block  1 of record 700


 Point group  C1  



 ATOMIC COORDINATES

 NR  ATOM    CHARGE       X              Y              Z

   1  O4      8.00   -4.078028977   -2.591381435   -1.799397216
   2  H7      1.00   -5.032718615   -1.436758773   -2.879375696
   3  H8      1.00   -2.589302736   -1.626109330   -1.217739515
   4  C1      0.00   -6.193010455    2.801518980    2.403542658
   5  H41     0.00   -4.656285171    1.699997622    3.119937832
   6  H42     0.00   -5.973046335    4.726205038    2.982932688
   7  H43     0.00   -7.940251230    2.077186956    3.118237078
   8  H44     0.00   -6.176569838    2.685300823    0.384937212

 Bond lengths in Bohr (Angstrom)

 1-2  1.846872847  1-3  1.867185512  4-5  2.021904040  4-6  2.022002335  4-7  2.021953343
     ( 0.977323022)     ( 0.988072022)     ( 1.069945541)     ( 1.069997556)     ( 1.069971630)

 4-8  2.022015060
     ( 1.070004290)

 Bond angles

  2-1-3  105.73056797   5-4-6  109.53398059   5-4-7  109.65604535   5-4-8  108.43490854

  6-4-7  109.49436728   6-4-8  109.86987750   7-4-8  109.83468330

 NUCLEAR CHARGE:                   10
 NUMBER OF PRIMITIVE AOS:         296
 NUMBER OF SYMMETRY AOS:          266
 NUMBER OF CONTRACTIONS:          230   (  230A   )
 NUMBER OF CORE ORBITALS:           1   (    1A   )
 NUMBER OF VALENCE ORBITALS:        6   (    6A   )

 MOLECULE CHANGED: INITIALIZING OCCUPATION AND DUMP RECORDS


 NUCLEAR REPULSION ENERGY    8.95390023

 Basis set:  JKFIT                   
 Basis size:   740
 Attributes:
 Sphericals:   T
 Basis set:  MP2FIT                  
 Basis size:   816
 Attributes:
 Sphericals:   T
 Basis set:  RI                      
 Basis size:   556
 Attributes:
 Sphericals:   T
 Basis set:  TDDFT                   
 Basis size:   816
 Attributes:
 Sphericals:   T

 Eigenvalues of metric

         1 0.672E-04 0.828E-04 0.933E-04 0.101E-03 0.337E-03 0.391E-03 0.699E-03 0.710E-03


 Contracted 2-electron integrals neglected if value below      1.0D-14

 OPERATOR DM      FOR CENTER  0  COORDINATES:    0.000000    0.000000    0.000000


 **********************************************************************************************************************************
 DATASETS  * FILE   NREC   LENGTH (MB)   RECORD NAMES
              1      18       32.04       500      610      700      900      950      970     1000      129      960     1100   
                                          VAR    BASINP    GEOM    SYMINP    ZMAT    AOBASIS   BASIS     P2S    ABASIS      S 
                                         1400     1410     1200     1210     1080     1600     1650     1700   
                                           T        V       H0       H01     AOSYM     SMH    MOLCAS    OPER   

              2       5        5.05       700     1000      520     2100      200   
                                         GEOM     BASIS   MCVARS     RHF    OPTIONS    

 PROGRAMS   *        TOTAL       INT   CCSD(T)    HF-SCF       INT
 CPU TIMES  *       537.38      0.21    508.72     13.88     14.34
 REAL TIME  *       552.68 SEC
 DISK USED  *       570.36 MB (local),        8.02 GB (total)
 SF USED    *       504.31 MB
 GA USED    *         0.00 MB       (max)       0.00 MB       (current)
 **********************************************************************************************************************************


 PROGRAM * RHF-SCF (CLOSED SHELL)       Authors: W. Meyer, H.-J. Werner


 NUMBER OF ELECTRONS:       5+    5-    SPACE SYMMETRY=1    SPIN SYMMETRY: Singlet 
 CONVERGENCE THRESHOLDS:    1.00E-08 (Density)    1.00E-11 (Energy)
 MAX. NUMBER OF ITERATIONS:       60
 INTERPOLATION TYPE:            DIIS
 INTERPOLATION STEPS:              2 (START)      1 (STEP)
 LEVEL SHIFTS:                  0.00 (CLOSED)  0.00 (OPEN) 



 Orbital guess generated from atomic densities. Full valence occupancy:    7

 Molecular orbital dump at record        2101.2

 Initial occupancy:   5

 ITERATION    DDIFF          GRAD             ENERGY        2-EL.EN.            DIPOLE MOMENTS         DIIS   ORB.
    1      0.000D+00      0.000D+00       -76.01941637     77.318523    0.27715    1.08794   -0.25386    0    start
    2      0.000D+00      0.639D-02       -76.04599779     73.672630    0.15804    0.63108   -0.14921    1    diag
    3      0.444D-02      0.410D-02       -76.05748517     75.287335    0.18696    0.74429   -0.17552    2    diag
    4      0.161D-02      0.377D-03       -76.05767867     75.197823    0.18525    0.73975   -0.17483    3    diag
    5      0.203D-03      0.106D-03       -76.05769930     75.212054    0.18457    0.73801   -0.17457    4    diag
    6      0.631D-04      0.208D-04       -76.05770060     75.211137    0.18441    0.73766   -0.17454    5    diag
    7      0.162D-04      0.413D-05       -76.05770067     75.211268    0.18435    0.73753   -0.17452    6    diag
    8      0.433D-05      0.761D-06       -76.05770067     75.211252    0.18434    0.73749   -0.17451    7    diag
    9      0.724D-06      0.990D-07       -76.05770067     75.211243    0.18434    0.73749   -0.17451    8    diag
   10      0.947D-07      0.248D-07       -76.05770067     75.211247    0.18434    0.73749   -0.17451    9    orth
   11      0.257D-07      0.452D-08       -76.05770067     75.211246    0.18434    0.73749   -0.17451    9    diag
   12      0.526D-08      0.738D-09       -76.05770067     75.211246    0.18434    0.73749   -0.17451    0    orth

 Final occupancy:   5

 !RHF STATE  1.1 Energy               -76.057700668047
 Nuclear energy                         8.95390023
 One-electron energy                 -122.61722386
 Two-electron energy                   37.60562295
 Virial quotient                       -1.00260988
 !RHF STATE  1.1 Dipole moment          0.18434082     0.73748501    -0.17451033
 Dipole moment /Debye                   0.46851695     1.87437716    -0.44353197

 Orbital energies:

         1.1          2.1          3.1          4.1          5.1          6.1          7.1
    -20.571025    -1.340013    -0.706325    -0.577685    -0.507941     0.019797     0.039592


 HOMO      5.1    -0.507941 =     -13.8218eV
 LUMO      6.1     0.019797 =       0.5387eV
 LUMO-HOMO         0.527738 =      14.3605eV


 **********************************************************************************************************************************
 DATASETS  * FILE   NREC   LENGTH (MB)   RECORD NAMES
              1      18       32.04       500      610      700      900      950      970     1000      129      960     1100   
                                          VAR    BASINP    GEOM    SYMINP    ZMAT    AOBASIS   BASIS     P2S    ABASIS      S 
                                         1400     1410     1200     1210     1080     1600     1650     1700   
                                           T        V       H0       H01     AOSYM     SMH    MOLCAS    OPER   

              2       6        9.09       700     1000      520     2100      200     2101   
                                         GEOM     BASIS   MCVARS     RHF    OPTIONS    RHF  

 PROGRAMS   *        TOTAL    HF-SCF       INT   CCSD(T)    HF-SCF       INT
 CPU TIMES  *       550.59     13.21      0.21    508.72     13.88     14.34
 REAL TIME  *       566.96 SEC
 DISK USED  *       570.36 MB (local),        8.02 GB (total)
 SF USED    *       504.31 MB
 GA USED    *         0.00 MB       (max)       0.00 MB       (current)
 **********************************************************************************************************************************

 Basis set:  JKFIT                   
 Basis size:   740
 Attributes:
 Sphericals:   T
 Basis set:  MP2FIT                  
 Basis size:   816
 Attributes:
 Sphericals:   T
 Basis set:  RI                      
 Basis size:   556
 Attributes:
 Sphericals:   T
 Basis set:  TDDFT                   
 Basis size:   816
 Attributes:
 Sphericals:   T

 PROGRAM * CCSD (Closed-shell coupled cluster)     Authors: C. Hampel, H.-J. Werner, 1991, M. Deegan, P.J. Knowles, 1992


 Convergence thresholds:  THRVAR = 1.00D-08  THRDEN = 1.00D-10

 CCSD(T)     terms to be evaluated (factor= 1.000)


 Number of core orbitals:           1 (   1 )
 Number of closed-shell orbitals:   4 (   4 )
 Number of external orbitals:     225 ( 225 )

 Molecular orbitals read from record     2101.2  Type=RHF/CANONICAL (state 1.1)

 Number of N-1 electron functions:               4
 Number of N-2 electron functions:              10
 Number of singly external CSFs:               900
 Number of doubly external CSFs:            405450
 Total number of CSFs:                      406351

 Length of J-op  integral file:               0.00 MB
 Length of K-op  integral file:               3.65 MB
 Length of 3-ext integral record:             0.00 MB

 Memory could be reduced to 75.63 Mwords without degradation in triples

 Integral transformation finished. Total CPU:  12.90 sec, npass=  1  Memory used:  32.52 MW

 Reference energy:                    -76.05770067

 MP2 singlet pair energy:              -0.17203287
 MP2 triplet pair energy:              -0.09838328
 MP2 correlation energy:               -0.27041616
 MP2 total energy:                    -76.32811683

 SCS-MP2 correlation energy:           -0.26765571   (PS=  1.200000  PT=  0.333333)
 SCS-MP2 total energy:                -76.32535638

 ITER.      SQ.NORM     CORR.ENERGY   TOTAL ENERGY   ENERGY CHANGE        DEN1      VAR(S)    VAR(P)  DIIS     TIME  TIME/IT
   1      1.06447047    -0.27450684   -76.33220751    -0.00409068     0.00172359  0.94D-03  0.10D-02  1  1    16.77     3.94
   2      1.06838074    -0.27481807   -76.33251874    -0.00031123    -0.00497670  0.12D-04  0.13D-03  2  2    20.68     4.02
   3      1.06987092    -0.27490520   -76.33260587    -0.00008713    -0.00095685  0.12D-04  0.61D-05  3  3    24.62     4.04
   4      1.07035712    -0.27489895   -76.33259962     0.00000625    -0.00022320  0.52D-06  0.75D-06  4  4    28.55     4.06
   5      1.07046638    -0.27489598   -76.33259665     0.00000297    -0.00003435  0.18D-06  0.50D-07  5  5    32.43     4.06
   6      1.07050409    -0.27489255   -76.33259321     0.00000344    -0.00000770  0.17D-07  0.42D-08  6  6    36.43     4.07
   7      1.07051175    -0.27489219   -76.33259286     0.00000035    -0.00000074  0.16D-08  0.88D-09  6  1    40.41     4.08
   8      1.07051370    -0.27489210   -76.33259277     0.00000010    -0.00000015  0.26D-09  0.10D-09  6  2    44.31     4.08
   9      1.07051429    -0.27489206   -76.33259273     0.00000004     0.00000021  0.22D-10  0.92D-11  6  3    48.26     4.08
  10      1.07051448    -0.27489204   -76.33259271     0.00000002    -0.00000002  0.31D-11  0.15D-11  6  4    52.24     4.08
  11      1.07051447    -0.27489205   -76.33259271    -0.00000001     0.00000002  0.68D-12  0.19D-12  6  5    56.24     4.09
  12      1.07051447    -0.27489205   -76.33259271     0.00000000     0.00000000  0.11D-12  0.36D-13  6  6    60.13     4.09
  13      1.07051446    -0.27489205   -76.33259272    -0.00000000     0.00000000  0.17D-13  0.66D-14  6  1    64.15     4.09
  14      1.07051446    -0.27489205   -76.33259272    -0.00000000     0.00000000  0.16D-14  0.79D-15  6  2    68.14     4.09
  15      1.07051446    -0.27489205   -76.33259272    -0.00000000     0.00000000  0.18D-15  0.13D-15  6  3    72.02     4.09
  16      1.07051446    -0.27489205   -76.33259272    -0.00000000     0.00000000  0.35D-16  0.19D-16  6  4    76.01     4.09

 Norm of t1 vector:      0.04150708      S-energy:    -0.00000000      T1 diagnostic:  0.01037677
                                                                       D1 diagnostic:  0.02205902


 Total CPU time for triples:     36.34 sec


 RESULTS
 =======

  Reference energy                    -76.057700668048
  CCSD singlet pair energy             -0.187916356297
  CCSD triplet pair energy             -0.086975691189
  CCSD correlation energy              -0.274892047547

  Triples (T) contribution             -0.008888416373
  Total correlation energy             -0.283780463920

  CCSD total energy                   -76.332592715594
  CCSD[T] energy                      -76.341822175346
  CCSD-T energy                       -76.341297494193
 !CCSD(T) total energy                -76.341481131967

 Timing summary (sec):

 STEP                 CPU(USER)    SYS     CPU(TOT)    WALL
 Transformation         12.95      0.54     13.49     13.51
 CCSD iterations        63.08      2.33     65.41     65.50
 Triples                36.34      0.25     36.59     36.64

 Program statistics:

 Available memory in ccsd:              1999999921
 Min. memory needed in ccsd:               1865022
 Max. memory used in ccsd:                 2159652
 Max. memory used in cckext:               1451153 (16 integral passes)



 **********************************************************************************************************************************
 DATASETS  * FILE   NREC   LENGTH (MB)   RECORD NAMES
              1      19      222.33       500      610      700      900      950      970     1000      129      960     1100   
                                          VAR    BASINP    GEOM    SYMINP    ZMAT    AOBASIS   BASIS     P2S    ABASIS      S 
                                         1400     1410     1200     1210     1080     1600     1650     1700     1380   
                                           T        V       H0       H01     AOSYM     SMH    MOLCAS    OPER     JKOP   

              2       6        9.09       700     1000      520     2100      200     2101   
                                         GEOM     BASIS   MCVARS     RHF    OPTIONS    RHF  

 PROGRAMS   *        TOTAL   CCSD(T)    HF-SCF       INT   CCSD(T)    HF-SCF       INT
 CPU TIMES  *       663.20    112.60     13.21      0.21    508.72     13.88     14.34
 REAL TIME  *       683.33 SEC
 DISK USED  *       570.36 MB (local),        8.02 GB (total)
 SF USED    *       504.31 MB
 GA USED    *         0.00 MB       (max)       0.00 MB       (current)
 **********************************************************************************************************************************

 Running procedure: SET_MONOMER2

 Dummy atoms: O4  H7  H8


 Recomputing one-electron integrals since nuclear charges changed


 PROGRAM * SEWARD (Integral evaluation for generally contracted gaussian basis sets)     Author: Roland Lindh, 1990

 Geometry written to block  1 of record 700


 Point group  C1  



 ATOMIC COORDINATES

 NR  ATOM    CHARGE       X              Y              Z

   1  O4      0.00   -4.078028977   -2.591381435   -1.799397216
   2  H7      0.00   -5.032718615   -1.436758773   -2.879375696
   3  H8      0.00   -2.589302736   -1.626109330   -1.217739515
   4  C1      6.00   -6.193010455    2.801518980    2.403542658
   5  H41     1.00   -4.656285171    1.699997622    3.119937832
   6  H42     1.00   -5.973046335    4.726205038    2.982932688
   7  H43     1.00   -7.940251230    2.077186956    3.118237078
   8  H44     1.00   -6.176569838    2.685300823    0.384937212

 Bond lengths in Bohr (Angstrom)

 1-2  1.846872847  1-3  1.867185512  4-5  2.021904040  4-6  2.022002335  4-7  2.021953343
     ( 0.977323022)     ( 0.988072022)     ( 1.069945541)     ( 1.069997556)     ( 1.069971630)

 4-8  2.022015060
     ( 1.070004290)

 Bond angles

  2-1-3  105.73056797   5-4-6  109.53398059   5-4-7  109.65604535   5-4-8  108.43490854

  6-4-7  109.49436728   6-4-8  109.86987750   7-4-8  109.83468330

 NUCLEAR CHARGE:                   10
 NUMBER OF PRIMITIVE AOS:         296
 NUMBER OF SYMMETRY AOS:          266
 NUMBER OF CONTRACTIONS:          230   (  230A   )
 NUMBER OF CORE ORBITALS:           1   (    1A   )
 NUMBER OF VALENCE ORBITALS:        8   (    8A   )

 MOLECULE CHANGED: INITIALIZING OCCUPATION AND DUMP RECORDS


 NUCLEAR REPULSION ENERGY   13.68681606

 Basis set:  JKFIT                   
 Basis size:   740
 Attributes:
 Sphericals:   T
 Basis set:  MP2FIT                  
 Basis size:   816
 Attributes:
 Sphericals:   T
 Basis set:  RI                      
 Basis size:   556
 Attributes:
 Sphericals:   T
 Basis set:  TDDFT                   
 Basis size:   816
 Attributes:
 Sphericals:   T

 Eigenvalues of metric

         1 0.672E-04 0.828E-04 0.933E-04 0.101E-03 0.337E-03 0.391E-03 0.699E-03 0.710E-03


 Contracted 2-electron integrals neglected if value below      1.0D-14

 OPERATOR DM      FOR CENTER  0  COORDINATES:    0.000000    0.000000    0.000000


 **********************************************************************************************************************************
 DATASETS  * FILE   NREC   LENGTH (MB)   RECORD NAMES
              1      18       32.04       500      610      700      900      950      970     1000      129      960     1100   
                                          VAR    BASINP    GEOM    SYMINP    ZMAT    AOBASIS   BASIS     P2S    ABASIS      S 
                                         1400     1410     1200     1210     1080     1600     1650     1700   
                                           T        V       H0       H01     AOSYM     SMH    MOLCAS    OPER   

              2       6        9.09       700     1000      520     2100      200     2101   
                                         GEOM     BASIS   MCVARS     RHF    OPTIONS    RHF  

 PROGRAMS   *        TOTAL       INT   CCSD(T)    HF-SCF       INT   CCSD(T)    HF-SCF       INT
 CPU TIMES  *       663.45      0.24    112.60     13.21      0.21    508.72     13.88     14.34
 REAL TIME  *       684.08 SEC
 DISK USED  *       570.36 MB (local),        8.02 GB (total)
 SF USED    *       504.31 MB
 GA USED    *         0.00 MB       (max)       0.00 MB       (current)
 **********************************************************************************************************************************


 PROGRAM * RHF-SCF (CLOSED SHELL)       Authors: W. Meyer, H.-J. Werner


 NUMBER OF ELECTRONS:       5+    5-    SPACE SYMMETRY=1    SPIN SYMMETRY: Singlet 
 CONVERGENCE THRESHOLDS:    1.00E-08 (Density)    1.00E-11 (Energy)
 MAX. NUMBER OF ITERATIONS:       60
 INTERPOLATION TYPE:            DIIS
 INTERPOLATION STEPS:              2 (START)      1 (STEP)
 LEVEL SHIFTS:                  0.00 (CLOSED)  0.00 (OPEN) 



 Orbital guess generated from atomic densities. Full valence occupancy:    9

 Molecular orbital dump at record        2102.2

 Initial occupancy:   5

 ITERATION    DDIFF          GRAD             ENERGY        2-EL.EN.            DIPOLE MOMENTS         DIIS   ORB.
    1      0.000D+00      0.000D+00       -40.19358737     53.494040    0.00409   -0.00274   -0.00129    0    start
    2      0.000D+00      0.353D-02       -40.21070494     52.213678    0.00127   -0.00087   -0.00037    1    diag
    3      0.323D-02      0.137D-02       -40.21295344     52.664849    0.00180   -0.00123   -0.00054    2    diag
    4      0.903D-03      0.342D-03       -40.21326891     52.609822    0.00160   -0.00109   -0.00047    3    diag
    5      0.297D-03      0.444D-04       -40.21327430     52.612161    0.00157   -0.00107   -0.00046    4    diag
    6      0.810D-04      0.345D-05       -40.21327434     52.612258    0.00157   -0.00107   -0.00046    5    diag
    7      0.671D-05      0.264D-06       -40.21327434     52.612224    0.00157   -0.00107   -0.00046    6    diag
    8      0.999D-06      0.221D-07       -40.21327434     52.612225    0.00157   -0.00107   -0.00046    7    diag
    9      0.188D-06      0.283D-08       -40.21327434     52.612225    0.00157   -0.00107   -0.00046    8    diag
   10      0.106D-07      0.791D-09       -40.21327434     52.612225    0.00157   -0.00107   -0.00046    9    orth
   11      0.119D-08      0.106D-09       -40.21327434     52.612225    0.00157   -0.00107   -0.00046    0    orth

 Final occupancy:   5

 !RHF STATE  1.1 Energy               -40.213274342915
 Nuclear energy                        13.68681606
 One-electron energy                  -80.20620278
 Two-electron energy                   26.30611238
 Virial quotient                       -0.99870267
 !RHF STATE  1.1 Dipole moment          0.00156936    -0.00107223    -0.00045963
 Dipole moment /Debye                   0.00398867    -0.00272516    -0.00116819

 Orbital energies:

         1.1          2.1          3.1          4.1          5.1          6.1          7.1
    -11.197211    -0.950741    -0.551695    -0.549760    -0.547581     0.027699     0.042026


 HOMO      5.1    -0.547581 =     -14.9004eV
 LUMO      6.1     0.027699 =       0.7537eV
 LUMO-HOMO         0.575280 =      15.6542eV


 **********************************************************************************************************************************
 DATASETS  * FILE   NREC   LENGTH (MB)   RECORD NAMES
              1      18       32.04       500      610      700      900      950      970     1000      129      960     1100   
                                          VAR    BASINP    GEOM    SYMINP    ZMAT    AOBASIS   BASIS     P2S    ABASIS      S 
                                         1400     1410     1200     1210     1080     1600     1650     1700   
                                           T        V       H0       H01     AOSYM     SMH    MOLCAS    OPER   

              2       7       13.71       700     1000      520     2100      200     2101     2102   
                                         GEOM     BASIS   MCVARS     RHF    OPTIONS    RHF      RHF  

 PROGRAMS   *        TOTAL    HF-SCF       INT   CCSD(T)    HF-SCF       INT   CCSD(T)    HF-SCF       INT
 CPU TIMES  *       675.46     12.01      0.24    112.60     13.21      0.21    508.72     13.88     14.34
 REAL TIME  *       697.25 SEC
 DISK USED  *       570.36 MB (local),        8.02 GB (total)
 SF USED    *       504.31 MB
 GA USED    *         0.00 MB       (max)       0.00 MB       (current)
 **********************************************************************************************************************************

 Basis set:  JKFIT                   
 Basis size:   740
 Attributes:
 Sphericals:   T
 Basis set:  MP2FIT                  
 Basis size:   816
 Attributes:
 Sphericals:   T
 Basis set:  RI                      
 Basis size:   556
 Attributes:
 Sphericals:   T
 Basis set:  TDDFT                   
 Basis size:   816
 Attributes:
 Sphericals:   T

 PROGRAM * CCSD (Closed-shell coupled cluster)     Authors: C. Hampel, H.-J. Werner, 1991, M. Deegan, P.J. Knowles, 1992


 Convergence thresholds:  THRVAR = 1.00D-08  THRDEN = 1.00D-10

 CCSD(T)     terms to be evaluated (factor= 1.000)


 Number of core orbitals:           1 (   1 )
 Number of closed-shell orbitals:   4 (   4 )
 Number of external orbitals:     225 ( 225 )

 Molecular orbitals read from record     2102.2  Type=RHF/CANONICAL (state 1.1)

 Number of N-1 electron functions:               4
 Number of N-2 electron functions:              10
 Number of singly external CSFs:               900
 Number of doubly external CSFs:            405450
 Total number of CSFs:                      406351

 Length of J-op  integral file:               0.00 MB
 Length of K-op  integral file:               3.65 MB
 Length of 3-ext integral record:             0.00 MB

 Memory could be reduced to 75.63 Mwords without degradation in triples

 Integral transformation finished. Total CPU:  12.79 sec, npass=  1  Memory used:  32.52 MW

 Reference energy:                    -40.21327434

 MP2 singlet pair energy:              -0.14546022
 MP2 triplet pair energy:              -0.05506557
 MP2 correlation energy:               -0.20052580
 MP2 total energy:                    -40.41380014

 SCS-MP2 correlation energy:           -0.20881529   (PS=  1.200000  PT=  0.333333)
 SCS-MP2 total energy:                -40.42208963

 ITER.      SQ.NORM     CORR.ENERGY   TOTAL ENERGY   ENERGY CHANGE        DEN1      VAR(S)    VAR(P)  DIIS     TIME  TIME/IT
   1      1.07101042    -0.21907232   -40.43234667    -0.01854653    -0.01309303  0.46D-03  0.10D-02  1  1    16.76     4.00
   2      1.07650356    -0.22017361   -40.43344795    -0.00110129    -0.00567794  0.13D-04  0.71D-04  2  2    20.73     4.07
   3      1.07773211    -0.22022688   -40.43350123    -0.00005327    -0.00078836  0.16D-05  0.48D-05  3  3    24.70     4.08
   4      1.07803616    -0.22023589   -40.43351023    -0.00000901    -0.00012817  0.92D-07  0.22D-06  4  4    28.66     4.10
   5      1.07808237    -0.22023483   -40.43350917     0.00000106    -0.00001886  0.57D-08  0.16D-07  5  5    32.61     4.10
   6      1.07808727    -0.22023403   -40.43350838     0.00000079    -0.00000159  0.47D-09  0.11D-08  6  6    36.54     4.11
   7      1.07808798    -0.22023388   -40.43350822     0.00000015    -0.00000033  0.33D-10  0.94D-10  6  1    40.52     4.11
   8      1.07808802    -0.22023391   -40.43350826    -0.00000003     0.00000011  0.28D-11  0.56D-11  6  2    44.44     4.11
   9      1.07808803    -0.22023392   -40.43350826    -0.00000000     0.00000002  0.32D-12  0.49D-12  6  3    48.41     4.11
  10      1.07808803    -0.22023392   -40.43350826     0.00000000     0.00000001  0.27D-13  0.50D-13  6  4    52.37     4.12
  11      1.07808802    -0.22023392   -40.43350826     0.00000000     0.00000001  0.22D-14  0.50D-14  6  5    56.34     4.12
  12      1.07808801    -0.22023392   -40.43350826     0.00000000     0.00000000  0.52D-16  0.58D-15  6  6    60.32     4.13

 Norm of t1 vector:      0.02947113      S-energy:     0.00000000      T1 diagnostic:  0.00736778
                                                                       D1 diagnostic:  0.01186555

 Total CPU time for triples:     36.29 sec


 RESULTS
 =======

  Reference energy                    -40.213274342916
  CCSD singlet pair energy             -0.166738967645
  CCSD triplet pair energy             -0.053494948177
  CCSD correlation energy              -0.220233915761

  Triples (T) contribution             -0.006423431146
  Total correlation energy             -0.226657346907

  CCSD total energy                   -40.433508258677
  CCSD[T] energy                      -40.440114241669
  CCSD-T energy                       -40.439863791917
 !CCSD(T) total energy                -40.439931689823

 Timing summary (sec):

 STEP                 CPU(USER)    SYS     CPU(TOT)    WALL
 Transformation         12.85      0.51     13.36     13.37
 CCSD iterations        47.50      1.90     49.40     49.57
 Triples                36.29      0.22     36.51     36.56

 Program statistics:

 Available memory in ccsd:              1999999916
 Min. memory needed in ccsd:               1865022
 Max. memory used in ccsd:                 2159652
 Max. memory used in cckext:               1451153 (12 integral passes)



 **********************************************************************************************************************************
 DATASETS  * FILE   NREC   LENGTH (MB)   RECORD NAMES
              1      19      222.33       500      610      700      900      950      970     1000      129      960     1100   
                                          VAR    BASINP    GEOM    SYMINP    ZMAT    AOBASIS   BASIS     P2S    ABASIS      S 
                                         1400     1410     1200     1210     1080     1600     1650     1700     1380   
                                           T        V       H0       H01     AOSYM     SMH    MOLCAS    OPER     JKOP   

              2       7       13.71       700     1000      520     2100      200     2101     2102   
                                         GEOM     BASIS   MCVARS     RHF    OPTIONS    RHF      RHF  

 PROGRAMS   *        TOTAL   CCSD(T)    HF-SCF       INT   CCSD(T)    HF-SCF       INT   CCSD(T)    HF-SCF       INT
 CPU TIMES  *       772.33     96.87     12.01      0.24    112.60     13.21      0.21    508.72     13.88     14.34
 REAL TIME  *       797.48 SEC
 DISK USED  *       570.36 MB (local),        8.02 GB (total)
 SF USED    *       504.31 MB
 GA USED    *         0.00 MB       (max)       0.00 MB       (current)
 **********************************************************************************************************************************
 Molecular orbitals read from record     2102.2  Type=RHF/CANONICAL (state 1.1)
 Occupation numbers read from record     2102.2  Type=RHF/RHF (state 1.1)
 Orbital energies read from record       2102.2  Type=RHF/CANONICAL (state 1.1)
 Redundancy group numbers read from rec  2102.2  Type=RHF/RHF (state 1.1)

 CCSD(T)/aug-cc-pVTZ energy=    -40.439931689823

         CCSD(T)          HF-SCF         CCSD(T)          HF-SCF         CCSD(T)          HF-SCF
    -40.43993169    -40.21327434    -76.34148113    -76.05770067   -116.78169705   -116.27038055
 **********************************************************************************************************************************
 Molpro calculation terminated
