
 Primary working directories    : /scratch/klimes/383087/molpro.tvNUpxUDFk
 Secondary working directories  : /scratch/klimes/383087/molpro.tvNUpxUDFk
 Wavefunction directory         : /scratch/klimes/383087/
 Main file repository           : /scratch/klimes/383087/molpro.tvNUpxUDFk/

 id        : karlovklimes

 Nodes                      nprocs
 nc-20.cc.karlov.mff.cuni.cz    4

 Using customized tuning parameters: mindgm=1; mindgv=20; mindgc=4; mindgr=1; noblas=0; minvec=7
 default implementation of scratch files=sf  


 Variables initialized (930), CPU time= 0.01 sec
                                                                                 !gdirect
 memory,2000,m
 gthresh,orbital=1d-10,energy=1d-10,grid=1d-8
 
 symmetry,nosym
 angstrom
 geometry={
 O5        -0.319200000000      2.341100000000      3.764400000000
 H9         0.407500000000      2.568500000000      4.358500000000
 H10        -0.153000000000      1.405800000000      3.495900000000
 C1        -3.277200000000      1.482500000000      1.271900000000
 H41        -2.464000000000      0.899600000000      1.651000000000
 H42        -3.160800000000      2.501000000000      1.578500000000
 H43        -4.201800000000      1.099200000000      1.650100000000
 H44        -3.268500000000      1.421000000000      0.203700000000
 }
 
 nkerna=1
 nkernb=1
 
 gf=0
 sing=1
 thrdum=1d-4
 gridthr=1d-8
 
 basis={
 set,orbital
 default,avtz
 set,jkfit
 default,avqz/jkfit
 set,mp2fit
 default,avqz/mp2fit
 set,ri
 default,avqz/optri
 set,tddft
 default,avqz/mp2fit
 }
 
 proc set_monomer1
 dummy,4,5,6,7,8
 endproc
 
 proc set_monomer2
 dummy,1,2,3
 endproc
 
                                                                                 !1234 energy
 {hf,accu=1.d-16}
 ccsd(t)
 
 set_monomer1
 {hf,accu=1.d-16}
 ccsd(t)
 
 set_monomer2
 {hf,accu=1.d-16}
 ccsd(t)
 
 Commands  initialized (760), CPU time= 0.01 sec, 617 directives.
 Default parameters read. Elapsed time= 0.24 sec

 Checking input...
 Passed
1


                                         ***  PROGRAM SYSTEM MOLPRO  ***
                                       Copyright, TTI GmbH Stuttgart, 2015
                                    Version 2019.1 linked Jan 14 2019 13:09:19


 **********************************************************************************************************************************
 LABEL *                                                                                 
  64 bit mpp version                                                                     DATE: 11-Mar-20          TIME: 12:52:29  
 **********************************************************************************************************************************

 SHA1:             d688ac825633d238f2093ded1675ba87ccd55965
 **********************************************************************************************************************************

 THRESHOLDS:

 ZERO    =  1.00D-12  ONEINT  =  1.00D-12  TWOINT  =  1.00D-11  PREFAC  =  1.00D-14  XXXXXX  =  1.00D-09  EORDER  =  1.00D-04
 ENERGY  =  1.00D-10  ETEST   =  0.00D+00  EDENS   =  0.00D+00  THRDEDEF=  1.00D-06  GRADIENT=  1.00D-02  STEP    =  1.00D-03
 ORBITAL =  1.00D-10  CIVEC   =  1.00D-05  COEFF   =  1.00D-04  PRINTCI =  5.00D-02  PUNCHCI =  9.90D+01  OPTGRAD =  3.00D-04
 OPTENERG=  1.00D-06  OPTSTEP =  3.00D-04  THRGRAD =  1.00D-10  COMPRESS=  1.00D-11  VARMIN  =  1.00D-07  VARMAX  =  1.00D-03
 THRDOUB =  0.00D+00  THRDIV  =  1.00D-05  THRRED  =  1.00D-07  THRPSP  =  1.00D+00  THRDC   =  1.00D-10  THRCS   =  1.00D-10
 THRNRM  =  1.00D-08  THREQ   =  0.00D+00  THRDE   =  1.00D+00  THRREF  =  1.00D-05  SPARFAC =  1.00D+00  THRDLP  =  1.00D-07
 THRDIA  =  1.00D-10  THRDLS  =  1.00D-07  THRGPS  =  0.00D+00  THRKEX  =  0.00D+00  THRDIS  =  2.00D-01  THRVAR  =  1.00D-10
 THRLOC  =  1.00D-06  THRGAP  =  1.00D-06  THRLOCT = -1.00D+00  THRGAPT = -1.00D+00  THRORB  =  1.00D-06  THRMLTP =  0.00D+00
 THRCPQCI=  1.00D-10  KEXTA   =  0.00D+00  THRCOARS=  0.00D+00  SYMTOL  =  1.00D-06  GRADTOL =  1.00D-06  THROVL  =  1.00D-08
 THRORTH =  1.00D-08  GRID    =  1.00D-08  GRIDMAX =  1.00D-03  DTMAX   =  0.00D+00  THROCCDE=  1.00D-01  THROCCDE=  1.00D-01
 THRPRINT=  2.50D-01


 Variable memory set to 2000000000 words,  buffer space 

 ZSYMEL=NOSYM
 ZUNIT=ANG


Geometry recognized as XYZ

 SETTING NKERNA         =         1.00000000                                  
 SETTING NKERNB         =         1.00000000                                  
 SETTING GF             =     0.00000000D+00                                  
 SETTING SING           =         1.00000000                                  
 SETTING THRDUM         =     1.00000000D-04                                  
 SETTING GRIDTHR        =     1.00000000D-08                                  
 SETTING BASIS          =    AVTZ


 Recomputing integrals since basis changed


 Using spherical harmonics

 Library entry O      S aug-cc-pVTZ          selected for orbital group  1
 Library entry O      P aug-cc-pVTZ          selected for orbital group  1
 Library entry O      D aug-cc-pVTZ          selected for orbital group  1
 Library entry O      F aug-cc-pVTZ          selected for orbital group  1
 Library entry H      S aug-cc-pVTZ          selected for orbital group  2
 Library entry H      P aug-cc-pVTZ          selected for orbital group  2
 Library entry H      D aug-cc-pVTZ          selected for orbital group  2
 Library entry C      S aug-cc-pVTZ          selected for orbital group  3
 Library entry C      P aug-cc-pVTZ          selected for orbital group  3
 Library entry C      D aug-cc-pVTZ          selected for orbital group  3
 Library entry C      F aug-cc-pVTZ          selected for orbital group  3


 PROGRAM * SEWARD (Integral evaluation for generally contracted gaussian basis sets)     Author: Roland Lindh, 1990

 Geometry written to block  1 of record 700


 Point group  C1  



 ATOMIC COORDINATES

 NR  ATOM    CHARGE       X              Y              Z

   1  O5      8.00   -0.603200579    4.424037830    7.113685023
   2  H9      1.00    0.770063396    4.853761551    8.236371314
   3  H10     1.00   -0.289128097    2.656576986    6.606293559
   4  C1      6.00   -6.193010455    2.801518980    2.403542658
   5  H41     1.00   -4.656285171    1.699997622    3.119937832
   6  H42     1.00   -5.973046335    4.726205038    2.982932688
   7  H43     1.00   -7.940251230    2.077186956    3.118237078
   8  H44     1.00   -6.176569838    2.685300823    0.384937212

 Bond lengths in Bohr (Angstrom)

 1-2  1.825086553  1-3  1.865477274  4-5  2.021904040  4-6  2.022002335  4-7  2.021953343
     ( 0.965794212)     ( 0.987168061)     ( 1.069945541)     ( 1.069997556)     ( 1.069971630)

 4-8  2.022015060
     ( 1.070004290)

 Bond angles

  2-1-3  105.29057030   5-4-6  109.53398059   5-4-7  109.65604535   5-4-8  108.43490854

  6-4-7  109.49436728   6-4-8  109.86987750   7-4-8  109.83468330

 NUCLEAR CHARGE:                   20
 NUMBER OF PRIMITIVE AOS:         296
 NUMBER OF SYMMETRY AOS:          266
 NUMBER OF CONTRACTIONS:          230   (  230A   )
 NUMBER OF CORE ORBITALS:           2   (    2A   )
 NUMBER OF VALENCE ORBITALS:       14   (   14A   )


 NUCLEAR REPULSION ENERGY   35.83278858


 Basis set:  JKFIT                   
 Basis size:   740
 Attributes:
 Sphericals:   T
 Basis set:  MP2FIT                  
 Basis size:   816
 Attributes:
 Sphericals:   T
 Basis set:  RI                      
 Basis size:   556
 Attributes:
 Sphericals:   T
 Basis set:  TDDFT                   
 Basis size:   816
 Attributes:
 Sphericals:   T

 **********************************************************************************************************************************


 Eigenvalues of metric

         1 0.664E-04 0.841E-04 0.103E-03 0.105E-03 0.331E-03 0.354E-03 0.702E-03 0.745E-03


 Contracted 2-electron integrals neglected if value below      1.0D-14
 AO integral compression algorithm  1   Integral accuracy      1.0D-14

     2078.278 MB (compressed) written to integral file ( 64.8%)

     Node minimum: 494.666 MB, node maximum: 540.279 MB


 NUMBER OF SORTED TWO-ELECTRON INTEGRALS:   88219044.     BUFFER LENGTH:  32768
 NUMBER OF SEGMENTS:   6  SEGMENT LENGTH:   15998348      RECORD LENGTH: 524288

 Memory used in sort:      16.56 MW

 SORT1 READ   400769927. AND WROTE    79457379. INTEGRALS IN    231 RECORDS. CPU TIME:     7.49 SEC, REAL TIME:     8.59 SEC
 SORT2 READ   318349129. AND WROTE   352862895. INTEGRALS IN   8244 RECORDS. CPU TIME:     1.98 SEC, REAL TIME:     2.60 SEC

 Node minimum:    88205762.  Node maximum:    88225686. integrals

 OPERATOR DM      FOR CENTER  0  COORDINATES:    0.000000    0.000000    0.000000


 **********************************************************************************************************************************
 DATASETS  * FILE   NREC   LENGTH (MB)   RECORD NAMES
              1      18       32.04       500      610      700      900      950      970     1000      129      960     1100   
                                          VAR    BASINP    GEOM    SYMINP    ZMAT    AOBASIS   BASIS     P2S    ABASIS      S 
                                         1400     1410     1200     1210     1080     1600     1650     1700   
                                           T        V       H0       H01     AOSYM     SMH    MOLCAS    OPER   

 PROGRAMS   *        TOTAL       INT
 CPU TIMES  *        14.23     14.01
 REAL TIME  *        19.02 SEC
 DISK USED  *        32.49 MB (local),        5.99 GB (total)
 GA USED    *         0.00 MB       (max)       0.00 MB       (current)
 **********************************************************************************************************************************


 PROGRAM * RHF-SCF (CLOSED SHELL)       Authors: W. Meyer, H.-J. Werner


 NUMBER OF ELECTRONS:      10+   10-    SPACE SYMMETRY=1    SPIN SYMMETRY: Singlet 
 CONVERGENCE THRESHOLDS:    1.00E-08 (Density)    1.00E-11 (Energy)
 MAX. NUMBER OF ITERATIONS:       60
 INTERPOLATION TYPE:            DIIS
 INTERPOLATION STEPS:              2 (START)      1 (STEP)
 LEVEL SHIFTS:                  0.00 (CLOSED)  0.00 (OPEN) 



 Orbital guess generated from atomic densities. Full valence occupancy:   16

 Molecular orbital dump at record        2100.2

 Initial occupancy:  10

 ITERATION    DDIFF          GRAD             ENERGY        2-EL.EN.            DIPOLE MOMENTS         DIIS   ORB.
    1      0.000D+00      0.000D+00      -116.21329996    157.367796    0.86685   -0.69297    0.31078    0    start
    2      0.000D+00      0.523D-02      -116.25730390    152.345947    0.51572   -0.35586    0.20948    1    diag
    3      0.551D-02      0.308D-02      -116.27075306    154.414797    0.60463   -0.43924    0.23569    2    diag
    4      0.182D-02      0.452D-03      -116.27140270    154.302978    0.59640   -0.43220    0.23271    3    diag
    5      0.394D-03      0.132D-03      -116.27146888    154.297749    0.59620   -0.43132    0.23297    4    diag
    6      0.145D-03      0.321D-04      -116.27147253    154.303561    0.59566   -0.43075    0.23281    5    diag
    7      0.413D-04      0.608D-05      -116.27147274    154.302085    0.59566   -0.43075    0.23281    6    diag
    8      0.111D-04      0.151D-05      -116.27147275    154.302220    0.59562   -0.43069    0.23281    7    diag
    9      0.204D-05      0.350D-06      -116.27147275    154.302196    0.59560   -0.43068    0.23280    8    diag
   10      0.700D-06      0.400D-07      -116.27147275    154.302197    0.59560   -0.43068    0.23280    9    orth
   11      0.560D-07      0.959D-08      -116.27147275    154.302198    0.59560   -0.43068    0.23280    9    diag
   12      0.221D-07      0.249D-08      -116.27147275    154.302198    0.59560   -0.43068    0.23280    9    diag
   13      0.358D-08      0.668D-09      -116.27147275    154.302198    0.59560   -0.43068    0.23280    0    orth

 Final occupancy:  10

 !RHF STATE  1.1 Energy              -116.271472754726
 Nuclear energy                        35.83278858
 One-electron energy                 -229.25536043
 Two-electron energy                   77.15109909
 Virial quotient                       -1.00104163
 !RHF STATE  1.1 Dipole moment          0.59560323    -0.43067629     0.23280063
 Dipole moment /Debye                   1.51377325    -1.09459826     0.59168141

 Orbital energies:

         1.1          2.1          3.1          4.1          5.1          6.1          7.1          8.1          9.1         10.1
    -20.570299   -11.190904    -1.343615    -0.944272    -0.709156    -0.580063    -0.545550    -0.542415    -0.541595    -0.508714

        11.1         12.1
      0.027449     0.039841


 HOMO     10.1    -0.508714 =     -13.8428eV
 LUMO     11.1     0.027449 =       0.7469eV
 LUMO-HOMO         0.536162 =      14.5897eV


 **********************************************************************************************************************************
 DATASETS  * FILE   NREC   LENGTH (MB)   RECORD NAMES
              1      18       32.04       500      610      700      900      950      970     1000      129      960     1100   
                                          VAR    BASINP    GEOM    SYMINP    ZMAT    AOBASIS   BASIS     P2S    ABASIS      S 
                                         1400     1410     1200     1210     1080     1600     1650     1700   
                                           T        V       H0       H01     AOSYM     SMH    MOLCAS    OPER   

              2       4        3.96       700     1000      520     2100   
                                         GEOM     BASIS   MCVARS     RHF  

 PROGRAMS   *        TOTAL    HF-SCF       INT
 CPU TIMES  *        28.23     13.99     14.01
 REAL TIME  *        34.23 SEC
 DISK USED  *        39.90 MB (local),        6.02 GB (total)
 SF USED    *         0.21 MB
 GA USED    *         0.00 MB       (max)       0.00 MB       (current)
 **********************************************************************************************************************************

 Basis set:  JKFIT                   
 Basis size:   740
 Attributes:
 Sphericals:   T
 Basis set:  MP2FIT                  
 Basis size:   816
 Attributes:
 Sphericals:   T
 Basis set:  RI                      
 Basis size:   556
 Attributes:
 Sphericals:   T
 Basis set:  TDDFT                   
 Basis size:   816
 Attributes:
 Sphericals:   T

 PROGRAM * CCSD (Closed-shell coupled cluster)     Authors: C. Hampel, H.-J. Werner, 1991, M. Deegan, P.J. Knowles, 1992


 Convergence thresholds:  THRVAR = 1.00D-08  THRDEN = 1.00D-10

 CCSD(T)     terms to be evaluated (factor= 1.000)


 Number of core orbitals:           2 (   2 )
 Number of closed-shell orbitals:   8 (   8 )
 Number of external orbitals:     220 ( 220 )

 Molecular orbitals read from record     2100.2  Type=RHF/CANONICAL (state 1.1)

 Number of N-1 electron functions:               8
 Number of N-2 electron functions:              36
 Number of singly external CSFs:              1760
 Number of doubly external CSFs:           1549680
 Total number of CSFs:                     1551441

 Length of J-op  integral file:               0.00 MB
 Length of K-op  integral file:               3.65 MB
 Length of 3-ext integral record:             0.00 MB

 Memory could be reduced to 116.39 Mwords without degradation in triples

 Integral transformation finished. Total CPU:  23.74 sec, npass=  1  Memory used:  59.35 MW

 Reference energy:                   -116.27147275

 MP2 singlet pair energy:              -0.31727825
 MP2 triplet pair energy:              -0.15364572
 MP2 correlation energy:               -0.47092396
 MP2 total energy:                   -116.74239672

 SCS-MP2 correlation energy:           -0.47633568   (PS=  1.200000  PT=  0.333333)
 SCS-MP2 total energy:               -116.74780843

 ITER.      SQ.NORM     CORR.ENERGY   TOTAL ENERGY   ENERGY CHANGE        DEN1      VAR(S)    VAR(P)  DIIS     TIME  TIME/IT
   1      1.13530459    -0.49359581  -116.76506857    -0.02267185    -0.01146498  0.14D-02  0.20D-02  1  1    37.78    14.09
   2      1.14434462    -0.49500757  -116.76648032    -0.00141176    -0.01035306  0.22D-04  0.24D-03  2  2    51.99    14.26
   3      1.14733984    -0.49513973  -116.76661248    -0.00013216    -0.00196747  0.14D-04  0.11D-04  3  3    66.16    14.30
   4      1.14814427    -0.49514122  -116.76661397    -0.00000149    -0.00036196  0.57D-06  0.11D-05  4  4    80.35    14.34
   5      1.14829920    -0.49513845  -116.76661120     0.00000277    -0.00004946  0.19D-06  0.75D-07  5  5    94.55    14.36
   6      1.14834601    -0.49513389  -116.76660665     0.00000455    -0.00001166  0.16D-07  0.46D-08  6  6   108.84    14.39
   7      1.14835386    -0.49513334  -116.76660610     0.00000055    -0.00000071  0.11D-08  0.74D-09  6  2   123.05    14.40
   8      1.14835551    -0.49513321  -116.76660597     0.00000013     0.00000001  0.21D-09  0.70D-10  6  1   137.19    14.40
   9      1.14835620    -0.49513316  -116.76660591     0.00000006     0.00000000  0.17D-10  0.10D-10  6  3   151.40    14.41
  10      1.14835634    -0.49513315  -116.76660590     0.00000001     0.00000001  0.24D-11  0.14D-11  6  4   165.60    14.41
  11      1.14835627    -0.49513316  -116.76660591    -0.00000001     0.00000006  0.43D-12  0.22D-12  6  6   179.74    14.42
  12      1.14835625    -0.49513316  -116.76660591    -0.00000000     0.00000002  0.73D-13  0.23D-13  6  5   193.99    14.42
  13      1.14835624    -0.49513316  -116.76660591    -0.00000000     0.00000000  0.13D-13  0.35D-14  6  2   208.20    14.42
  14      1.14835624    -0.49513316  -116.76660591    -0.00000000     0.00000000  0.15D-14  0.89D-15  6  1   222.42    14.42
  15      1.14835624    -0.49513316  -116.76660591     0.00000000    -0.00000000  0.12D-15  0.80D-16  6  3   236.56    14.42
  16      1.14835624    -0.49513316  -116.76660591    -0.00000000    -0.00000000  0.13D-16  0.10D-16  6  4   250.84    14.43

 Norm of t1 vector:      0.05100210      S-energy:     0.00000000      T1 diagnostic:  0.00901598
                                                                       D1 diagnostic:  0.02210076


 Total CPU time for triples:    216.90 sec


 RESULTS
 =======

  Reference energy                   -116.271472754727
  CCSD singlet pair energy             -0.354335441788
  CCSD triplet pair energy             -0.140797717890
  CCSD correlation energy              -0.495133159668

  Triples (T) contribution             -0.015328447166
  Total correlation energy             -0.510461606834

  CCSD total energy                  -116.766605914395
  CCSD[T] energy                     -116.782456615545
  CCSD-T energy                      -116.781683416165
 !CCSD(T) total energy               -116.781934361561

 Timing summary (sec):

 STEP                 CPU(USER)    SYS     CPU(TOT)    WALL
 Transformation         23.93      0.87     24.80     24.87
 CCSD iterations       226.93      3.71    230.64    230.91
 Triples               216.90      1.09    217.99    218.24

 Program statistics:

 Available memory in ccsd:              1999999734
 Min. memory needed in ccsd:               4617529
 Max. memory used in ccsd:                 5944569
 Max. memory used in cckext:               4248553 (16 integral passes)



 **********************************************************************************************************************************
 DATASETS  * FILE   NREC   LENGTH (MB)   RECORD NAMES
              1      19      398.13       500      610      700      900      950      970     1000      129      960     1100   
                                          VAR    BASINP    GEOM    SYMINP    ZMAT    AOBASIS   BASIS     P2S    ABASIS      S 
                                         1400     1410     1200     1210     1080     1600     1650     1700     1380   
                                           T        V       H0       H01     AOSYM     SMH    MOLCAS    OPER     JKOP   

              2       4        3.96       700     1000      520     2100   
                                         GEOM     BASIS   MCVARS     RHF  

 PROGRAMS   *        TOTAL   CCSD(T)    HF-SCF       INT
 CPU TIMES  *       496.20    467.97     13.99     14.01
 REAL TIME  *       509.01 SEC
 DISK USED  *       570.36 MB (local),        7.63 GB (total)
 SF USED    *       504.31 MB
 GA USED    *         0.00 MB       (max)       0.00 MB       (current)
 **********************************************************************************************************************************

 Running procedure: SET_MONOMER1

 Dummy atoms: C1  H41  H42  H43  H44


 Recomputing one-electron integrals since nuclear charges changed


 PROGRAM * SEWARD (Integral evaluation for generally contracted gaussian basis sets)     Author: Roland Lindh, 1990

 Geometry written to block  1 of record 700


 Point group  C1  



 ATOMIC COORDINATES

 NR  ATOM    CHARGE       X              Y              Z

   1  O5      8.00   -0.603200579    4.424037830    7.113685023
   2  H9      1.00    0.770063396    4.853761551    8.236371314
   3  H10     1.00   -0.289128097    2.656576986    6.606293559
   4  C1      0.00   -6.193010455    2.801518980    2.403542658
   5  H41     0.00   -4.656285171    1.699997622    3.119937832
   6  H42     0.00   -5.973046335    4.726205038    2.982932688
   7  H43     0.00   -7.940251230    2.077186956    3.118237078
   8  H44     0.00   -6.176569838    2.685300823    0.384937212

 Bond lengths in Bohr (Angstrom)

 1-2  1.825086553  1-3  1.865477274  4-5  2.021904040  4-6  2.022002335  4-7  2.021953343
     ( 0.965794212)     ( 0.987168061)     ( 1.069945541)     ( 1.069997556)     ( 1.069971630)

 4-8  2.022015060
     ( 1.070004290)

 Bond angles

  2-1-3  105.29057030   5-4-6  109.53398059   5-4-7  109.65604535   5-4-8  108.43490854

  6-4-7  109.49436728   6-4-8  109.86987750   7-4-8  109.83468330

 NUCLEAR CHARGE:                   10
 NUMBER OF PRIMITIVE AOS:         296
 NUMBER OF SYMMETRY AOS:          266
 NUMBER OF CONTRACTIONS:          230   (  230A   )
 NUMBER OF CORE ORBITALS:           1   (    1A   )
 NUMBER OF VALENCE ORBITALS:        6   (    6A   )

 MOLECULE CHANGED: INITIALIZING OCCUPATION AND DUMP RECORDS


 NUCLEAR REPULSION ENERGY    9.01266574

 Basis set:  JKFIT                   
 Basis size:   740
 Attributes:
 Sphericals:   T
 Basis set:  MP2FIT                  
 Basis size:   816
 Attributes:
 Sphericals:   T
 Basis set:  RI                      
 Basis size:   556
 Attributes:
 Sphericals:   T
 Basis set:  TDDFT                   
 Basis size:   816
 Attributes:
 Sphericals:   T

 Eigenvalues of metric

         1 0.664E-04 0.841E-04 0.103E-03 0.105E-03 0.331E-03 0.354E-03 0.702E-03 0.745E-03


 Contracted 2-electron integrals neglected if value below      1.0D-14

 OPERATOR DM      FOR CENTER  0  COORDINATES:    0.000000    0.000000    0.000000


 **********************************************************************************************************************************
 DATASETS  * FILE   NREC   LENGTH (MB)   RECORD NAMES
              1      18       32.04       500      610      700      900      950      970     1000      129      960     1100   
                                          VAR    BASINP    GEOM    SYMINP    ZMAT    AOBASIS   BASIS     P2S    ABASIS      S 
                                         1400     1410     1200     1210     1080     1600     1650     1700   
                                           T        V       H0       H01     AOSYM     SMH    MOLCAS    OPER   

              2       5        5.05       700     1000      520     2100      200   
                                         GEOM     BASIS   MCVARS     RHF    OPTIONS    

 PROGRAMS   *        TOTAL       INT   CCSD(T)    HF-SCF       INT
 CPU TIMES  *       496.43      0.23    467.97     13.99     14.01
 REAL TIME  *       509.77 SEC
 DISK USED  *       570.36 MB (local),        7.64 GB (total)
 SF USED    *       504.31 MB
 GA USED    *         0.00 MB       (max)       0.00 MB       (current)
 **********************************************************************************************************************************


 PROGRAM * RHF-SCF (CLOSED SHELL)       Authors: W. Meyer, H.-J. Werner


 NUMBER OF ELECTRONS:       5+    5-    SPACE SYMMETRY=1    SPIN SYMMETRY: Singlet 
 CONVERGENCE THRESHOLDS:    1.00E-08 (Density)    1.00E-11 (Energy)
 MAX. NUMBER OF ITERATIONS:       60
 INTERPOLATION TYPE:            DIIS
 INTERPOLATION STEPS:              2 (START)      1 (STEP)
 LEVEL SHIFTS:                  0.00 (CLOSED)  0.00 (OPEN) 



 Orbital guess generated from atomic densities. Full valence occupancy:    7

 Molecular orbital dump at record        2101.2

 Initial occupancy:   5

 ITERATION    DDIFF          GRAD             ENERGY        2-EL.EN.            DIPOLE MOMENTS         DIIS   ORB.
    1      0.000D+00      0.000D+00       -76.02029160     77.398436    0.86269   -0.69132    0.31157    0    start
    2      0.000D+00      0.640D-02       -76.04694096     73.773546    0.50503   -0.39787    0.18519    1    diag
    3      0.443D-02      0.407D-02       -76.05826488     75.375077    0.59419   -0.46954    0.21731    2    diag
    4      0.159D-02      0.376D-03       -76.05845545     75.285761    0.59129   -0.46587    0.21681    3    diag
    5      0.204D-03      0.104D-03       -76.05847535     75.299836    0.59022   -0.46446    0.21665    4    diag
    6      0.633D-04      0.203D-04       -76.05847659     75.298969    0.59005   -0.46414    0.21666    5    diag
    7      0.159D-04      0.401D-05       -76.05847665     75.299096    0.58997   -0.46403    0.21665    6    diag
    8      0.408D-05      0.743D-06       -76.05847665     75.299081    0.58994   -0.46401    0.21664    7    diag
    9      0.669D-06      0.949D-07       -76.05847665     75.299072    0.58994   -0.46400    0.21664    8    diag
   10      0.799D-07      0.237D-07       -76.05847665     75.299075    0.58994   -0.46400    0.21664    9    orth
   11      0.201D-07      0.491D-08       -76.05847665     75.299075    0.58994   -0.46400    0.21664    9    diag
   12      0.489D-08      0.918D-09       -76.05847665     75.299075    0.58994   -0.46400    0.21664    0    orth

 Final occupancy:   5

 !RHF STATE  1.1 Energy               -76.058476648400
 Nuclear energy                         9.01266574
 One-electron energy                 -122.72067968
 Two-electron energy                   37.64953730
 Virial quotient                       -1.00230136
 !RHF STATE  1.1 Dipole moment          0.58993845    -0.46400267     0.21664369
 Dipole moment /Debye                   1.49937575    -1.17929990     0.55061728

 Orbital energies:

         1.1          2.1          3.1          4.1          5.1          6.1          7.1
    -20.570176    -1.343443    -0.708899    -0.579709    -0.508576     0.023944     0.036038


 HOMO      5.1    -0.508576 =     -13.8390eV
 LUMO      6.1     0.023944 =       0.6516eV
 LUMO-HOMO         0.532520 =      14.4906eV


 **********************************************************************************************************************************
 DATASETS  * FILE   NREC   LENGTH (MB)   RECORD NAMES
              1      18       32.04       500      610      700      900      950      970     1000      129      960     1100   
                                          VAR    BASINP    GEOM    SYMINP    ZMAT    AOBASIS   BASIS     P2S    ABASIS      S 
                                         1400     1410     1200     1210     1080     1600     1650     1700   
                                           T        V       H0       H01     AOSYM     SMH    MOLCAS    OPER   

              2       6        9.09       700     1000      520     2100      200     2101   
                                         GEOM     BASIS   MCVARS     RHF    OPTIONS    RHF  

 PROGRAMS   *        TOTAL    HF-SCF       INT   CCSD(T)    HF-SCF       INT
 CPU TIMES  *       509.54     13.11      0.23    467.97     13.99     14.01
 REAL TIME  *       523.88 SEC
 DISK USED  *       570.36 MB (local),        7.64 GB (total)
 SF USED    *       504.31 MB
 GA USED    *         0.00 MB       (max)       0.00 MB       (current)
 **********************************************************************************************************************************

 Basis set:  JKFIT                   
 Basis size:   740
 Attributes:
 Sphericals:   T
 Basis set:  MP2FIT                  
 Basis size:   816
 Attributes:
 Sphericals:   T
 Basis set:  RI                      
 Basis size:   556
 Attributes:
 Sphericals:   T
 Basis set:  TDDFT                   
 Basis size:   816
 Attributes:
 Sphericals:   T

 PROGRAM * CCSD (Closed-shell coupled cluster)     Authors: C. Hampel, H.-J. Werner, 1991, M. Deegan, P.J. Knowles, 1992


 Convergence thresholds:  THRVAR = 1.00D-08  THRDEN = 1.00D-10

 CCSD(T)     terms to be evaluated (factor= 1.000)


 Number of core orbitals:           1 (   1 )
 Number of closed-shell orbitals:   4 (   4 )
 Number of external orbitals:     225 ( 225 )

 Molecular orbitals read from record     2101.2  Type=RHF/CANONICAL (state 1.1)

 Number of N-1 electron functions:               4
 Number of N-2 electron functions:              10
 Number of singly external CSFs:               900
 Number of doubly external CSFs:            405450
 Total number of CSFs:                      406351

 Length of J-op  integral file:               0.00 MB
 Length of K-op  integral file:               3.65 MB
 Length of 3-ext integral record:             0.00 MB

 Memory could be reduced to 75.63 Mwords without degradation in triples

 Integral transformation finished. Total CPU:  12.24 sec, npass=  1  Memory used:  32.52 MW

 Reference energy:                    -76.05847665

 MP2 singlet pair energy:              -0.17168075
 MP2 triplet pair energy:              -0.09821754
 MP2 correlation energy:               -0.26989829
 MP2 total energy:                    -76.32837494

 SCS-MP2 correlation energy:           -0.26713004   (PS=  1.200000  PT=  0.333333)
 SCS-MP2 total energy:                -76.32560668

 ITER.      SQ.NORM     CORR.ENERGY   TOTAL ENERGY   ENERGY CHANGE        DEN1      VAR(S)    VAR(P)  DIIS     TIME  TIME/IT
   1      1.06408132    -0.27405251   -76.33252916    -0.00415422     0.00158604  0.93D-03  0.10D-02  1  1    16.06     3.86
   2      1.06792846    -0.27436113   -76.33283778    -0.00030863    -0.00492397  0.12D-04  0.13D-03  2  2    19.96     3.92
   3      1.06938166    -0.27444555   -76.33292220    -0.00008441    -0.00093630  0.11D-04  0.58D-05  3  3    23.76     3.93
   4      1.06985875    -0.27443895   -76.33291560     0.00000659    -0.00021922  0.49D-06  0.69D-06  4  4    27.58     3.95
   5      1.06996329    -0.27443600   -76.33291264     0.00000296    -0.00003244  0.15D-06  0.43D-07  5  5    31.35     3.95
   6      1.06999994    -0.27443245   -76.33290910     0.00000354    -0.00000758  0.12D-07  0.27D-08  6  6    35.19     3.96
   7      1.07000643    -0.27443220   -76.33290885     0.00000025    -0.00000073  0.86D-09  0.49D-09  6  1    39.05     3.96
   8      1.07000752    -0.27443217   -76.33290881     0.00000003     0.00000032  0.14D-09  0.54D-10  6  2    42.97     3.97
   9      1.07000804    -0.27443212   -76.33290876     0.00000005     0.00000001  0.12D-10  0.58D-11  6  3    46.78     3.97
  10      1.07000812    -0.27443211   -76.33290876     0.00000001     0.00000001  0.24D-11  0.81D-12  6  4    50.63     3.97
  11      1.07000809    -0.27443212   -76.33290876    -0.00000001     0.00000003  0.45D-12  0.15D-12  6  6    54.49     3.97
  12      1.07000809    -0.27443212   -76.33290876    -0.00000000     0.00000001  0.65D-13  0.21D-13  6  5    58.36     3.97
  13      1.07000807    -0.27443212   -76.33290877    -0.00000000     0.00000000  0.85D-14  0.31D-14  6  1    62.21     3.97
  14      1.07000807    -0.27443212   -76.33290877    -0.00000000     0.00000000  0.93D-15  0.60D-15  6  2    66.06     3.97
  15      1.07000807    -0.27443212   -76.33290877     0.00000000    -0.00000000  0.85D-16  0.63D-16  6  3    69.84     3.97
  16      1.07000807    -0.27443212   -76.33290877    -0.00000000    -0.00000000  0.11D-16  0.80D-17  6  4    73.70     3.97

 Norm of t1 vector:      0.04119535      S-energy:    -0.00000000      T1 diagnostic:  0.01029884
                                                                       D1 diagnostic:  0.02190320


 Total CPU time for triples:     34.37 sec


 RESULTS
 =======

  Reference energy                    -76.058476648400
  CCSD singlet pair energy             -0.187496290289
  CCSD triplet pair energy             -0.086935827487
  CCSD correlation energy              -0.274432117790

  Triples (T) contribution             -0.008821173192
  Total correlation energy             -0.283253290982

  CCSD total energy                   -76.332908766190
  CCSD[T] energy                      -76.342065826781
  CCSD-T energy                       -76.341549167295
 !CCSD(T) total energy                -76.341729939382

 Timing summary (sec):

 STEP                 CPU(USER)    SYS     CPU(TOT)    WALL
 Transformation         12.30      0.55     12.85     12.86
 CCSD iterations        61.40      2.00     63.40     63.55
 Triples                34.37      0.21     34.58     34.61

 Program statistics:

 Available memory in ccsd:              1999999921
 Min. memory needed in ccsd:               1865022
 Max. memory used in ccsd:                 2159652
 Max. memory used in cckext:               1451153 (16 integral passes)



 **********************************************************************************************************************************
 DATASETS  * FILE   NREC   LENGTH (MB)   RECORD NAMES
              1      19      222.33       500      610      700      900      950      970     1000      129      960     1100   
                                          VAR    BASINP    GEOM    SYMINP    ZMAT    AOBASIS   BASIS     P2S    ABASIS      S 
                                         1400     1410     1200     1210     1080     1600     1650     1700     1380   
                                           T        V       H0       H01     AOSYM     SMH    MOLCAS    OPER     JKOP   

              2       6        9.09       700     1000      520     2100      200     2101   
                                         GEOM     BASIS   MCVARS     RHF    OPTIONS    RHF  

 PROGRAMS   *        TOTAL   CCSD(T)    HF-SCF       INT   CCSD(T)    HF-SCF       INT
 CPU TIMES  *       617.82    108.27     13.11      0.23    467.97     13.99     14.01
 REAL TIME  *       635.61 SEC
 DISK USED  *       570.36 MB (local),        7.64 GB (total)
 SF USED    *       504.31 MB
 GA USED    *         0.00 MB       (max)       0.00 MB       (current)
 **********************************************************************************************************************************

 Running procedure: SET_MONOMER2

 Dummy atoms: O5  H9  H10


 Recomputing one-electron integrals since nuclear charges changed


 PROGRAM * SEWARD (Integral evaluation for generally contracted gaussian basis sets)     Author: Roland Lindh, 1990

 Geometry written to block  1 of record 700


 Point group  C1  



 ATOMIC COORDINATES

 NR  ATOM    CHARGE       X              Y              Z

   1  O5      0.00   -0.603200579    4.424037830    7.113685023
   2  H9      0.00    0.770063396    4.853761551    8.236371314
   3  H10     0.00   -0.289128097    2.656576986    6.606293559
   4  C1      6.00   -6.193010455    2.801518980    2.403542658
   5  H41     1.00   -4.656285171    1.699997622    3.119937832
   6  H42     1.00   -5.973046335    4.726205038    2.982932688
   7  H43     1.00   -7.940251230    2.077186956    3.118237078
   8  H44     1.00   -6.176569838    2.685300823    0.384937212

 Bond lengths in Bohr (Angstrom)

 1-2  1.825086553  1-3  1.865477274  4-5  2.021904040  4-6  2.022002335  4-7  2.021953343
     ( 0.965794212)     ( 0.987168061)     ( 1.069945541)     ( 1.069997556)     ( 1.069971630)

 4-8  2.022015060
     ( 1.070004290)

 Bond angles

  2-1-3  105.29057030   5-4-6  109.53398059   5-4-7  109.65604535   5-4-8  108.43490854

  6-4-7  109.49436728   6-4-8  109.86987750   7-4-8  109.83468330

 NUCLEAR CHARGE:                   10
 NUMBER OF PRIMITIVE AOS:         296
 NUMBER OF SYMMETRY AOS:          266
 NUMBER OF CONTRACTIONS:          230   (  230A   )
 NUMBER OF CORE ORBITALS:           1   (    1A   )
 NUMBER OF VALENCE ORBITALS:        8   (    8A   )

 MOLECULE CHANGED: INITIALIZING OCCUPATION AND DUMP RECORDS


 NUCLEAR REPULSION ENERGY   13.68681606

 Basis set:  JKFIT                   
 Basis size:   740
 Attributes:
 Sphericals:   T
 Basis set:  MP2FIT                  
 Basis size:   816
 Attributes:
 Sphericals:   T
 Basis set:  RI                      
 Basis size:   556
 Attributes:
 Sphericals:   T
 Basis set:  TDDFT                   
 Basis size:   816
 Attributes:
 Sphericals:   T

 Eigenvalues of metric

         1 0.664E-04 0.841E-04 0.103E-03 0.105E-03 0.331E-03 0.354E-03 0.702E-03 0.745E-03


 Contracted 2-electron integrals neglected if value below      1.0D-14

 OPERATOR DM      FOR CENTER  0  COORDINATES:    0.000000    0.000000    0.000000


 **********************************************************************************************************************************
 DATASETS  * FILE   NREC   LENGTH (MB)   RECORD NAMES
              1      18       32.04       500      610      700      900      950      970     1000      129      960     1100   
                                          VAR    BASINP    GEOM    SYMINP    ZMAT    AOBASIS   BASIS     P2S    ABASIS      S 
                                         1400     1410     1200     1210     1080     1600     1650     1700   
                                           T        V       H0       H01     AOSYM     SMH    MOLCAS    OPER   

              2       6        9.09       700     1000      520     2100      200     2101   
                                         GEOM     BASIS   MCVARS     RHF    OPTIONS    RHF  

 PROGRAMS   *        TOTAL       INT   CCSD(T)    HF-SCF       INT   CCSD(T)    HF-SCF       INT
 CPU TIMES  *       618.07      0.25    108.27     13.11      0.23    467.97     13.99     14.01
 REAL TIME  *       636.34 SEC
 DISK USED  *       570.36 MB (local),        7.64 GB (total)
 SF USED    *       504.31 MB
 GA USED    *         0.00 MB       (max)       0.00 MB       (current)
 **********************************************************************************************************************************


 PROGRAM * RHF-SCF (CLOSED SHELL)       Authors: W. Meyer, H.-J. Werner


 NUMBER OF ELECTRONS:       5+    5-    SPACE SYMMETRY=1    SPIN SYMMETRY: Singlet 
 CONVERGENCE THRESHOLDS:    1.00E-08 (Density)    1.00E-11 (Energy)
 MAX. NUMBER OF ITERATIONS:       60
 INTERPOLATION TYPE:            DIIS
 INTERPOLATION STEPS:              2 (START)      1 (STEP)
 LEVEL SHIFTS:                  0.00 (CLOSED)  0.00 (OPEN) 



 Orbital guess generated from atomic densities. Full valence occupancy:    9

 Molecular orbital dump at record        2102.2

 Initial occupancy:   5

 ITERATION    DDIFF          GRAD             ENERGY        2-EL.EN.            DIPOLE MOMENTS         DIIS   ORB.
    1      0.000D+00      0.000D+00       -40.19358564     53.494043    0.00410   -0.00277   -0.00131    0    start
    2      0.000D+00      0.353D-02       -40.21070238     52.213707    0.00129   -0.00090   -0.00039    1    diag
    3      0.323D-02      0.137D-02       -40.21295067     52.664870    0.00182   -0.00126   -0.00056    2    diag
    4      0.896D-03      0.342D-03       -40.21326608     52.609843    0.00162   -0.00112   -0.00049    3    diag
    5      0.298D-03      0.443D-04       -40.21327147     52.612184    0.00159   -0.00110   -0.00048    4    diag
    6      0.834D-04      0.344D-05       -40.21327151     52.612281    0.00159   -0.00110   -0.00048    5    diag
    7      0.679D-05      0.264D-06       -40.21327151     52.612246    0.00159   -0.00110   -0.00048    6    diag
    8      0.102D-05      0.221D-07       -40.21327151     52.612247    0.00159   -0.00110   -0.00048    7    diag
    9      0.188D-06      0.286D-08       -40.21327151     52.612247    0.00159   -0.00110   -0.00048    8    diag
   10      0.102D-07      0.798D-09       -40.21327151     52.612247    0.00159   -0.00110   -0.00048    9    orth
   11      0.122D-08      0.106D-09       -40.21327151     52.612247    0.00159   -0.00110   -0.00048    0    orth

 Final occupancy:   5

 !RHF STATE  1.1 Energy               -40.213271507594
 Nuclear energy                        13.68681606
 One-electron energy                  -80.20621101
 Two-electron energy                   26.30612345
 Virial quotient                       -0.99870182
 !RHF STATE  1.1 Dipole moment          0.00158577    -0.00110285    -0.00047943
 Dipole moment /Debye                   0.00403035    -0.00280298    -0.00121851

 Orbital energies:

         1.1          2.1          3.1          4.1          5.1          6.1          7.1
    -11.197206    -0.950741    -0.551695    -0.549759    -0.547581     0.026349     0.039533


 HOMO      5.1    -0.547581 =     -14.9004eV
 LUMO      6.1     0.026349 =       0.7170eV
 LUMO-HOMO         0.573930 =      15.6174eV


 **********************************************************************************************************************************
 DATASETS  * FILE   NREC   LENGTH (MB)   RECORD NAMES
              1      18       32.04       500      610      700      900      950      970     1000      129      960     1100   
                                          VAR    BASINP    GEOM    SYMINP    ZMAT    AOBASIS   BASIS     P2S    ABASIS      S 
                                         1400     1410     1200     1210     1080     1600     1650     1700   
                                           T        V       H0       H01     AOSYM     SMH    MOLCAS    OPER   

              2       7       13.71       700     1000      520     2100      200     2101     2102   
                                         GEOM     BASIS   MCVARS     RHF    OPTIONS    RHF      RHF  

 PROGRAMS   *        TOTAL    HF-SCF       INT   CCSD(T)    HF-SCF       INT   CCSD(T)    HF-SCF       INT
 CPU TIMES  *       630.23     12.15      0.25    108.27     13.11      0.23    467.97     13.99     14.01
 REAL TIME  *       649.37 SEC
 DISK USED  *       570.36 MB (local),        7.64 GB (total)
 SF USED    *       504.31 MB
 GA USED    *         0.00 MB       (max)       0.00 MB       (current)
 **********************************************************************************************************************************

 Basis set:  JKFIT                   
 Basis size:   740
 Attributes:
 Sphericals:   T
 Basis set:  MP2FIT                  
 Basis size:   816
 Attributes:
 Sphericals:   T
 Basis set:  RI                      
 Basis size:   556
 Attributes:
 Sphericals:   T
 Basis set:  TDDFT                   
 Basis size:   816
 Attributes:
 Sphericals:   T

 PROGRAM * CCSD (Closed-shell coupled cluster)     Authors: C. Hampel, H.-J. Werner, 1991, M. Deegan, P.J. Knowles, 1992


 Convergence thresholds:  THRVAR = 1.00D-08  THRDEN = 1.00D-10

 CCSD(T)     terms to be evaluated (factor= 1.000)


 Number of core orbitals:           1 (   1 )
 Number of closed-shell orbitals:   4 (   4 )
 Number of external orbitals:     225 ( 225 )

 Molecular orbitals read from record     2102.2  Type=RHF/CANONICAL (state 1.1)

 Number of N-1 electron functions:               4
 Number of N-2 electron functions:              10
 Number of singly external CSFs:               900
 Number of doubly external CSFs:            405450
 Total number of CSFs:                      406351

 Length of J-op  integral file:               0.00 MB
 Length of K-op  integral file:               3.65 MB
 Length of 3-ext integral record:             0.00 MB

 Memory could be reduced to 75.63 Mwords without degradation in triples

 Integral transformation finished. Total CPU:  12.26 sec, npass=  1  Memory used:  32.52 MW

 Reference energy:                    -40.21327151

 MP2 singlet pair energy:              -0.14544478
 MP2 triplet pair energy:              -0.05506356
 MP2 correlation energy:               -0.20050834
 MP2 total energy:                    -40.41377985

 SCS-MP2 correlation energy:           -0.20879551   (PS=  1.200000  PT=  0.333333)
 SCS-MP2 total energy:                -40.42206702

 ITER.      SQ.NORM     CORR.ENERGY   TOTAL ENERGY   ENERGY CHANGE        DEN1      VAR(S)    VAR(P)  DIIS     TIME  TIME/IT
   1      1.07101028    -0.21905725   -40.43232876    -0.01854891    -0.01309579  0.46D-03  0.10D-02  1  1    16.10     3.88
   2      1.07650387    -0.22015843   -40.43342993    -0.00110117    -0.00567813  0.13D-04  0.71D-04  2  2    19.92     3.94
   3      1.07773201    -0.22021177   -40.43348328    -0.00005335    -0.00078779  0.16D-05  0.48D-05  3  3    23.80     3.96
   4      1.07803603    -0.22022077   -40.43349228    -0.00000900    -0.00012816  0.92D-07  0.22D-06  4  4    27.70     3.97
   5      1.07808223    -0.22021970   -40.43349121     0.00000107    -0.00001887  0.57D-08  0.16D-07  5  5    31.58     3.98
   6      1.07808706    -0.22021891   -40.43349041     0.00000079    -0.00000155  0.45D-09  0.11D-08  6  6    35.45     3.99
   7      1.07808776    -0.22021876   -40.43349027     0.00000015    -0.00000033  0.31D-10  0.87D-10  6  1    39.33     3.99
   8      1.07808779    -0.22021880   -40.43349030    -0.00000004     0.00000012  0.26D-11  0.48D-11  6  2    43.23     3.99
   9      1.07808780    -0.22021880   -40.43349030    -0.00000000     0.00000002  0.27D-12  0.44D-12  6  3    46.95     4.00
  10      1.07808780    -0.22021880   -40.43349030     0.00000000     0.00000001  0.26D-13  0.47D-13  6  4    50.90     4.00
  11      1.07808779    -0.22021880   -40.43349030     0.00000000     0.00000001  0.21D-14  0.47D-14  6  5    54.71     4.00
  12      1.07808779    -0.22021880   -40.43349030     0.00000000     0.00000000  0.45D-16  0.55D-15  6  6    58.61     4.00
  13      1.07808778    -0.22021880   -40.43349030    -0.00000000     0.00000000  0.72D-17  0.59D-16  6  1    62.45     4.00
  14      1.07808778    -0.22021880   -40.43349030    -0.00000000     0.00000000  0.14D-17  0.76D-17  6  2    66.39     4.00

 Norm of t1 vector:      0.02946860      S-energy:     0.00000000      T1 diagnostic:  0.00736715
                                                                       D1 diagnostic:  0.01186393

 Total CPU time for triples:     34.34 sec


 RESULTS
 =======

  Reference energy                    -40.213271507594
  CCSD singlet pair energy             -0.166725459110
  CCSD triplet pair energy             -0.053493336191
  CCSD correlation energy              -0.220218795277

  Triples (T) contribution             -0.006422514738
  Total correlation energy             -0.226641310014

  CCSD total energy                   -40.433490302870
  CCSD[T] energy                      -40.440095337096
  CCSD-T energy                       -40.439844921031
 !CCSD(T) total energy                -40.439912817608

 Timing summary (sec):

 STEP                 CPU(USER)    SYS     CPU(TOT)    WALL
 Transformation         12.31      0.45     12.76     12.78
 CCSD iterations        54.10      1.82     55.92     56.10
 Triples                34.34      0.19     34.53     34.58

 Program statistics:

 Available memory in ccsd:              1999999916
 Min. memory needed in ccsd:               1865022
 Max. memory used in ccsd:                 2159652
 Max. memory used in cckext:               1451153 (14 integral passes)



 **********************************************************************************************************************************
 DATASETS  * FILE   NREC   LENGTH (MB)   RECORD NAMES
              1      19      222.33       500      610      700      900      950      970     1000      129      960     1100   
                                          VAR    BASINP    GEOM    SYMINP    ZMAT    AOBASIS   BASIS     P2S    ABASIS      S 
                                         1400     1410     1200     1210     1080     1600     1650     1700     1380   
                                           T        V       H0       H01     AOSYM     SMH    MOLCAS    OPER     JKOP   

              2       7       13.71       700     1000      520     2100      200     2101     2102   
                                         GEOM     BASIS   MCVARS     RHF    OPTIONS    RHF      RHF  

 PROGRAMS   *        TOTAL   CCSD(T)    HF-SCF       INT   CCSD(T)    HF-SCF       INT   CCSD(T)    HF-SCF       INT
 CPU TIMES  *       731.23    100.99     12.15      0.25    108.27     13.11      0.23    467.97     13.99     14.01
 REAL TIME  *       753.54 SEC
 DISK USED  *       570.36 MB (local),        7.64 GB (total)
 SF USED    *       504.31 MB
 GA USED    *         0.00 MB       (max)       0.00 MB       (current)
 **********************************************************************************************************************************
 Molecular orbitals read from record     2102.2  Type=RHF/CANONICAL (state 1.1)
 Occupation numbers read from record     2102.2  Type=RHF/RHF (state 1.1)
 Orbital energies read from record       2102.2  Type=RHF/CANONICAL (state 1.1)
 Redundancy group numbers read from rec  2102.2  Type=RHF/RHF (state 1.1)

 CCSD(T)/aug-cc-pVTZ energy=    -40.439912817608

         CCSD(T)          HF-SCF         CCSD(T)          HF-SCF         CCSD(T)          HF-SCF
    -40.43991282    -40.21327151    -76.34172994    -76.05847665   -116.78193436   -116.27147275
 **********************************************************************************************************************************
 Molpro calculation terminated
