
 Primary working directories    : /scratch/klimes/383088/molpro.3SRdsWPHjK
 Secondary working directories  : /scratch/klimes/383088/molpro.3SRdsWPHjK
 Wavefunction directory         : /scratch/klimes/383088/
 Main file repository           : /scratch/klimes/383088/molpro.3SRdsWPHjK/

 id        : karlovklimes

 Nodes                      nprocs
 nc-02.cc.karlov.mff.cuni.cz    4

 Using customized tuning parameters: mindgm=1; mindgv=20; mindgc=4; mindgr=1; noblas=0; minvec=7
 default implementation of scratch files=sf  


 Variables initialized (930), CPU time= 0.01 sec
                                                                                 !gdirect
 memory,2000,m
 gthresh,orbital=1d-10,energy=1d-10,grid=1d-8
 
 symmetry,nosym
 angstrom
 geometry={
 O6        -0.534600000000      4.167800000000      1.543100000000
 H11        -0.433700000000      3.518000000000      2.262500000000
 H12        -0.341300000000      3.668400000000      0.725200000000
 C1        -3.277200000000      1.482500000000      1.271900000000
 H41        -2.464000000000      0.899600000000      1.651000000000
 H42        -3.160800000000      2.501000000000      1.578500000000
 H43        -4.201800000000      1.099200000000      1.650100000000
 H44        -3.268500000000      1.421000000000      0.203700000000
 }
 
 nkerna=1
 nkernb=1
 
 gf=0
 sing=1
 thrdum=1d-4
 gridthr=1d-8
 
 basis={
 set,orbital
 default,avtz
 set,jkfit
 default,avqz/jkfit
 set,mp2fit
 default,avqz/mp2fit
 set,ri
 default,avqz/optri
 set,tddft
 default,avqz/mp2fit
 }
 
 proc set_monomer1
 dummy,4,5,6,7,8
 endproc
 
 proc set_monomer2
 dummy,1,2,3
 endproc
 
                                                                                 !1234 energy
 {hf,accu=1.d-16}
 ccsd(t)
 
 set_monomer1
 {hf,accu=1.d-16}
 ccsd(t)
 
 set_monomer2
 {hf,accu=1.d-16}
 ccsd(t)
 
 Commands  initialized (760), CPU time= 0.02 sec, 617 directives.
 Default parameters read. Elapsed time= 0.20 sec

 Checking input...
 Passed
1


                                         ***  PROGRAM SYSTEM MOLPRO  ***
                                       Copyright, TTI GmbH Stuttgart, 2015
                                    Version 2019.1 linked Jan 14 2019 13:09:19


 **********************************************************************************************************************************
 LABEL *                                                                                 
  64 bit mpp version                                                                     DATE: 11-Mar-20          TIME: 12:52:29  
 **********************************************************************************************************************************

 SHA1:             d688ac825633d238f2093ded1675ba87ccd55965
 **********************************************************************************************************************************

 THRESHOLDS:

 ZERO    =  1.00D-12  ONEINT  =  1.00D-12  TWOINT  =  1.00D-11  PREFAC  =  1.00D-14  XXXXXX  =  1.00D-09  EORDER  =  1.00D-04
 ENERGY  =  1.00D-10  ETEST   =  0.00D+00  EDENS   =  0.00D+00  THRDEDEF=  1.00D-06  GRADIENT=  1.00D-02  STEP    =  1.00D-03
 ORBITAL =  1.00D-10  CIVEC   =  1.00D-05  COEFF   =  1.00D-04  PRINTCI =  5.00D-02  PUNCHCI =  9.90D+01  OPTGRAD =  3.00D-04
 OPTENERG=  1.00D-06  OPTSTEP =  3.00D-04  THRGRAD =  1.00D-10  COMPRESS=  1.00D-11  VARMIN  =  1.00D-07  VARMAX  =  1.00D-03
 THRDOUB =  0.00D+00  THRDIV  =  1.00D-05  THRRED  =  1.00D-07  THRPSP  =  1.00D+00  THRDC   =  1.00D-10  THRCS   =  1.00D-10
 THRNRM  =  1.00D-08  THREQ   =  0.00D+00  THRDE   =  1.00D+00  THRREF  =  1.00D-05  SPARFAC =  1.00D+00  THRDLP  =  1.00D-07
 THRDIA  =  1.00D-10  THRDLS  =  1.00D-07  THRGPS  =  0.00D+00  THRKEX  =  0.00D+00  THRDIS  =  2.00D-01  THRVAR  =  1.00D-10
 THRLOC  =  1.00D-06  THRGAP  =  1.00D-06  THRLOCT = -1.00D+00  THRGAPT = -1.00D+00  THRORB  =  1.00D-06  THRMLTP =  0.00D+00
 THRCPQCI=  1.00D-10  KEXTA   =  0.00D+00  THRCOARS=  0.00D+00  SYMTOL  =  1.00D-06  GRADTOL =  1.00D-06  THROVL  =  1.00D-08
 THRORTH =  1.00D-08  GRID    =  1.00D-08  GRIDMAX =  1.00D-03  DTMAX   =  0.00D+00  THROCCDE=  1.00D-01  THROCCDE=  1.00D-01
 THRPRINT=  2.50D-01


 Variable memory set to 2000000000 words,  buffer space 

 ZSYMEL=NOSYM
 ZUNIT=ANG


Geometry recognized as XYZ

 SETTING NKERNA         =         1.00000000                                  
 SETTING NKERNB         =         1.00000000                                  
 SETTING GF             =     0.00000000D+00                                  
 SETTING SING           =         1.00000000                                  
 SETTING THRDUM         =     1.00000000D-04                                  
 SETTING GRIDTHR        =     1.00000000D-08                                  
 SETTING BASIS          =    AVTZ


 Recomputing integrals since basis changed


 Using spherical harmonics

 Library entry O      S aug-cc-pVTZ          selected for orbital group  1
 Library entry O      P aug-cc-pVTZ          selected for orbital group  1
 Library entry O      D aug-cc-pVTZ          selected for orbital group  1
 Library entry O      F aug-cc-pVTZ          selected for orbital group  1
 Library entry H      S aug-cc-pVTZ          selected for orbital group  2
 Library entry H      P aug-cc-pVTZ          selected for orbital group  2
 Library entry H      D aug-cc-pVTZ          selected for orbital group  2
 Library entry C      S aug-cc-pVTZ          selected for orbital group  3
 Library entry C      P aug-cc-pVTZ          selected for orbital group  3
 Library entry C      D aug-cc-pVTZ          selected for orbital group  3
 Library entry C      F aug-cc-pVTZ          selected for orbital group  3


 PROGRAM * SEWARD (Integral evaluation for generally contracted gaussian basis sets)     Author: Roland Lindh, 1990

 Geometry written to block  1 of record 700


 Point group  C1  



 ATOMIC COORDINATES

 NR  ATOM    CHARGE       X              Y              Z

   1  O6      8.00   -1.010247586    7.876000542    2.916036383
   2  H11     1.00   -0.819574220    6.648056506    4.275505357
   3  H12     1.00   -0.644963526    6.932271315    1.370429386
   4  C1      6.00   -6.193010455    2.801518980    2.403542658
   5  H41     1.00   -4.656285171    1.699997622    3.119937832
   6  H42     1.00   -5.973046335    4.726205038    2.982932688
   7  H43     1.00   -7.940251230    2.077186956    3.118237078
   8  H44     1.00   -6.176569838    2.685300823    0.384937212

 Bond lengths in Bohr (Angstrom)

 1-2  1.841835709  1-3  1.847419359  4-5  2.021904040  4-6  2.022002335  4-7  2.021953343
     ( 0.974657483)     ( 0.977612224)     ( 1.069945541)     ( 1.069997556)     ( 1.069971630)

 4-8  2.022015060
     ( 1.070004290)

 Bond angles

  2-1-3  104.86126985   5-4-6  109.53398059   5-4-7  109.65604535   5-4-8  108.43490854

  6-4-7  109.49436728   6-4-8  109.86987750   7-4-8  109.83468330

 NUCLEAR CHARGE:                   20
 NUMBER OF PRIMITIVE AOS:         296
 NUMBER OF SYMMETRY AOS:          266
 NUMBER OF CONTRACTIONS:          230   (  230A   )
 NUMBER OF CORE ORBITALS:           2   (    2A   )
 NUMBER OF VALENCE ORBITALS:       14   (   14A   )


 NUCLEAR REPULSION ENERGY   36.57703656


 Basis set:  JKFIT                   
 Basis size:   740
 Attributes:
 Sphericals:   T
 Basis set:  MP2FIT                  
 Basis size:   816
 Attributes:
 Sphericals:   T
 Basis set:  RI                      
 Basis size:   556
 Attributes:
 Sphericals:   T
 Basis set:  TDDFT                   
 Basis size:   816
 Attributes:
 Sphericals:   T

 **********************************************************************************************************************************


 Eigenvalues of metric

         1 0.611E-04 0.699E-04 0.938E-04 0.103E-03 0.334E-03 0.392E-03 0.621E-03 0.744E-03


 Contracted 2-electron integrals neglected if value below      1.0D-14
 AO integral compression algorithm  1   Integral accuracy      1.0D-14

     2229.797 MB (compressed) written to integral file ( 69.5%)

     Node minimum: 521.929 MB, node maximum: 584.319 MB


 NUMBER OF SORTED TWO-ELECTRON INTEGRALS:   88219044.     BUFFER LENGTH:  32768
 NUMBER OF SEGMENTS:   6  SEGMENT LENGTH:   15998348      RECORD LENGTH: 524288

 Memory used in sort:      16.56 MW

 SORT1 READ   400769927. AND WROTE    82633868. INTEGRALS IN    239 RECORDS. CPU TIME:     9.80 SEC, REAL TIME:    11.49 SEC
 SORT2 READ   330507529. AND WROTE   352862895. INTEGRALS IN   8492 RECORDS. CPU TIME:     2.41 SEC, REAL TIME:     3.88 SEC

 Node minimum:    88205762.  Node maximum:    88225686. integrals

 OPERATOR DM      FOR CENTER  0  COORDINATES:    0.000000    0.000000    0.000000


 **********************************************************************************************************************************
 DATASETS  * FILE   NREC   LENGTH (MB)   RECORD NAMES
              1      18       32.04       500      610      700      900      950      970     1000      129      960     1100   
                                          VAR    BASINP    GEOM    SYMINP    ZMAT    AOBASIS   BASIS     P2S    ABASIS      S 
                                         1400     1410     1200     1210     1080     1600     1650     1700   
                                           T        V       H0       H01     AOSYM     SMH    MOLCAS    OPER   

 PROGRAMS   *        TOTAL       INT
 CPU TIMES  *        17.62     17.39
 REAL TIME  *        25.43 SEC
 DISK USED  *        32.49 MB (local),        6.27 GB (total)
 GA USED    *         0.00 MB       (max)       0.00 MB       (current)
 **********************************************************************************************************************************


 PROGRAM * RHF-SCF (CLOSED SHELL)       Authors: W. Meyer, H.-J. Werner


 NUMBER OF ELECTRONS:      10+   10-    SPACE SYMMETRY=1    SPIN SYMMETRY: Singlet 
 CONVERGENCE THRESHOLDS:    1.00E-08 (Density)    1.00E-11 (Energy)
 MAX. NUMBER OF ITERATIONS:       60
 INTERPOLATION TYPE:            DIIS
 INTERPOLATION STEPS:              2 (START)      1 (STEP)
 LEVEL SHIFTS:                  0.00 (CLOSED)  0.00 (OPEN) 



 Orbital guess generated from atomic densities. Full valence occupancy:   16

 Molecular orbital dump at record        2100.2

 Initial occupancy:  10

 ITERATION    DDIFF          GRAD             ENERGY        2-EL.EN.            DIPOLE MOMENTS         DIIS   ORB.
    1      0.000D+00      0.000D+00      -116.21445434    158.524079    0.29103   -1.11226   -0.09784    0    start
    2      0.000D+00      0.521D-02      -116.25803177    153.739526    0.13556   -0.62498   -0.05752    1    diag
    3      0.549D-02      0.305D-02      -116.27119993    155.731209    0.17612   -0.74544   -0.06691    2    diag
    4      0.182D-02      0.452D-03      -116.27184617    155.620379    0.17436   -0.73399   -0.06533    3    diag
    5      0.402D-03      0.132D-03      -116.27191238    155.614439    0.17367   -0.73321   -0.06505    4    diag
    6      0.141D-03      0.323D-04      -116.27191612    155.620350    0.17335   -0.73236   -0.06488    5    diag
    7      0.396D-04      0.628D-05      -116.27191634    155.618765    0.17333   -0.73236   -0.06486    6    diag
    8      0.109D-04      0.158D-05      -116.27191636    155.618910    0.17329   -0.73229   -0.06484    7    diag
    9      0.237D-05      0.352D-06      -116.27191636    155.618885    0.17329   -0.73228   -0.06484    8    diag
   10      0.743D-06      0.412D-07      -116.27191636    155.618887    0.17329   -0.73228   -0.06484    9    orth
   11      0.585D-07      0.104D-07      -116.27191636    155.618888    0.17329   -0.73228   -0.06484    9    diag
   12      0.226D-07      0.268D-08      -116.27191636    155.618888    0.17329   -0.73228   -0.06484    9    diag
   13      0.442D-08      0.691D-09      -116.27191636    155.618888    0.17329   -0.73228   -0.06484    0    orth

 Final occupancy:  10

 !RHF STATE  1.1 Energy              -116.271916360804
 Nuclear energy                        36.57703656
 One-electron energy                 -230.65839714
 Two-electron energy                   77.80944423
 Virial quotient                       -1.00101085
 !RHF STATE  1.1 Dipole moment          0.17328986    -0.73227704    -0.06484110
 Dipole moment /Debye                   0.44043004    -1.86114068    -0.16479885

 Orbital energies:

         1.1          2.1          3.1          4.1          5.1          6.1          7.1          8.1          9.1         10.1
    -20.569686   -11.199479    -1.343436    -0.953466    -0.707861    -0.580507    -0.554426    -0.552444    -0.550866    -0.507583

        11.1         12.1
      0.025535     0.041001


 HOMO     10.1    -0.507583 =     -13.8120eV
 LUMO     11.1     0.025535 =       0.6948eV
 LUMO-HOMO         0.533118 =      14.5069eV


 **********************************************************************************************************************************
 DATASETS  * FILE   NREC   LENGTH (MB)   RECORD NAMES
              1      18       32.04       500      610      700      900      950      970     1000      129      960     1100   
                                          VAR    BASINP    GEOM    SYMINP    ZMAT    AOBASIS   BASIS     P2S    ABASIS      S 
                                         1400     1410     1200     1210     1080     1600     1650     1700   
                                           T        V       H0       H01     AOSYM     SMH    MOLCAS    OPER   

              2       4        3.96       700     1000      520     2100   
                                         GEOM     BASIS   MCVARS     RHF  

 PROGRAMS   *        TOTAL    HF-SCF       INT
 CPU TIMES  *        31.74     14.12     17.39
 REAL TIME  *        41.57 SEC
 DISK USED  *        39.90 MB (local),        6.30 GB (total)
 SF USED    *         0.21 MB
 GA USED    *         0.00 MB       (max)       0.00 MB       (current)
 **********************************************************************************************************************************

 Basis set:  JKFIT                   
 Basis size:   740
 Attributes:
 Sphericals:   T
 Basis set:  MP2FIT                  
 Basis size:   816
 Attributes:
 Sphericals:   T
 Basis set:  RI                      
 Basis size:   556
 Attributes:
 Sphericals:   T
 Basis set:  TDDFT                   
 Basis size:   816
 Attributes:
 Sphericals:   T

 PROGRAM * CCSD (Closed-shell coupled cluster)     Authors: C. Hampel, H.-J. Werner, 1991, M. Deegan, P.J. Knowles, 1992


 Convergence thresholds:  THRVAR = 1.00D-08  THRDEN = 1.00D-10

 CCSD(T)     terms to be evaluated (factor= 1.000)


 Number of core orbitals:           2 (   2 )
 Number of closed-shell orbitals:   8 (   8 )
 Number of external orbitals:     220 ( 220 )

 Molecular orbitals read from record     2100.2  Type=RHF/CANONICAL (state 1.1)

 Number of N-1 electron functions:               8
 Number of N-2 electron functions:              36
 Number of singly external CSFs:              1760
 Number of doubly external CSFs:           1549680
 Total number of CSFs:                     1551441

 Length of J-op  integral file:               0.00 MB
 Length of K-op  integral file:               3.65 MB
 Length of 3-ext integral record:             0.00 MB

 Memory could be reduced to 116.39 Mwords without degradation in triples

 Integral transformation finished. Total CPU:  29.59 sec, npass=  1  Memory used:  59.35 MW

 Reference energy:                   -116.27191636

 MP2 singlet pair energy:              -0.31732160
 MP2 triplet pair energy:              -0.15384185
 MP2 correlation energy:               -0.47116346
 MP2 total energy:                   -116.74307982

 SCS-MP2 correlation energy:           -0.47650974   (PS=  1.200000  PT=  0.333333)
 SCS-MP2 total energy:               -116.74842611

 ITER.      SQ.NORM     CORR.ENERGY   TOTAL ENERGY   ENERGY CHANGE        DEN1      VAR(S)    VAR(P)  DIIS     TIME  TIME/IT
   1      1.13532248    -0.49384701  -116.76576337    -0.02268355    -0.01147751  0.14D-02  0.20D-02  1  1    45.46    16.16
   2      1.14435830    -0.49525951  -116.76717587    -0.00141250    -0.01034670  0.23D-04  0.24D-03  2  2    61.54    16.36
   3      1.14735786    -0.49539016  -116.76730652    -0.00013065    -0.00196964  0.14D-04  0.11D-04  3  3    77.69    16.43
   4      1.14816181    -0.49539099  -116.76730735    -0.00000083    -0.00036281  0.58D-06  0.12D-05  4  4    93.93    16.49
   5      1.14831940    -0.49538828  -116.76730464     0.00000271    -0.00005028  0.21D-06  0.77D-07  5  5   109.99    16.51
   6      1.14836676    -0.49538375  -116.76730011     0.00000453    -0.00001183  0.18D-07  0.55D-08  6  6   126.24    16.54
   7      1.14837495    -0.49538315  -116.76729951     0.00000060    -0.00000081  0.16D-08  0.97D-09  6  2   142.38    16.55
   8      1.14837692    -0.49538300  -116.76729936     0.00000015    -0.00000014  0.32D-09  0.11D-09  6  1   158.50    16.55
   9      1.14837768    -0.49538295  -116.76729931     0.00000004     0.00000014  0.26D-10  0.13D-10  6  3   174.76    16.57
  10      1.14837790    -0.49538293  -116.76729930     0.00000002    -0.00000001  0.28D-11  0.20D-11  6  4   191.02    16.59
  11      1.14837787    -0.49538294  -116.76729930    -0.00000001     0.00000005  0.53D-12  0.26D-12  6  6   207.22    16.59
  12      1.14837785    -0.49538294  -116.76729930    -0.00000000     0.00000002  0.91D-13  0.32D-13  6  5   223.33    16.59
  13      1.14837783    -0.49538294  -116.76729930    -0.00000000     0.00000001  0.16D-13  0.52D-14  6  2   239.56    16.60
  14      1.14837782    -0.49538294  -116.76729931    -0.00000000     0.00000000  0.23D-14  0.11D-14  6  1   255.77    16.60
  15      1.14837782    -0.49538294  -116.76729931    -0.00000000     0.00000000  0.18D-15  0.13D-15  6  3   271.94    16.60
  16      1.14837782    -0.49538294  -116.76729931    -0.00000000    -0.00000000  0.26D-16  0.17D-16  6  4   288.22    16.60
  17      1.14837782    -0.49538294  -116.76729931     0.00000000    -0.00000000  0.38D-17  0.25D-17  6  6   304.34    16.60

 Norm of t1 vector:      0.05122521      S-energy:    -0.00000000      T1 diagnostic:  0.00905542
                                                                       D1 diagnostic:  0.02238935


 Total CPU time for triples:    259.36 sec


 RESULTS
 =======

  Reference energy                   -116.271916360805
  CCSD singlet pair energy             -0.354336568331
  CCSD triplet pair energy             -0.141046376551
  CCSD correlation energy              -0.495382944885

  Triples (T) contribution             -0.015379134053
  Total correlation energy             -0.510762078938

  CCSD total energy                  -116.767299305690
  CCSD[T] energy                     -116.783202260462
  CCSD-T energy                      -116.782426379178
 !CCSD(T) total energy               -116.782678439743

 Timing summary (sec):

 STEP                 CPU(USER)    SYS     CPU(TOT)    WALL
 Transformation         29.76      1.30     31.06     31.20
 CCSD iterations       274.62      7.30    281.92    282.35
 Triples               259.36      2.26    261.62    261.94

 Program statistics:

 Available memory in ccsd:              1999999734
 Min. memory needed in ccsd:               4617529
 Max. memory used in ccsd:                 5944569
 Max. memory used in cckext:               4248553 (17 integral passes)



 **********************************************************************************************************************************
 DATASETS  * FILE   NREC   LENGTH (MB)   RECORD NAMES
              1      19      398.13       500      610      700      900      950      970     1000      129      960     1100   
                                          VAR    BASINP    GEOM    SYMINP    ZMAT    AOBASIS   BASIS     P2S    ABASIS      S 
                                         1400     1410     1200     1210     1080     1600     1650     1700     1380   
                                           T        V       H0       H01     AOSYM     SMH    MOLCAS    OPER     JKOP   

              2       4        3.96       700     1000      520     2100   
                                         GEOM     BASIS   MCVARS     RHF  

 PROGRAMS   *        TOTAL   CCSD(T)    HF-SCF       INT
 CPU TIMES  *       595.72    563.97     14.12     17.39
 REAL TIME  *       617.85 SEC
 DISK USED  *       570.36 MB (local),        7.92 GB (total)
 SF USED    *       504.31 MB
 GA USED    *         0.00 MB       (max)       0.00 MB       (current)
 **********************************************************************************************************************************

 Running procedure: SET_MONOMER1

 Dummy atoms: C1  H41  H42  H43  H44


 Recomputing one-electron integrals since nuclear charges changed


 PROGRAM * SEWARD (Integral evaluation for generally contracted gaussian basis sets)     Author: Roland Lindh, 1990

 Geometry written to block  1 of record 700


 Point group  C1  



 ATOMIC COORDINATES

 NR  ATOM    CHARGE       X              Y              Z

   1  O6      8.00   -1.010247586    7.876000542    2.916036383
   2  H11     1.00   -0.819574220    6.648056506    4.275505357
   3  H12     1.00   -0.644963526    6.932271315    1.370429386
   4  C1      0.00   -6.193010455    2.801518980    2.403542658
   5  H41     0.00   -4.656285171    1.699997622    3.119937832
   6  H42     0.00   -5.973046335    4.726205038    2.982932688
   7  H43     0.00   -7.940251230    2.077186956    3.118237078
   8  H44     0.00   -6.176569838    2.685300823    0.384937212

 Bond lengths in Bohr (Angstrom)

 1-2  1.841835709  1-3  1.847419359  4-5  2.021904040  4-6  2.022002335  4-7  2.021953343
     ( 0.974657483)     ( 0.977612224)     ( 1.069945541)     ( 1.069997556)     ( 1.069971630)

 4-8  2.022015060
     ( 1.070004290)

 Bond angles

  2-1-3  104.86126985   5-4-6  109.53398059   5-4-7  109.65604535   5-4-8  108.43490854

  6-4-7  109.49436728   6-4-8  109.86987750   7-4-8  109.83468330

 NUCLEAR CHARGE:                   10
 NUMBER OF PRIMITIVE AOS:         296
 NUMBER OF SYMMETRY AOS:          266
 NUMBER OF CONTRACTIONS:          230   (  230A   )
 NUMBER OF CORE ORBITALS:           1   (    1A   )
 NUMBER OF VALENCE ORBITALS:        6   (    6A   )

 MOLECULE CHANGED: INITIALIZING OCCUPATION AND DUMP RECORDS


 NUCLEAR REPULSION ENERGY    9.01583577

 Basis set:  JKFIT                   
 Basis size:   740
 Attributes:
 Sphericals:   T
 Basis set:  MP2FIT                  
 Basis size:   816
 Attributes:
 Sphericals:   T
 Basis set:  RI                      
 Basis size:   556
 Attributes:
 Sphericals:   T
 Basis set:  TDDFT                   
 Basis size:   816
 Attributes:
 Sphericals:   T

 Eigenvalues of metric

         1 0.611E-04 0.699E-04 0.938E-04 0.103E-03 0.334E-03 0.392E-03 0.621E-03 0.744E-03


 Contracted 2-electron integrals neglected if value below      1.0D-14

 OPERATOR DM      FOR CENTER  0  COORDINATES:    0.000000    0.000000    0.000000


 **********************************************************************************************************************************
 DATASETS  * FILE   NREC   LENGTH (MB)   RECORD NAMES
              1      18       32.04       500      610      700      900      950      970     1000      129      960     1100   
                                          VAR    BASINP    GEOM    SYMINP    ZMAT    AOBASIS   BASIS     P2S    ABASIS      S 
                                         1400     1410     1200     1210     1080     1600     1650     1700   
                                           T        V       H0       H01     AOSYM     SMH    MOLCAS    OPER   

              2       5        5.05       700     1000      520     2100      200   
                                         GEOM     BASIS   MCVARS     RHF    OPTIONS    

 PROGRAMS   *        TOTAL       INT   CCSD(T)    HF-SCF       INT
 CPU TIMES  *       595.96      0.23    563.97     14.12     17.39
 REAL TIME  *       618.65 SEC
 DISK USED  *       570.36 MB (local),        7.92 GB (total)
 SF USED    *       504.31 MB
 GA USED    *         0.00 MB       (max)       0.00 MB       (current)
 **********************************************************************************************************************************


 PROGRAM * RHF-SCF (CLOSED SHELL)       Authors: W. Meyer, H.-J. Werner


 NUMBER OF ELECTRONS:       5+    5-    SPACE SYMMETRY=1    SPIN SYMMETRY: Singlet 
 CONVERGENCE THRESHOLDS:    1.00E-08 (Density)    1.00E-11 (Energy)
 MAX. NUMBER OF ITERATIONS:       60
 INTERPOLATION TYPE:            DIIS
 INTERPOLATION STEPS:              2 (START)      1 (STEP)
 LEVEL SHIFTS:                  0.00 (CLOSED)  0.00 (OPEN) 



 Orbital guess generated from atomic densities. Full valence occupancy:    7

 Molecular orbital dump at record        2101.2

 Initial occupancy:   5

 ITERATION    DDIFF          GRAD             ENERGY        2-EL.EN.            DIPOLE MOMENTS         DIIS   ORB.
    1      0.000D+00      0.000D+00       -76.02053138     77.399126    0.28483   -1.11213   -0.09631    0    start
    2      0.000D+00      0.640D-02       -76.04720622     73.777747    0.16587   -0.64772   -0.05517    1    diag
    3      0.446D-02      0.407D-02       -76.05852808     75.378618    0.19535   -0.76290   -0.06518    2    diag
    4      0.161D-02      0.376D-03       -76.05871793     75.289208    0.19423   -0.75859   -0.06463    3    diag
    5      0.206D-03      0.104D-03       -76.05873775     75.303358    0.19381   -0.75697   -0.06442    4    diag
    6      0.649D-04      0.202D-04       -76.05873897     75.302495    0.19373   -0.75668   -0.06437    5    diag
    7      0.168D-04      0.399D-05       -76.05873903     75.302621    0.19370   -0.75656   -0.06435    6    diag
    8      0.450D-05      0.735D-06       -76.05873903     75.302607    0.19369   -0.75653   -0.06435    7    diag
    9      0.739D-06      0.923D-07       -76.05873903     75.302598    0.19369   -0.75652   -0.06435    8    diag
   10      0.932D-07      0.224D-07       -76.05873903     75.302601    0.19369   -0.75652   -0.06435    9    orth
   11      0.241D-07      0.410D-08       -76.05873903     75.302600    0.19369   -0.75652   -0.06435    9    diag
   12      0.495D-08      0.602D-09       -76.05873903     75.302600    0.19369   -0.75652   -0.06435    0    orth

 Final occupancy:   5

 !RHF STATE  1.1 Energy               -76.058739030514
 Nuclear energy                         9.01583577
 One-electron energy                 -122.72587501
 Two-electron energy                   37.65130021
 Virial quotient                       -1.00228577
 !RHF STATE  1.1 Dipole moment          0.19368749    -0.75652157    -0.06435054
 Dipole moment /Debye                   0.49227225    -1.92276009    -0.16355204

 Orbital energies:

         1.1          2.1          3.1          4.1          5.1          6.1          7.1
    -20.570298    -1.343778    -0.708221    -0.580620    -0.508720     0.019157     0.038202


 HOMO      5.1    -0.508720 =     -13.8430eV
 LUMO      6.1     0.019157 =       0.5213eV
 LUMO-HOMO         0.527877 =      14.3643eV


 **********************************************************************************************************************************
 DATASETS  * FILE   NREC   LENGTH (MB)   RECORD NAMES
              1      18       32.04       500      610      700      900      950      970     1000      129      960     1100   
                                          VAR    BASINP    GEOM    SYMINP    ZMAT    AOBASIS   BASIS     P2S    ABASIS      S 
                                         1400     1410     1200     1210     1080     1600     1650     1700   
                                           T        V       H0       H01     AOSYM     SMH    MOLCAS    OPER   

              2       6        9.09       700     1000      520     2100      200     2101   
                                         GEOM     BASIS   MCVARS     RHF    OPTIONS    RHF  

 PROGRAMS   *        TOTAL    HF-SCF       INT   CCSD(T)    HF-SCF       INT
 CPU TIMES  *       608.97     13.00      0.23    563.97     14.12     17.39
 REAL TIME  *       633.50 SEC
 DISK USED  *       570.36 MB (local),        7.92 GB (total)
 SF USED    *       504.31 MB
 GA USED    *         0.00 MB       (max)       0.00 MB       (current)
 **********************************************************************************************************************************

 Basis set:  JKFIT                   
 Basis size:   740
 Attributes:
 Sphericals:   T
 Basis set:  MP2FIT                  
 Basis size:   816
 Attributes:
 Sphericals:   T
 Basis set:  RI                      
 Basis size:   556
 Attributes:
 Sphericals:   T
 Basis set:  TDDFT                   
 Basis size:   816
 Attributes:
 Sphericals:   T

 PROGRAM * CCSD (Closed-shell coupled cluster)     Authors: C. Hampel, H.-J. Werner, 1991, M. Deegan, P.J. Knowles, 1992


 Convergence thresholds:  THRVAR = 1.00D-08  THRDEN = 1.00D-10

 CCSD(T)     terms to be evaluated (factor= 1.000)


 Number of core orbitals:           1 (   1 )
 Number of closed-shell orbitals:   4 (   4 )
 Number of external orbitals:     225 ( 225 )

 Molecular orbitals read from record     2101.2  Type=RHF/CANONICAL (state 1.1)

 Number of N-1 electron functions:               4
 Number of N-2 electron functions:              10
 Number of singly external CSFs:               900
 Number of doubly external CSFs:            405450
 Total number of CSFs:                      406351

 Length of J-op  integral file:               0.00 MB
 Length of K-op  integral file:               3.65 MB
 Length of 3-ext integral record:             0.00 MB

 Memory could be reduced to 75.63 Mwords without degradation in triples

 Integral transformation finished. Total CPU:  14.29 sec, npass=  1  Memory used:  32.52 MW

 Reference energy:                    -76.05873903

 MP2 singlet pair energy:              -0.17172400
 MP2 triplet pair energy:              -0.09822771
 MP2 correlation energy:               -0.26995171
 MP2 total energy:                    -76.32869074

 SCS-MP2 correlation energy:           -0.26718827   (PS=  1.200000  PT=  0.333333)
 SCS-MP2 total energy:                -76.32592730

 ITER.      SQ.NORM     CORR.ENERGY   TOTAL ENERGY   ENERGY CHANGE        DEN1      VAR(S)    VAR(P)  DIIS     TIME  TIME/IT
   1      1.06406625    -0.27410172   -76.33284075    -0.00415000     0.00159106  0.93D-03  0.10D-02  1  1    18.29     4.23
   2      1.06790920    -0.27440821   -76.33314724    -0.00030649    -0.00492342  0.11D-04  0.13D-03  2  2    22.30     4.35
   3      1.06935607    -0.27449187   -76.33323090    -0.00008366    -0.00093533  0.11D-04  0.59D-05  3  3    26.44     4.35
   4      1.06982829    -0.27448543   -76.33322446     0.00000644    -0.00021778  0.51D-06  0.72D-06  4  4    30.55     4.35
   5      1.06993409    -0.27448246   -76.33322150     0.00000297    -0.00003336  0.17D-06  0.47D-07  5  5    34.68     4.36
   6      1.06997060    -0.27447908   -76.33321811     0.00000338    -0.00000746  0.16D-07  0.39D-08  6  6    38.79     4.36
   7      1.06997790    -0.27447875   -76.33321778     0.00000033    -0.00000070  0.14D-08  0.80D-09  6  1    42.91     4.37
   8      1.06997972    -0.27447866   -76.33321770     0.00000009    -0.00000011  0.24D-09  0.93D-10  6  2    47.13     4.37
   9      1.06998028    -0.27447863   -76.33321766     0.00000004     0.00000019  0.18D-10  0.82D-11  6  3    51.30     4.37
  10      1.06998046    -0.27447861   -76.33321764     0.00000002    -0.00000002  0.25D-11  0.13D-11  6  4    55.39     4.37
  11      1.06998045    -0.27447861   -76.33321764    -0.00000001     0.00000002  0.55D-12  0.15D-12  6  5    59.43     4.37
  12      1.06998045    -0.27447861   -76.33321764     0.00000000     0.00000000  0.92D-13  0.29D-13  6  6    63.48     4.37
  13      1.06998044    -0.27447862   -76.33321765    -0.00000000     0.00000000  0.14D-13  0.53D-14  6  1    67.52     4.37
  14      1.06998044    -0.27447862   -76.33321765    -0.00000000     0.00000000  0.14D-14  0.65D-15  6  2    71.54     4.36
  15      1.06998044    -0.27447862   -76.33321765    -0.00000000     0.00000000  0.16D-15  0.11D-15  6  3    75.59     4.36
  16      1.06998043    -0.27447862   -76.33321765    -0.00000000     0.00000000  0.32D-16  0.17D-16  6  4    79.64     4.36

 Norm of t1 vector:      0.04109606      S-energy:    -0.00000000      T1 diagnostic:  0.01027401
                                                                       D1 diagnostic:  0.02183971


 Total CPU time for triples:     41.17 sec


 RESULTS
 =======

  Reference energy                    -76.058739030513
  CCSD singlet pair energy             -0.187530941125
  CCSD triplet pair energy             -0.086947674476
  CCSD correlation energy              -0.274478615651

  Triples (T) contribution             -0.008826296928
  Total correlation energy             -0.283304912579

  CCSD total energy                   -76.333217646163
  CCSD[T] energy                      -76.342379583665
  CCSD-T energy                       -76.341863184876
 !CCSD(T) total energy                -76.342043943092

 Timing summary (sec):

 STEP                 CPU(USER)    SYS     CPU(TOT)    WALL
 Transformation         14.34      0.83     15.17     15.19
 CCSD iterations        65.33      4.07     69.40     69.85
 Triples                41.17      0.46     41.63     41.81

 Program statistics:

 Available memory in ccsd:              1999999921
 Min. memory needed in ccsd:               1865022
 Max. memory used in ccsd:                 2159652
 Max. memory used in cckext:               1451153 (16 integral passes)



 **********************************************************************************************************************************
 DATASETS  * FILE   NREC   LENGTH (MB)   RECORD NAMES
              1      19      222.33       500      610      700      900      950      970     1000      129      960     1100   
                                          VAR    BASINP    GEOM    SYMINP    ZMAT    AOBASIS   BASIS     P2S    ABASIS      S 
                                         1400     1410     1200     1210     1080     1600     1650     1700     1380   
                                           T        V       H0       H01     AOSYM     SMH    MOLCAS    OPER     JKOP   

              2       6        9.09       700     1000      520     2100      200     2101   
                                         GEOM     BASIS   MCVARS     RHF    OPTIONS    RHF  

 PROGRAMS   *        TOTAL   CCSD(T)    HF-SCF       INT   CCSD(T)    HF-SCF       INT
 CPU TIMES  *       730.04    121.07     13.00      0.23    563.97     14.12     17.39
 REAL TIME  *       761.07 SEC
 DISK USED  *       570.36 MB (local),        7.92 GB (total)
 SF USED    *       504.31 MB
 GA USED    *         0.00 MB       (max)       0.00 MB       (current)
 **********************************************************************************************************************************

 Running procedure: SET_MONOMER2

 Dummy atoms: O6  H11  H12


 Recomputing one-electron integrals since nuclear charges changed


 PROGRAM * SEWARD (Integral evaluation for generally contracted gaussian basis sets)     Author: Roland Lindh, 1990

 Geometry written to block  1 of record 700


 Point group  C1  



 ATOMIC COORDINATES

 NR  ATOM    CHARGE       X              Y              Z

   1  O6      0.00   -1.010247586    7.876000542    2.916036383
   2  H11     0.00   -0.819574220    6.648056506    4.275505357
   3  H12     0.00   -0.644963526    6.932271315    1.370429386
   4  C1      6.00   -6.193010455    2.801518980    2.403542658
   5  H41     1.00   -4.656285171    1.699997622    3.119937832
   6  H42     1.00   -5.973046335    4.726205038    2.982932688
   7  H43     1.00   -7.940251230    2.077186956    3.118237078
   8  H44     1.00   -6.176569838    2.685300823    0.384937212

 Bond lengths in Bohr (Angstrom)

 1-2  1.841835709  1-3  1.847419359  4-5  2.021904040  4-6  2.022002335  4-7  2.021953343
     ( 0.974657483)     ( 0.977612224)     ( 1.069945541)     ( 1.069997556)     ( 1.069971630)

 4-8  2.022015060
     ( 1.070004290)

 Bond angles

  2-1-3  104.86126985   5-4-6  109.53398059   5-4-7  109.65604535   5-4-8  108.43490854

  6-4-7  109.49436728   6-4-8  109.86987750   7-4-8  109.83468330

 NUCLEAR CHARGE:                   10
 NUMBER OF PRIMITIVE AOS:         296
 NUMBER OF SYMMETRY AOS:          266
 NUMBER OF CONTRACTIONS:          230   (  230A   )
 NUMBER OF CORE ORBITALS:           1   (    1A   )
 NUMBER OF VALENCE ORBITALS:        8   (    8A   )

 MOLECULE CHANGED: INITIALIZING OCCUPATION AND DUMP RECORDS


 NUCLEAR REPULSION ENERGY   13.68681606

 Basis set:  JKFIT                   
 Basis size:   740
 Attributes:
 Sphericals:   T
 Basis set:  MP2FIT                  
 Basis size:   816
 Attributes:
 Sphericals:   T
 Basis set:  RI                      
 Basis size:   556
 Attributes:
 Sphericals:   T
 Basis set:  TDDFT                   
 Basis size:   816
 Attributes:
 Sphericals:   T

 Eigenvalues of metric

         1 0.611E-04 0.699E-04 0.938E-04 0.103E-03 0.334E-03 0.392E-03 0.621E-03 0.744E-03


 Contracted 2-electron integrals neglected if value below      1.0D-14

 OPERATOR DM      FOR CENTER  0  COORDINATES:    0.000000    0.000000    0.000000


 **********************************************************************************************************************************
 DATASETS  * FILE   NREC   LENGTH (MB)   RECORD NAMES
              1      18       32.04       500      610      700      900      950      970     1000      129      960     1100   
                                          VAR    BASINP    GEOM    SYMINP    ZMAT    AOBASIS   BASIS     P2S    ABASIS      S 
                                         1400     1410     1200     1210     1080     1600     1650     1700   
                                           T        V       H0       H01     AOSYM     SMH    MOLCAS    OPER   

              2       6        9.09       700     1000      520     2100      200     2101   
                                         GEOM     BASIS   MCVARS     RHF    OPTIONS    RHF  

 PROGRAMS   *        TOTAL       INT   CCSD(T)    HF-SCF       INT   CCSD(T)    HF-SCF       INT
 CPU TIMES  *       730.27      0.22    121.07     13.00      0.23    563.97     14.12     17.39
 REAL TIME  *       761.82 SEC
 DISK USED  *       570.36 MB (local),        7.92 GB (total)
 SF USED    *       504.31 MB
 GA USED    *         0.00 MB       (max)       0.00 MB       (current)
 **********************************************************************************************************************************


 PROGRAM * RHF-SCF (CLOSED SHELL)       Authors: W. Meyer, H.-J. Werner


 NUMBER OF ELECTRONS:       5+    5-    SPACE SYMMETRY=1    SPIN SYMMETRY: Singlet 
 CONVERGENCE THRESHOLDS:    1.00E-08 (Density)    1.00E-11 (Energy)
 MAX. NUMBER OF ITERATIONS:       60
 INTERPOLATION TYPE:            DIIS
 INTERPOLATION STEPS:              2 (START)      1 (STEP)
 LEVEL SHIFTS:                  0.00 (CLOSED)  0.00 (OPEN) 



 Orbital guess generated from atomic densities. Full valence occupancy:    9

 Molecular orbital dump at record        2102.2

 Initial occupancy:   5

 ITERATION    DDIFF          GRAD             ENERGY        2-EL.EN.            DIPOLE MOMENTS         DIIS   ORB.
    1      0.000D+00      0.000D+00       -40.19358807     53.494043    0.00409   -0.00277   -0.00132    0    start
    2      0.000D+00      0.353D-02       -40.21070565     52.213678    0.00128   -0.00089   -0.00040    1    diag
    3      0.324D-02      0.137D-02       -40.21295415     52.664851    0.00181   -0.00124   -0.00057    2    diag
    4      0.909D-03      0.342D-03       -40.21326963     52.609824    0.00161   -0.00111   -0.00050    3    diag
    5      0.300D-03      0.444D-04       -40.21327502     52.612162    0.00158   -0.00109   -0.00049    4    diag
    6      0.787D-04      0.345D-05       -40.21327506     52.612259    0.00158   -0.00109   -0.00049    5    diag
    7      0.665D-05      0.264D-06       -40.21327506     52.612225    0.00158   -0.00109   -0.00049    6    diag
    8      0.978D-06      0.222D-07       -40.21327506     52.612226    0.00158   -0.00109   -0.00049    7    diag
    9      0.190D-06      0.288D-08       -40.21327506     52.612226    0.00158   -0.00109   -0.00049    8    diag
   10      0.114D-07      0.802D-09       -40.21327506     52.612226    0.00158   -0.00109   -0.00049    9    orth
   11      0.127D-08      0.106D-09       -40.21327506     52.612226    0.00158   -0.00109   -0.00049    0    orth

 Final occupancy:   5

 !RHF STATE  1.1 Energy               -40.213275060775
 Nuclear energy                        13.68681606
 One-electron energy                  -80.20620399
 Two-electron energy                   26.30611288
 Virial quotient                       -0.99870140
 !RHF STATE  1.1 Dipole moment          0.00157923    -0.00109119    -0.00049366
 Dipole moment /Debye                   0.00401373    -0.00277335    -0.00125467

 Orbital energies:

         1.1          2.1          3.1          4.1          5.1          6.1          7.1
    -11.197211    -0.950742    -0.551697    -0.549759    -0.547581     0.027674     0.041088


 HOMO      5.1    -0.547581 =     -14.9004eV
 LUMO      6.1     0.027674 =       0.7531eV
 LUMO-HOMO         0.575255 =      15.6535eV


 **********************************************************************************************************************************
 DATASETS  * FILE   NREC   LENGTH (MB)   RECORD NAMES
              1      18       32.04       500      610      700      900      950      970     1000      129      960     1100   
                                          VAR    BASINP    GEOM    SYMINP    ZMAT    AOBASIS   BASIS     P2S    ABASIS      S 
                                         1400     1410     1200     1210     1080     1600     1650     1700   
                                           T        V       H0       H01     AOSYM     SMH    MOLCAS    OPER   

              2       7       13.71       700     1000      520     2100      200     2101     2102   
                                         GEOM     BASIS   MCVARS     RHF    OPTIONS    RHF      RHF  

 PROGRAMS   *        TOTAL    HF-SCF       INT   CCSD(T)    HF-SCF       INT   CCSD(T)    HF-SCF       INT
 CPU TIMES  *       742.22     11.95      0.22    121.07     13.00      0.23    563.97     14.12     17.39
 REAL TIME  *       775.56 SEC
 DISK USED  *       570.36 MB (local),        7.92 GB (total)
 SF USED    *       504.31 MB
 GA USED    *         0.00 MB       (max)       0.00 MB       (current)
 **********************************************************************************************************************************

 Basis set:  JKFIT                   
 Basis size:   740
 Attributes:
 Sphericals:   T
 Basis set:  MP2FIT                  
 Basis size:   816
 Attributes:
 Sphericals:   T
 Basis set:  RI                      
 Basis size:   556
 Attributes:
 Sphericals:   T
 Basis set:  TDDFT                   
 Basis size:   816
 Attributes:
 Sphericals:   T

 PROGRAM * CCSD (Closed-shell coupled cluster)     Authors: C. Hampel, H.-J. Werner, 1991, M. Deegan, P.J. Knowles, 1992


 Convergence thresholds:  THRVAR = 1.00D-08  THRDEN = 1.00D-10

 CCSD(T)     terms to be evaluated (factor= 1.000)


 Number of core orbitals:           1 (   1 )
 Number of closed-shell orbitals:   4 (   4 )
 Number of external orbitals:     225 ( 225 )

 Molecular orbitals read from record     2102.2  Type=RHF/CANONICAL (state 1.1)

 Number of N-1 electron functions:               4
 Number of N-2 electron functions:              10
 Number of singly external CSFs:               900
 Number of doubly external CSFs:            405450
 Total number of CSFs:                      406351

 Length of J-op  integral file:               0.00 MB
 Length of K-op  integral file:               3.65 MB
 Length of 3-ext integral record:             0.00 MB

 Memory could be reduced to 75.63 Mwords without degradation in triples

 Integral transformation finished. Total CPU:  14.44 sec, npass=  1  Memory used:  32.52 MW

 Reference energy:                    -40.21327506

 MP2 singlet pair energy:              -0.14545517
 MP2 triplet pair energy:              -0.05506480
 MP2 correlation energy:               -0.20051997
 MP2 total energy:                    -40.41379503

 SCS-MP2 correlation energy:           -0.20880875   (PS=  1.200000  PT=  0.333333)
 SCS-MP2 total energy:                -40.42208381

 ITER.      SQ.NORM     CORR.ENERGY   TOTAL ENERGY   ENERGY CHANGE        DEN1      VAR(S)    VAR(P)  DIIS     TIME  TIME/IT
   1      1.07101020    -0.21906756   -40.43234262    -0.01854759    -0.01309409  0.46D-03  0.10D-02  1  1    18.48     4.16
   2      1.07650335    -0.22016880   -40.43344386    -0.00110124    -0.00567799  0.13D-04  0.71D-04  2  2    22.56     4.26
   3      1.07773187    -0.22022209   -40.43349715    -0.00005329    -0.00078829  0.16D-05  0.48D-05  3  3    26.68     4.29
   4      1.07803591    -0.22023110   -40.43350616    -0.00000901    -0.00012816  0.92D-07  0.22D-06  4  4    30.74     4.30
   5      1.07808211    -0.22023003   -40.43350509     0.00000107    -0.00001886  0.57D-08  0.16D-07  5  5    34.86     4.31
   6      1.07808699    -0.22022924   -40.43350430     0.00000079    -0.00000158  0.46D-09  0.11D-08  6  6    38.98     4.33
   7      1.07808769    -0.22022909   -40.43350415     0.00000015    -0.00000033  0.33D-10  0.93D-10  6  1    43.15     4.33
   8      1.07808773    -0.22022912   -40.43350418    -0.00000003     0.00000011  0.27D-11  0.55D-11  6  2    47.26     4.34
   9      1.07808774    -0.22022912   -40.43350419    -0.00000000     0.00000002  0.31D-12  0.49D-12  6  3    51.36     4.34
  10      1.07808774    -0.22022912   -40.43350418     0.00000000     0.00000001  0.27D-13  0.50D-13  6  4    55.51     4.35
  11      1.07808773    -0.22022912   -40.43350418     0.00000000     0.00000001  0.22D-14  0.50D-14  6  5    59.63     4.35
  12      1.07808773    -0.22022912   -40.43350418     0.00000000     0.00000000  0.49D-16  0.58D-15  6  6    63.74     4.35

 Norm of t1 vector:      0.02947006      S-energy:     0.00000000      T1 diagnostic:  0.00736751
                                                                       D1 diagnostic:  0.01186420

 Total CPU time for triples:     41.40 sec


 RESULTS
 =======

  Reference energy                    -40.213275060774
  CCSD singlet pair energy             -0.166734873450
  CCSD triplet pair energy             -0.053494250093
  CCSD correlation energy              -0.220229123476

  Triples (T) contribution             -0.006423031087
  Total correlation energy             -0.226652154562

  CCSD total energy                   -40.433504184250
  CCSD[T] energy                      -40.440109772307
  CCSD-T energy                       -40.439859311629
 !CCSD(T) total energy                -40.439927215337

 Timing summary (sec):

 STEP                 CPU(USER)    SYS     CPU(TOT)    WALL
 Transformation         14.49      0.68     15.17     15.18
 CCSD iterations        49.27      2.88     52.15     52.26
 Triples                41.40      0.38     41.78     41.83

 Program statistics:

 Available memory in ccsd:              1999999916
 Min. memory needed in ccsd:               1865022
 Max. memory used in ccsd:                 2159652
 Max. memory used in cckext:               1451153 (12 integral passes)



 **********************************************************************************************************************************
 DATASETS  * FILE   NREC   LENGTH (MB)   RECORD NAMES
              1      19      222.33       500      610      700      900      950      970     1000      129      960     1100   
                                          VAR    BASINP    GEOM    SYMINP    ZMAT    AOBASIS   BASIS     P2S    ABASIS      S 
                                         1400     1410     1200     1210     1080     1600     1650     1700     1380   
                                           T        V       H0       H01     AOSYM     SMH    MOLCAS    OPER     JKOP   

              2       7       13.71       700     1000      520     2100      200     2101     2102   
                                         GEOM     BASIS   MCVARS     RHF    OPTIONS    RHF      RHF  

 PROGRAMS   *        TOTAL   CCSD(T)    HF-SCF       INT   CCSD(T)    HF-SCF       INT   CCSD(T)    HF-SCF       INT
 CPU TIMES  *       847.61    105.37     11.95      0.22    121.07     13.00      0.23    563.97     14.12     17.39
 REAL TIME  *       885.59 SEC
 DISK USED  *       570.36 MB (local),        7.92 GB (total)
 SF USED    *       504.31 MB
 GA USED    *         0.00 MB       (max)       0.00 MB       (current)
 **********************************************************************************************************************************
 Molecular orbitals read from record     2102.2  Type=RHF/CANONICAL (state 1.1)
 Occupation numbers read from record     2102.2  Type=RHF/RHF (state 1.1)
 Orbital energies read from record       2102.2  Type=RHF/CANONICAL (state 1.1)
 Redundancy group numbers read from rec  2102.2  Type=RHF/RHF (state 1.1)

 CCSD(T)/aug-cc-pVTZ energy=    -40.439927215337

         CCSD(T)          HF-SCF         CCSD(T)          HF-SCF         CCSD(T)          HF-SCF
    -40.43992722    -40.21327506    -76.34204394    -76.05873903   -116.78267844   -116.27191636
 **********************************************************************************************************************************
 Molpro calculation terminated
