
 Primary working directories    : /scratch/klimes/383089/molpro.152mX3o1l8
 Secondary working directories  : /scratch/klimes/383089/molpro.152mX3o1l8
 Wavefunction directory         : /scratch/klimes/383089/
 Main file repository           : /scratch/klimes/383089/molpro.152mX3o1l8/

 id        : karlovklimes

 Nodes                      nprocs
 nc-01.cc.karlov.mff.cuni.cz    4

 Using customized tuning parameters: mindgm=1; mindgv=20; mindgc=4; mindgr=1; noblas=0; minvec=7
 default implementation of scratch files=sf  


 Variables initialized (930), CPU time= 0.01 sec
                                                                                 !gdirect
 memory,2000,m
 gthresh,orbital=1d-10,energy=1d-10,grid=1d-8
 
 symmetry,nosym
 angstrom
 geometry={
 O7        -2.308700000000     -1.513700000000      3.385000000000
 H13        -2.780100000000     -1.810400000000      2.580800000000
 H14        -2.957300000000     -0.995700000000      3.906300000000
 C1        -3.277200000000      1.482500000000      1.271900000000
 H41        -2.464000000000      0.899600000000      1.651000000000
 H42        -3.160800000000      2.501000000000      1.578500000000
 H43        -4.201800000000      1.099200000000      1.650100000000
 H44        -3.268500000000      1.421000000000      0.203700000000
 }
 
 nkerna=1
 nkernb=1
 
 gf=0
 sing=1
 thrdum=1d-4
 gridthr=1d-8
 
 basis={
 set,orbital
 default,avtz
 set,jkfit
 default,avqz/jkfit
 set,mp2fit
 default,avqz/mp2fit
 set,ri
 default,avqz/optri
 set,tddft
 default,avqz/mp2fit
 }
 
 proc set_monomer1
 dummy,4,5,6,7,8
 endproc
 
 proc set_monomer2
 dummy,1,2,3
 endproc
 
                                                                                 !1234 energy
 {hf,accu=1.d-16}
 ccsd(t)
 
 set_monomer1
 {hf,accu=1.d-16}
 ccsd(t)
 
 set_monomer2
 {hf,accu=1.d-16}
 ccsd(t)
 
 Commands  initialized (760), CPU time= 0.02 sec, 617 directives.
 Default parameters read. Elapsed time= 0.19 sec

 Checking input...
 Passed
1


                                         ***  PROGRAM SYSTEM MOLPRO  ***
                                       Copyright, TTI GmbH Stuttgart, 2015
                                    Version 2019.1 linked Jan 14 2019 13:09:19


 **********************************************************************************************************************************
 LABEL *                                                                                 
  64 bit mpp version                                                                     DATE: 11-Mar-20          TIME: 12:52:32  
 **********************************************************************************************************************************

 SHA1:             d688ac825633d238f2093ded1675ba87ccd55965
 **********************************************************************************************************************************

 THRESHOLDS:

 ZERO    =  1.00D-12  ONEINT  =  1.00D-12  TWOINT  =  1.00D-11  PREFAC  =  1.00D-14  XXXXXX  =  1.00D-09  EORDER  =  1.00D-04
 ENERGY  =  1.00D-10  ETEST   =  0.00D+00  EDENS   =  0.00D+00  THRDEDEF=  1.00D-06  GRADIENT=  1.00D-02  STEP    =  1.00D-03
 ORBITAL =  1.00D-10  CIVEC   =  1.00D-05  COEFF   =  1.00D-04  PRINTCI =  5.00D-02  PUNCHCI =  9.90D+01  OPTGRAD =  3.00D-04
 OPTENERG=  1.00D-06  OPTSTEP =  3.00D-04  THRGRAD =  1.00D-10  COMPRESS=  1.00D-11  VARMIN  =  1.00D-07  VARMAX  =  1.00D-03
 THRDOUB =  0.00D+00  THRDIV  =  1.00D-05  THRRED  =  1.00D-07  THRPSP  =  1.00D+00  THRDC   =  1.00D-10  THRCS   =  1.00D-10
 THRNRM  =  1.00D-08  THREQ   =  0.00D+00  THRDE   =  1.00D+00  THRREF  =  1.00D-05  SPARFAC =  1.00D+00  THRDLP  =  1.00D-07
 THRDIA  =  1.00D-10  THRDLS  =  1.00D-07  THRGPS  =  0.00D+00  THRKEX  =  0.00D+00  THRDIS  =  2.00D-01  THRVAR  =  1.00D-10
 THRLOC  =  1.00D-06  THRGAP  =  1.00D-06  THRLOCT = -1.00D+00  THRGAPT = -1.00D+00  THRORB  =  1.00D-06  THRMLTP =  0.00D+00
 THRCPQCI=  1.00D-10  KEXTA   =  0.00D+00  THRCOARS=  0.00D+00  SYMTOL  =  1.00D-06  GRADTOL =  1.00D-06  THROVL  =  1.00D-08
 THRORTH =  1.00D-08  GRID    =  1.00D-08  GRIDMAX =  1.00D-03  DTMAX   =  0.00D+00  THROCCDE=  1.00D-01  THROCCDE=  1.00D-01
 THRPRINT=  2.50D-01


 Variable memory set to 2000000000 words,  buffer space 

 ZSYMEL=NOSYM
 ZUNIT=ANG


Geometry recognized as XYZ

 SETTING NKERNA         =         1.00000000                                  
 SETTING NKERNB         =         1.00000000                                  
 SETTING GF             =     0.00000000D+00                                  
 SETTING SING           =         1.00000000                                  
 SETTING THRDUM         =     1.00000000D-04                                  
 SETTING GRIDTHR        =     1.00000000D-08                                  
 SETTING BASIS          =    AVTZ


 Recomputing integrals since basis changed


 Using spherical harmonics

 Library entry O      S aug-cc-pVTZ          selected for orbital group  1
 Library entry O      P aug-cc-pVTZ          selected for orbital group  1
 Library entry O      D aug-cc-pVTZ          selected for orbital group  1
 Library entry O      F aug-cc-pVTZ          selected for orbital group  1
 Library entry H      S aug-cc-pVTZ          selected for orbital group  2
 Library entry H      P aug-cc-pVTZ          selected for orbital group  2
 Library entry H      D aug-cc-pVTZ          selected for orbital group  2
 Library entry C      S aug-cc-pVTZ          selected for orbital group  3
 Library entry C      P aug-cc-pVTZ          selected for orbital group  3
 Library entry C      D aug-cc-pVTZ          selected for orbital group  3
 Library entry C      F aug-cc-pVTZ          selected for orbital group  3


 PROGRAM * SEWARD (Integral evaluation for generally contracted gaussian basis sets)     Author: Roland Lindh, 1990

 Geometry written to block  1 of record 700


 Point group  C1  



 ATOMIC COORDINATES

 NR  ATOM    CHARGE       X              Y              Z

   1  O7      8.00   -4.362810704   -2.860478435    6.396722932
   2  H13     1.00   -5.253627599   -3.421160176    4.877005182
   3  H14     1.00   -5.588487068   -1.881600302    7.381837160
   4  C1      6.00   -6.193010455    2.801518980    2.403542658
   5  H41     1.00   -4.656285171    1.699997622    3.119937832
   6  H42     1.00   -5.973046335    4.726205038    2.982932688
   7  H43     1.00   -7.940251230    2.077186956    3.118237078
   8  H44     1.00   -6.176569838    2.685300823    0.384937212

 Bond lengths in Bohr (Angstrom)

 1-2  1.848637551  1-3  1.852278325  4-5  2.021904040  4-6  2.022002335  4-7  2.021953343
     ( 0.978256863)     ( 0.980183478)     ( 1.069945541)     ( 1.069997556)     ( 1.069971630)

 4-8  2.022015060
     ( 1.070004290)

 Bond angles

  2-1-3  106.17843926   5-4-6  109.53398059   5-4-7  109.65604535   5-4-8  108.43490854

  6-4-7  109.49436728   6-4-8  109.86987750   7-4-8  109.83468330

 NUCLEAR CHARGE:                   20
 NUMBER OF PRIMITIVE AOS:         296
 NUMBER OF SYMMETRY AOS:          266
 NUMBER OF CONTRACTIONS:          230   (  230A   )
 NUMBER OF CORE ORBITALS:           2   (    2A   )
 NUMBER OF VALENCE ORBITALS:       14   (   14A   )


 NUCLEAR REPULSION ENERGY   36.78088270


 Basis set:  JKFIT                   
 Basis size:   740
 Attributes:
 Sphericals:   T
 Basis set:  MP2FIT                  
 Basis size:   816
 Attributes:
 Sphericals:   T
 Basis set:  RI                      
 Basis size:   556
 Attributes:
 Sphericals:   T
 Basis set:  TDDFT                   
 Basis size:   816
 Attributes:
 Sphericals:   T

 **********************************************************************************************************************************


 Eigenvalues of metric

         1 0.652E-04 0.852E-04 0.972E-04 0.103E-03 0.336E-03 0.396E-03 0.672E-03 0.733E-03


 Contracted 2-electron integrals neglected if value below      1.0D-14
 AO integral compression algorithm  1   Integral accuracy      1.0D-14

     2269.381 MB (compressed) written to integral file ( 70.8%)

     Node minimum: 541.590 MB, node maximum: 591.659 MB


 NUMBER OF SORTED TWO-ELECTRON INTEGRALS:   88219044.     BUFFER LENGTH:  32768
 NUMBER OF SEGMENTS:   6  SEGMENT LENGTH:   15998348      RECORD LENGTH: 524288

 Memory used in sort:      16.56 MW

 SORT1 READ   400769927. AND WROTE    83073529. INTEGRALS IN    241 RECORDS. CPU TIME:     7.76 SEC, REAL TIME:     8.72 SEC
 SORT2 READ   332153605. AND WROTE   352862895. INTEGRALS IN   8780 RECORDS. CPU TIME:     1.95 SEC, REAL TIME:     2.88 SEC

 Node minimum:    88205762.  Node maximum:    88225686. integrals

 OPERATOR DM      FOR CENTER  0  COORDINATES:    0.000000    0.000000    0.000000


 **********************************************************************************************************************************
 DATASETS  * FILE   NREC   LENGTH (MB)   RECORD NAMES
              1      18       32.04       500      610      700      900      950      970     1000      129      960     1100   
                                          VAR    BASINP    GEOM    SYMINP    ZMAT    AOBASIS   BASIS     P2S    ABASIS      S 
                                         1400     1410     1200     1210     1080     1600     1650     1700   
                                           T        V       H0       H01     AOSYM     SMH    MOLCAS    OPER   

 PROGRAMS   *        TOTAL       INT
 CPU TIMES  *        15.01     14.75
 REAL TIME  *        20.53 SEC
 DISK USED  *        32.49 MB (local),        6.33 GB (total)
 GA USED    *         0.00 MB       (max)       0.00 MB       (current)
 **********************************************************************************************************************************


 PROGRAM * RHF-SCF (CLOSED SHELL)       Authors: W. Meyer, H.-J. Werner


 NUMBER OF ELECTRONS:      10+   10-    SPACE SYMMETRY=1    SPIN SYMMETRY: Singlet 
 CONVERGENCE THRESHOLDS:    1.00E-08 (Density)    1.00E-11 (Energy)
 MAX. NUMBER OF ITERATIONS:       60
 INTERPOLATION TYPE:            DIIS
 INTERPOLATION STEPS:              2 (START)      1 (STEP)
 LEVEL SHIFTS:                  0.00 (CLOSED)  0.00 (OPEN) 



 Orbital guess generated from atomic densities. Full valence occupancy:   16

 Molecular orbital dump at record        2100.2

 Initial occupancy:  10

 ITERATION    DDIFF          GRAD             ENERGY        2-EL.EN.            DIPOLE MOMENTS         DIIS   ORB.
    1      0.000D+00      0.000D+00      -116.21409456    158.939403   -1.08125    0.20853   -0.27218    0    start
    2      0.000D+00      0.520D-02      -116.25748233    154.166684   -0.59457    0.13872   -0.16391    1    diag
    3      0.546D-02      0.304D-02      -116.27061764    156.156176   -0.71555    0.15427   -0.18968    2    diag
    4      0.181D-02      0.453D-03      -116.27126621    156.044970   -0.70462    0.15099   -0.18647    3    diag
    5      0.399D-03      0.132D-03      -116.27133291    156.038987   -0.70369    0.15124   -0.18650    4    diag
    6      0.143D-03      0.326D-04      -116.27133676    156.044856   -0.70275    0.15118   -0.18639    5    diag
    7      0.398D-04      0.640D-05      -116.27133698    156.043286   -0.70273    0.15120   -0.18640    6    diag
    8      0.108D-04      0.164D-05      -116.27133700    156.043438   -0.70265    0.15120   -0.18640    7    diag
    9      0.232D-05      0.364D-06      -116.27133700    156.043412   -0.70263    0.15120   -0.18640    8    diag
   10      0.746D-06      0.438D-07      -116.27133700    156.043414   -0.70263    0.15120   -0.18640    9    orth
   11      0.625D-07      0.115D-07      -116.27133700    156.043415   -0.70263    0.15120   -0.18640    9    diag
   12      0.249D-07      0.298D-08      -116.27133700    156.043415   -0.70263    0.15120   -0.18640    9    diag
   13      0.490D-08      0.756D-09      -116.27133700    156.043415   -0.70263    0.15120   -0.18640    0    orth

 Final occupancy:  10

 !RHF STATE  1.1 Energy              -116.271337003591
 Nuclear energy                        36.78088270
 One-electron energy                 -231.07392714
 Two-electron energy                   78.02170744
 Virial quotient                       -1.00111111
 !RHF STATE  1.1 Dipole moment         -0.70263138     0.15120313    -0.18639732
 Dipole moment /Debye                  -1.78579387     0.38429486    -0.47374370

 Orbital energies:

         1.1          2.1          3.1          4.1          5.1          6.1          7.1          8.1          9.1         10.1
    -20.569657   -11.199400    -1.341188    -0.953573    -0.708750    -0.577729    -0.554706    -0.553066    -0.550582    -0.506607

        11.1         12.1
      0.025588     0.041345


 HOMO     10.1    -0.506607 =     -13.7855eV
 LUMO     11.1     0.025588 =       0.6963eV
 LUMO-HOMO         0.532195 =      14.4818eV


 **********************************************************************************************************************************
 DATASETS  * FILE   NREC   LENGTH (MB)   RECORD NAMES
              1      18       32.04       500      610      700      900      950      970     1000      129      960     1100   
                                          VAR    BASINP    GEOM    SYMINP    ZMAT    AOBASIS   BASIS     P2S    ABASIS      S 
                                         1400     1410     1200     1210     1080     1600     1650     1700   
                                           T        V       H0       H01     AOSYM     SMH    MOLCAS    OPER   

              2       4        3.96       700     1000      520     2100   
                                         GEOM     BASIS   MCVARS     RHF  

 PROGRAMS   *        TOTAL    HF-SCF       INT
 CPU TIMES  *        29.10     14.09     14.75
 REAL TIME  *        36.38 SEC
 DISK USED  *        39.90 MB (local),        6.36 GB (total)
 SF USED    *         0.21 MB
 GA USED    *         0.00 MB       (max)       0.00 MB       (current)
 **********************************************************************************************************************************

 Basis set:  JKFIT                   
 Basis size:   740
 Attributes:
 Sphericals:   T
 Basis set:  MP2FIT                  
 Basis size:   816
 Attributes:
 Sphericals:   T
 Basis set:  RI                      
 Basis size:   556
 Attributes:
 Sphericals:   T
 Basis set:  TDDFT                   
 Basis size:   816
 Attributes:
 Sphericals:   T

 PROGRAM * CCSD (Closed-shell coupled cluster)     Authors: C. Hampel, H.-J. Werner, 1991, M. Deegan, P.J. Knowles, 1992


 Convergence thresholds:  THRVAR = 1.00D-08  THRDEN = 1.00D-10

 CCSD(T)     terms to be evaluated (factor= 1.000)


 Number of core orbitals:           2 (   2 )
 Number of closed-shell orbitals:   8 (   8 )
 Number of external orbitals:     220 ( 220 )

 Molecular orbitals read from record     2100.2  Type=RHF/CANONICAL (state 1.1)

 Number of N-1 electron functions:               8
 Number of N-2 electron functions:              36
 Number of singly external CSFs:              1760
 Number of doubly external CSFs:           1549680
 Total number of CSFs:                     1551441

 Length of J-op  integral file:               0.00 MB
 Length of K-op  integral file:               3.65 MB
 Length of 3-ext integral record:             0.00 MB

 Memory could be reduced to 116.39 Mwords without degradation in triples

 Integral transformation finished. Total CPU:  26.50 sec, npass=  1  Memory used:  59.35 MW

 Reference energy:                   -116.27133700

 MP2 singlet pair energy:              -0.31746441
 MP2 triplet pair energy:              -0.15399016
 MP2 correlation energy:               -0.47145456
 MP2 total energy:                   -116.74279157

 SCS-MP2 correlation energy:           -0.47677339   (PS=  1.200000  PT=  0.333333)
 SCS-MP2 total energy:               -116.74811039

 ITER.      SQ.NORM     CORR.ENERGY   TOTAL ENERGY   ENERGY CHANGE        DEN1      VAR(S)    VAR(P)  DIIS     TIME  TIME/IT
   1      1.13551026    -0.49411711  -116.76545411    -0.02266254    -0.01142952  0.14D-02  0.20D-02  1  1    41.41    14.87
   2      1.14458368    -0.49553209  -116.76686909    -0.00141498    -0.01037659  0.23D-04  0.24D-03  2  2    56.40    15.05
   3      1.14759160    -0.49566298  -116.76699998    -0.00013089    -0.00196705  0.15D-04  0.11D-04  3  3    71.35    15.11
   4      1.14839902    -0.49566361  -116.76700062    -0.00000064    -0.00036399  0.58D-06  0.12D-05  4  4    86.32    15.16
   5      1.14855844    -0.49566092  -116.76699793     0.00000269    -0.00005073  0.21D-06  0.78D-07  5  5   101.34    15.18
   6      1.14860681    -0.49565633  -116.76699333     0.00000460    -0.00001217  0.19D-07  0.56D-08  6  6   116.41    15.21
   7      1.14861540    -0.49565570  -116.76699270     0.00000063    -0.00000095  0.17D-08  0.10D-08  6  2   131.40    15.22
   8      1.14861748    -0.49565554  -116.76699254     0.00000016    -0.00000016  0.35D-09  0.11D-09  6  1   146.32    15.23
   9      1.14861827    -0.49565549  -116.76699250     0.00000004     0.00000015  0.29D-10  0.14D-10  6  3   161.35    15.23
  10      1.14861849    -0.49565548  -116.76699248     0.00000002    -0.00000001  0.35D-11  0.22D-11  6  4   176.38    15.24
  11      1.14861845    -0.49565548  -116.76699249    -0.00000001     0.00000006  0.69D-12  0.29D-12  6  6   191.27    15.24
  12      1.14861844    -0.49565549  -116.76699249    -0.00000000     0.00000002  0.12D-12  0.38D-13  6  5   206.27    15.24
  13      1.14861842    -0.49565549  -116.76699249    -0.00000000     0.00000001  0.21D-13  0.65D-14  6  2   221.24    15.25
  14      1.14861841    -0.49565549  -116.76699249    -0.00000000     0.00000000  0.31D-14  0.14D-14  6  1   236.17    15.25
  15      1.14861841    -0.49565549  -116.76699249    -0.00000000     0.00000000  0.33D-15  0.16D-15  6  3   251.20    15.25
  16      1.14861841    -0.49565549  -116.76699249    -0.00000000    -0.00000000  0.73D-16  0.26D-16  6  4   266.25    15.26
  17      1.14861841    -0.49565549  -116.76699249     0.00000000    -0.00000000  0.19D-16  0.53D-17  6  6   281.26    15.26

 Norm of t1 vector:      0.05141084      S-energy:    -0.00000000      T1 diagnostic:  0.00908824
                                                                       D1 diagnostic:  0.02243675


 Total CPU time for triples:    231.83 sec


 RESULTS
 =======

  Reference energy                   -116.271337003591
  CCSD singlet pair energy             -0.354493127368
  CCSD triplet pair energy             -0.141162361187
  CCSD correlation energy              -0.495655488574

  Triples (T) contribution             -0.015426841706
  Total correlation energy             -0.511082330280

  CCSD total energy                  -116.766992492165
  CCSD[T] energy                     -116.782945389553
  CCSD-T energy                      -116.782165933673
 !CCSD(T) total energy               -116.782419333870

 Timing summary (sec):

 STEP                 CPU(USER)    SYS     CPU(TOT)    WALL
 Transformation         26.69      1.28     27.97     28.01
 CCSD iterations       254.59      4.49    259.08    259.52
 Triples               231.83      1.30    233.13    233.46

 Program statistics:

 Available memory in ccsd:              1999999734
 Min. memory needed in ccsd:               4617529
 Max. memory used in ccsd:                 5944569
 Max. memory used in cckext:               4248553 (17 integral passes)



 **********************************************************************************************************************************
 DATASETS  * FILE   NREC   LENGTH (MB)   RECORD NAMES
              1      19      398.13       500      610      700      900      950      970     1000      129      960     1100   
                                          VAR    BASINP    GEOM    SYMINP    ZMAT    AOBASIS   BASIS     P2S    ABASIS      S 
                                         1400     1410     1200     1210     1080     1600     1650     1700     1380   
                                           T        V       H0       H01     AOSYM     SMH    MOLCAS    OPER     JKOP   

              2       4        3.96       700     1000      520     2100   
                                         GEOM     BASIS   MCVARS     RHF  

 PROGRAMS   *        TOTAL   CCSD(T)    HF-SCF       INT
 CPU TIMES  *       542.43    513.33     14.09     14.75
 REAL TIME  *       558.19 SEC
 DISK USED  *       570.36 MB (local),        7.98 GB (total)
 SF USED    *       504.31 MB
 GA USED    *         0.00 MB       (max)       0.00 MB       (current)
 **********************************************************************************************************************************

 Running procedure: SET_MONOMER1

 Dummy atoms: C1  H41  H42  H43  H44


 Recomputing one-electron integrals since nuclear charges changed


 PROGRAM * SEWARD (Integral evaluation for generally contracted gaussian basis sets)     Author: Roland Lindh, 1990

 Geometry written to block  1 of record 700


 Point group  C1  



 ATOMIC COORDINATES

 NR  ATOM    CHARGE       X              Y              Z

   1  O7      8.00   -4.362810704   -2.860478435    6.396722932
   2  H13     1.00   -5.253627599   -3.421160176    4.877005182
   3  H14     1.00   -5.588487068   -1.881600302    7.381837160
   4  C1      0.00   -6.193010455    2.801518980    2.403542658
   5  H41     0.00   -4.656285171    1.699997622    3.119937832
   6  H42     0.00   -5.973046335    4.726205038    2.982932688
   7  H43     0.00   -7.940251230    2.077186956    3.118237078
   8  H44     0.00   -6.176569838    2.685300823    0.384937212

 Bond lengths in Bohr (Angstrom)

 1-2  1.848637551  1-3  1.852278325  4-5  2.021904040  4-6  2.022002335  4-7  2.021953343
     ( 0.978256863)     ( 0.980183478)     ( 1.069945541)     ( 1.069997556)     ( 1.069971630)

 4-8  2.022015060
     ( 1.070004290)

 Bond angles

  2-1-3  106.17843926   5-4-6  109.53398059   5-4-7  109.65604535   5-4-8  108.43490854

  6-4-7  109.49436728   6-4-8  109.86987750   7-4-8  109.83468330

 NUCLEAR CHARGE:                   10
 NUMBER OF PRIMITIVE AOS:         296
 NUMBER OF SYMMETRY AOS:          266
 NUMBER OF CONTRACTIONS:          230   (  230A   )
 NUMBER OF CORE ORBITALS:           1   (    1A   )
 NUMBER OF VALENCE ORBITALS:        6   (    6A   )

 MOLECULE CHANGED: INITIALIZING OCCUPATION AND DUMP RECORDS


 NUCLEAR REPULSION ENERGY    8.98445179

 Basis set:  JKFIT                   
 Basis size:   740
 Attributes:
 Sphericals:   T
 Basis set:  MP2FIT                  
 Basis size:   816
 Attributes:
 Sphericals:   T
 Basis set:  RI                      
 Basis size:   556
 Attributes:
 Sphericals:   T
 Basis set:  TDDFT                   
 Basis size:   816
 Attributes:
 Sphericals:   T

 Eigenvalues of metric

         1 0.652E-04 0.852E-04 0.972E-04 0.103E-03 0.336E-03 0.396E-03 0.672E-03 0.733E-03


 Contracted 2-electron integrals neglected if value below      1.0D-14

 OPERATOR DM      FOR CENTER  0  COORDINATES:    0.000000    0.000000    0.000000


 **********************************************************************************************************************************
 DATASETS  * FILE   NREC   LENGTH (MB)   RECORD NAMES
              1      18       32.04       500      610      700      900      950      970     1000      129      960     1100   
                                          VAR    BASINP    GEOM    SYMINP    ZMAT    AOBASIS   BASIS     P2S    ABASIS      S 
                                         1400     1410     1200     1210     1080     1600     1650     1700   
                                           T        V       H0       H01     AOSYM     SMH    MOLCAS    OPER   

              2       5        5.05       700     1000      520     2100      200   
                                         GEOM     BASIS   MCVARS     RHF    OPTIONS    

 PROGRAMS   *        TOTAL       INT   CCSD(T)    HF-SCF       INT
 CPU TIMES  *       542.67      0.24    513.33     14.09     14.75
 REAL TIME  *       558.99 SEC
 DISK USED  *       570.36 MB (local),        7.98 GB (total)
 SF USED    *       504.31 MB
 GA USED    *         0.00 MB       (max)       0.00 MB       (current)
 **********************************************************************************************************************************


 PROGRAM * RHF-SCF (CLOSED SHELL)       Authors: W. Meyer, H.-J. Werner


 NUMBER OF ELECTRONS:       5+    5-    SPACE SYMMETRY=1    SPIN SYMMETRY: Singlet 
 CONVERGENCE THRESHOLDS:    1.00E-08 (Density)    1.00E-11 (Energy)
 MAX. NUMBER OF ITERATIONS:       60
 INTERPOLATION TYPE:            DIIS
 INTERPOLATION STEPS:              2 (START)      1 (STEP)
 LEVEL SHIFTS:                  0.00 (CLOSED)  0.00 (OPEN) 



 Orbital guess generated from atomic densities. Full valence occupancy:    7

 Molecular orbital dump at record        2101.2

 Initial occupancy:   5

 ITERATION    DDIFF          GRAD             ENERGY        2-EL.EN.            DIPOLE MOMENTS         DIIS   ORB.
    1      0.000D+00      0.000D+00       -76.02016583     77.364912   -1.08706    0.21510   -0.27402    0    start
    2      0.000D+00      0.639D-02       -76.04670580     73.731366   -0.63321    0.12497   -0.16014    1    diag
    3      0.444D-02      0.408D-02       -76.05806149     75.337078   -0.74531    0.14718   -0.18838    2    diag
    4      0.161D-02      0.375D-03       -76.05825280     75.247828   -0.74091    0.14625   -0.18738    3    diag
    5      0.203D-03      0.104D-03       -76.05827279     75.261830   -0.73921    0.14589   -0.18699    4    diag
    6      0.615D-04      0.204D-04       -76.05827403     75.260949   -0.73887    0.14582   -0.18692    5    diag
    7      0.157D-04      0.403D-05       -76.05827409     75.261079   -0.73874    0.14579   -0.18689    6    diag
    8      0.420D-05      0.754D-06       -76.05827409     75.261063   -0.73871    0.14578   -0.18688    7    diag
    9      0.702D-06      0.980D-07       -76.05827409     75.261054   -0.73870    0.14578   -0.18688    8    diag
   10      0.930D-07      0.243D-07       -76.05827409     75.261058   -0.73870    0.14578   -0.18688    9    orth
   11      0.256D-07      0.423D-08       -76.05827409     75.261057   -0.73870    0.14578   -0.18688    9    diag
   12      0.498D-08      0.614D-09       -76.05827409     75.261057   -0.73870    0.14578   -0.18688    0    orth

 Final occupancy:   5

 !RHF STATE  1.1 Energy               -76.058274094409
 Nuclear energy                         8.98445179
 One-electron energy                 -122.67325456
 Two-electron energy                   37.63052868
 Virial quotient                       -1.00246082
 !RHF STATE  1.1 Dipole moment         -0.73870135     0.14578253    -0.18687786
 Dipole moment /Debye                  -1.87746859     0.37051797    -0.47496504

 Orbital energies:

         1.1          2.1          3.1          4.1          5.1          6.1          7.1
    -20.570210    -1.341358    -0.708978    -0.577482    -0.508071     0.019089     0.039135


 HOMO      5.1    -0.508071 =     -13.8253eV
 LUMO      6.1     0.019089 =       0.5194eV
 LUMO-HOMO         0.527160 =      14.3448eV


 **********************************************************************************************************************************
 DATASETS  * FILE   NREC   LENGTH (MB)   RECORD NAMES
              1      18       32.04       500      610      700      900      950      970     1000      129      960     1100   
                                          VAR    BASINP    GEOM    SYMINP    ZMAT    AOBASIS   BASIS     P2S    ABASIS      S 
                                         1400     1410     1200     1210     1080     1600     1650     1700   
                                           T        V       H0       H01     AOSYM     SMH    MOLCAS    OPER   

              2       6        9.09       700     1000      520     2100      200     2101   
                                         GEOM     BASIS   MCVARS     RHF    OPTIONS    RHF  

 PROGRAMS   *        TOTAL    HF-SCF       INT   CCSD(T)    HF-SCF       INT
 CPU TIMES  *       555.81     13.13      0.24    513.33     14.09     14.75
 REAL TIME  *       573.39 SEC
 DISK USED  *       570.36 MB (local),        7.98 GB (total)
 SF USED    *       504.31 MB
 GA USED    *         0.00 MB       (max)       0.00 MB       (current)
 **********************************************************************************************************************************

 Basis set:  JKFIT                   
 Basis size:   740
 Attributes:
 Sphericals:   T
 Basis set:  MP2FIT                  
 Basis size:   816
 Attributes:
 Sphericals:   T
 Basis set:  RI                      
 Basis size:   556
 Attributes:
 Sphericals:   T
 Basis set:  TDDFT                   
 Basis size:   816
 Attributes:
 Sphericals:   T

 PROGRAM * CCSD (Closed-shell coupled cluster)     Authors: C. Hampel, H.-J. Werner, 1991, M. Deegan, P.J. Knowles, 1992


 Convergence thresholds:  THRVAR = 1.00D-08  THRDEN = 1.00D-10

 CCSD(T)     terms to be evaluated (factor= 1.000)


 Number of core orbitals:           1 (   1 )
 Number of closed-shell orbitals:   4 (   4 )
 Number of external orbitals:     225 ( 225 )

 Molecular orbitals read from record     2101.2  Type=RHF/CANONICAL (state 1.1)

 Number of N-1 electron functions:               4
 Number of N-2 electron functions:              10
 Number of singly external CSFs:               900
 Number of doubly external CSFs:            405450
 Total number of CSFs:                      406351

 Length of J-op  integral file:               0.00 MB
 Length of K-op  integral file:               3.65 MB
 Length of 3-ext integral record:             0.00 MB

 Memory could be reduced to 75.63 Mwords without degradation in triples

 Integral transformation finished. Total CPU:  12.77 sec, npass=  1  Memory used:  32.52 MW

 Reference energy:                    -76.05827409

 MP2 singlet pair energy:              -0.17184023
 MP2 triplet pair energy:              -0.09827679
 MP2 correlation energy:               -0.27011702
 MP2 total energy:                    -76.32839111

 SCS-MP2 correlation energy:           -0.26735828   (PS=  1.200000  PT=  0.333333)
 SCS-MP2 total energy:                -76.32563237

 ITER.      SQ.NORM     CORR.ENERGY   TOTAL ENERGY   ENERGY CHANGE        DEN1      VAR(S)    VAR(P)  DIIS     TIME  TIME/IT
   1      1.06422634    -0.27424668   -76.33252077    -0.00412966     0.00163879  0.93D-03  0.10D-02  1  1    16.73     3.97
   2      1.06809650    -0.27455545   -76.33282955    -0.00030877    -0.00494336  0.12D-04  0.13D-03  2  2    20.69     4.03
   3      1.06956015    -0.27464042   -76.33291451    -0.00008497    -0.00094377  0.11D-04  0.59D-05  3  3    24.64     4.04
   4      1.07003729    -0.27463404   -76.33290813     0.00000638    -0.00021959  0.52D-06  0.74D-06  4  4    28.61     4.06
   5      1.07014504    -0.27463106   -76.33290515     0.00000298    -0.00003400  0.17D-06  0.49D-07  5  5    32.49     4.07
   6      1.07018217    -0.27462766   -76.33290176     0.00000340    -0.00000757  0.17D-07  0.40D-08  6  6    36.40     4.07
   7      1.07018971    -0.27462731   -76.33290141     0.00000035    -0.00000073  0.15D-08  0.84D-09  6  1    40.33     4.08
   8      1.07019160    -0.27462722   -76.33290131     0.00000009    -0.00000014  0.25D-09  0.97D-10  6  2    44.29     4.08
   9      1.07019217    -0.27462718   -76.33290128     0.00000004     0.00000020  0.21D-10  0.88D-11  6  3    48.21     4.08
  10      1.07019236    -0.27462716   -76.33290126     0.00000002    -0.00000002  0.30D-11  0.14D-11  6  4    52.12     4.08
  11      1.07019235    -0.27462717   -76.33290126    -0.00000001     0.00000002  0.67D-12  0.18D-12  6  5    56.06     4.08
  12      1.07019235    -0.27462717   -76.33290126    -0.00000000     0.00000000  0.11D-12  0.35D-13  6  6    60.00     4.08
  13      1.07019234    -0.27462717   -76.33290127    -0.00000000     0.00000000  0.16D-13  0.63D-14  6  1    63.90     4.08
  14      1.07019234    -0.27462717   -76.33290127    -0.00000000     0.00000000  0.15D-14  0.75D-15  6  2    67.78     4.08
  15      1.07019234    -0.27462717   -76.33290127    -0.00000000     0.00000000  0.17D-15  0.13D-15  6  3    71.80     4.09
  16      1.07019234    -0.27462717   -76.33290127    -0.00000000     0.00000000  0.34D-16  0.19D-16  6  4    75.76     4.09

 Norm of t1 vector:      0.04124868      S-energy:    -0.00000000      T1 diagnostic:  0.01031217
                                                                       D1 diagnostic:  0.02189794


 Total CPU time for triples:     36.63 sec


 RESULTS
 =======

  Reference energy                    -76.058274094409
  CCSD singlet pair energy             -0.187677406710
  CCSD triplet pair energy             -0.086949764932
  CCSD correlation energy              -0.274627171698

  Triples (T) contribution             -0.008850850337
  Total correlation energy             -0.283478022035

  CCSD total energy                   -76.332901266108
  CCSD[T] energy                      -76.342089801544
  CCSD-T energy                       -76.341570346311
 !CCSD(T) total energy                -76.341752116444

 Timing summary (sec):

 STEP                 CPU(USER)    SYS     CPU(TOT)    WALL
 Transformation         12.84      0.58     13.42     13.44
 CCSD iterations        62.94      2.38     65.32     65.41
 Triples                36.63      0.34     36.97     37.03

 Program statistics:

 Available memory in ccsd:              1999999921
 Min. memory needed in ccsd:               1865022
 Max. memory used in ccsd:                 2159652
 Max. memory used in cckext:               1451153 (16 integral passes)



 **********************************************************************************************************************************
 DATASETS  * FILE   NREC   LENGTH (MB)   RECORD NAMES
              1      19      222.33       500      610      700      900      950      970     1000      129      960     1100   
                                          VAR    BASINP    GEOM    SYMINP    ZMAT    AOBASIS   BASIS     P2S    ABASIS      S 
                                         1400     1410     1200     1210     1080     1600     1650     1700     1380   
                                           T        V       H0       H01     AOSYM     SMH    MOLCAS    OPER     JKOP   

              2       6        9.09       700     1000      520     2100      200     2101   
                                         GEOM     BASIS   MCVARS     RHF    OPTIONS    RHF  

 PROGRAMS   *        TOTAL   CCSD(T)    HF-SCF       INT   CCSD(T)    HF-SCF       INT
 CPU TIMES  *       668.44    112.61     13.13      0.24    513.33     14.09     14.75
 REAL TIME  *       690.02 SEC
 DISK USED  *       570.36 MB (local),        7.98 GB (total)
 SF USED    *       504.31 MB
 GA USED    *         0.00 MB       (max)       0.00 MB       (current)
 **********************************************************************************************************************************

 Running procedure: SET_MONOMER2

 Dummy atoms: O7  H13  H14


 Recomputing one-electron integrals since nuclear charges changed


 PROGRAM * SEWARD (Integral evaluation for generally contracted gaussian basis sets)     Author: Roland Lindh, 1990

 Geometry written to block  1 of record 700


 Point group  C1  



 ATOMIC COORDINATES

 NR  ATOM    CHARGE       X              Y              Z

   1  O7      0.00   -4.362810704   -2.860478435    6.396722932
   2  H13     0.00   -5.253627599   -3.421160176    4.877005182
   3  H14     0.00   -5.588487068   -1.881600302    7.381837160
   4  C1      6.00   -6.193010455    2.801518980    2.403542658
   5  H41     1.00   -4.656285171    1.699997622    3.119937832
   6  H42     1.00   -5.973046335    4.726205038    2.982932688
   7  H43     1.00   -7.940251230    2.077186956    3.118237078
   8  H44     1.00   -6.176569838    2.685300823    0.384937212

 Bond lengths in Bohr (Angstrom)

 1-2  1.848637551  1-3  1.852278325  4-5  2.021904040  4-6  2.022002335  4-7  2.021953343
     ( 0.978256863)     ( 0.980183478)     ( 1.069945541)     ( 1.069997556)     ( 1.069971630)

 4-8  2.022015060
     ( 1.070004290)

 Bond angles

  2-1-3  106.17843926   5-4-6  109.53398059   5-4-7  109.65604535   5-4-8  108.43490854

  6-4-7  109.49436728   6-4-8  109.86987750   7-4-8  109.83468330

 NUCLEAR CHARGE:                   10
 NUMBER OF PRIMITIVE AOS:         296
 NUMBER OF SYMMETRY AOS:          266
 NUMBER OF CONTRACTIONS:          230   (  230A   )
 NUMBER OF CORE ORBITALS:           1   (    1A   )
 NUMBER OF VALENCE ORBITALS:        8   (    8A   )

 MOLECULE CHANGED: INITIALIZING OCCUPATION AND DUMP RECORDS


 NUCLEAR REPULSION ENERGY   13.68681606

 Basis set:  JKFIT                   
 Basis size:   740
 Attributes:
 Sphericals:   T
 Basis set:  MP2FIT                  
 Basis size:   816
 Attributes:
 Sphericals:   T
 Basis set:  RI                      
 Basis size:   556
 Attributes:
 Sphericals:   T
 Basis set:  TDDFT                   
 Basis size:   816
 Attributes:
 Sphericals:   T

 Eigenvalues of metric

         1 0.652E-04 0.852E-04 0.972E-04 0.103E-03 0.336E-03 0.396E-03 0.672E-03 0.733E-03


 Contracted 2-electron integrals neglected if value below      1.0D-14

 OPERATOR DM      FOR CENTER  0  COORDINATES:    0.000000    0.000000    0.000000


 **********************************************************************************************************************************
 DATASETS  * FILE   NREC   LENGTH (MB)   RECORD NAMES
              1      18       32.04       500      610      700      900      950      970     1000      129      960     1100   
                                          VAR    BASINP    GEOM    SYMINP    ZMAT    AOBASIS   BASIS     P2S    ABASIS      S 
                                         1400     1410     1200     1210     1080     1600     1650     1700   
                                           T        V       H0       H01     AOSYM     SMH    MOLCAS    OPER   

              2       6        9.09       700     1000      520     2100      200     2101   
                                         GEOM     BASIS   MCVARS     RHF    OPTIONS    RHF  

 PROGRAMS   *        TOTAL       INT   CCSD(T)    HF-SCF       INT   CCSD(T)    HF-SCF       INT
 CPU TIMES  *       668.68      0.23    112.61     13.13      0.24    513.33     14.09     14.75
 REAL TIME  *       690.81 SEC
 DISK USED  *       570.36 MB (local),        7.98 GB (total)
 SF USED    *       504.31 MB
 GA USED    *         0.00 MB       (max)       0.00 MB       (current)
 **********************************************************************************************************************************


 PROGRAM * RHF-SCF (CLOSED SHELL)       Authors: W. Meyer, H.-J. Werner


 NUMBER OF ELECTRONS:       5+    5-    SPACE SYMMETRY=1    SPIN SYMMETRY: Singlet 
 CONVERGENCE THRESHOLDS:    1.00E-08 (Density)    1.00E-11 (Energy)
 MAX. NUMBER OF ITERATIONS:       60
 INTERPOLATION TYPE:            DIIS
 INTERPOLATION STEPS:              2 (START)      1 (STEP)
 LEVEL SHIFTS:                  0.00 (CLOSED)  0.00 (OPEN) 



 Orbital guess generated from atomic densities. Full valence occupancy:    9

 Molecular orbital dump at record        2102.2

 Initial occupancy:   5

 ITERATION    DDIFF          GRAD             ENERGY        2-EL.EN.            DIPOLE MOMENTS         DIIS   ORB.
    1      0.000D+00      0.000D+00       -40.19358732     53.494044    0.00410   -0.00274   -0.00132    0    start
    2      0.000D+00      0.353D-02       -40.21070484     52.213684    0.00129   -0.00087   -0.00040    1    diag
    3      0.323D-02      0.137D-02       -40.21295331     52.664855    0.00182   -0.00123   -0.00056    2    diag
    4      0.903D-03      0.342D-03       -40.21326878     52.609828    0.00161   -0.00109   -0.00050    3    diag
    5      0.298D-03      0.444D-04       -40.21327417     52.612167    0.00158   -0.00107   -0.00049    4    diag
    6      0.822D-04      0.345D-05       -40.21327421     52.612264    0.00158   -0.00107   -0.00049    5    diag
    7      0.675D-05      0.264D-06       -40.21327421     52.612230    0.00158   -0.00107   -0.00049    6    diag
    8      0.101D-05      0.221D-07       -40.21327421     52.612230    0.00158   -0.00107   -0.00049    7    diag
    9      0.187D-06      0.284D-08       -40.21327421     52.612230    0.00158   -0.00107   -0.00049    8    diag
   10      0.103D-07      0.794D-09       -40.21327421     52.612230    0.00158   -0.00107   -0.00049    9    orth
   11      0.119D-08      0.106D-09       -40.21327421     52.612230    0.00158   -0.00107   -0.00049    0    orth

 Final occupancy:   5

 !RHF STATE  1.1 Energy               -40.213274211748
 Nuclear energy                        13.68681606
 One-electron energy                  -80.20620551
 Two-electron energy                   26.30611524
 Virial quotient                       -0.99870265
 !RHF STATE  1.1 Dipole moment          0.00158276    -0.00107044    -0.00048692
 Dipole moment /Debye                   0.00402271    -0.00272061    -0.00123755

 Orbital energies:

         1.1          2.1          3.1          4.1          5.1          6.1          7.1
    -11.197211    -0.950741    -0.551695    -0.549759    -0.547581     0.027729     0.042363


 HOMO      5.1    -0.547581 =     -14.9004eV
 LUMO      6.1     0.027729 =       0.7545eV
 LUMO-HOMO         0.575310 =      15.6550eV


 **********************************************************************************************************************************
 DATASETS  * FILE   NREC   LENGTH (MB)   RECORD NAMES
              1      18       32.04       500      610      700      900      950      970     1000      129      960     1100   
                                          VAR    BASINP    GEOM    SYMINP    ZMAT    AOBASIS   BASIS     P2S    ABASIS      S 
                                         1400     1410     1200     1210     1080     1600     1650     1700   
                                           T        V       H0       H01     AOSYM     SMH    MOLCAS    OPER   

              2       7       13.71       700     1000      520     2100      200     2101     2102   
                                         GEOM     BASIS   MCVARS     RHF    OPTIONS    RHF      RHF  

 PROGRAMS   *        TOTAL    HF-SCF       INT   CCSD(T)    HF-SCF       INT   CCSD(T)    HF-SCF       INT
 CPU TIMES  *       680.62     11.93      0.23    112.61     13.13      0.24    513.33     14.09     14.75
 REAL TIME  *       704.09 SEC
 DISK USED  *       570.36 MB (local),        7.98 GB (total)
 SF USED    *       504.31 MB
 GA USED    *         0.00 MB       (max)       0.00 MB       (current)
 **********************************************************************************************************************************

 Basis set:  JKFIT                   
 Basis size:   740
 Attributes:
 Sphericals:   T
 Basis set:  MP2FIT                  
 Basis size:   816
 Attributes:
 Sphericals:   T
 Basis set:  RI                      
 Basis size:   556
 Attributes:
 Sphericals:   T
 Basis set:  TDDFT                   
 Basis size:   816
 Attributes:
 Sphericals:   T

 PROGRAM * CCSD (Closed-shell coupled cluster)     Authors: C. Hampel, H.-J. Werner, 1991, M. Deegan, P.J. Knowles, 1992


 Convergence thresholds:  THRVAR = 1.00D-08  THRDEN = 1.00D-10

 CCSD(T)     terms to be evaluated (factor= 1.000)


 Number of core orbitals:           1 (   1 )
 Number of closed-shell orbitals:   4 (   4 )
 Number of external orbitals:     225 ( 225 )

 Molecular orbitals read from record     2102.2  Type=RHF/CANONICAL (state 1.1)

 Number of N-1 electron functions:               4
 Number of N-2 electron functions:              10
 Number of singly external CSFs:               900
 Number of doubly external CSFs:            405450
 Total number of CSFs:                      406351

 Length of J-op  integral file:               0.00 MB
 Length of K-op  integral file:               3.65 MB
 Length of 3-ext integral record:             0.00 MB

 Memory could be reduced to 75.63 Mwords without degradation in triples

 Integral transformation finished. Total CPU:  12.81 sec, npass=  1  Memory used:  32.52 MW

 Reference energy:                    -40.21327421

 MP2 singlet pair energy:              -0.14546190
 MP2 triplet pair energy:              -0.05506578
 MP2 correlation energy:               -0.20052768
 MP2 total energy:                    -40.41380189

 SCS-MP2 correlation energy:           -0.20881743   (PS=  1.200000  PT=  0.333333)
 SCS-MP2 total energy:                -40.42209164

 ITER.      SQ.NORM     CORR.ENERGY   TOTAL ENERGY   ENERGY CHANGE        DEN1      VAR(S)    VAR(P)  DIIS     TIME  TIME/IT
   1      1.07101062    -0.21907392   -40.43234814    -0.01854625    -0.01309275  0.46D-03  0.10D-02  1  1    16.75     3.94
   2      1.07650377    -0.22017523   -40.43344944    -0.00110130    -0.00567792  0.13D-04  0.71D-04  2  2    20.64     4.00
   3      1.07773231    -0.22022849   -40.43350270    -0.00005326    -0.00078837  0.16D-05  0.48D-05  3  3    24.52     4.02
   4      1.07803637    -0.22023750   -40.43351171    -0.00000901    -0.00012818  0.92D-07  0.22D-06  4  4    28.47     4.03
   5      1.07808258    -0.22023644   -40.43351065     0.00000106    -0.00001887  0.57D-08  0.16D-07  5  5    32.47     4.04
   6      1.07808749    -0.22023564   -40.43350986     0.00000079    -0.00000159  0.47D-09  0.11D-08  6  6    36.50     4.05
   7      1.07808820    -0.22023549   -40.43350970     0.00000015    -0.00000033  0.33D-10  0.95D-10  6  1    40.51     4.06
   8      1.07808824    -0.22023552   -40.43350973    -0.00000003     0.00000011  0.28D-11  0.56D-11  6  2    44.53     4.07
   9      1.07808825    -0.22023553   -40.43350974    -0.00000000     0.00000002  0.32D-12  0.49D-12  6  3    48.44     4.07
  10      1.07808825    -0.22023552   -40.43350974     0.00000000     0.00000001  0.27D-13  0.50D-13  6  4    52.47     4.08
  11      1.07808824    -0.22023552   -40.43350974     0.00000000     0.00000001  0.22D-14  0.50D-14  6  5    56.37     4.08
  12      1.07808824    -0.22023552   -40.43350974     0.00000000     0.00000000  0.50D-16  0.58D-15  6  6    60.27     4.08

 Norm of t1 vector:      0.02947135      S-energy:     0.00000000      T1 diagnostic:  0.00736784
                                                                       D1 diagnostic:  0.01186542

 Total CPU time for triples:     36.61 sec


 RESULTS
 =======

  Reference energy                    -40.213274211749
  CCSD singlet pair energy             -0.166740364173
  CCSD triplet pair energy             -0.053495160371
  CCSD correlation energy              -0.220235524478

  Triples (T) contribution             -0.006423625449
  Total correlation energy             -0.226659149927

  CCSD total energy                   -40.433509736227
  CCSD[T] energy                      -40.440115905038
  CCSD-T energy                       -40.439865468446
 !CCSD(T) total energy                -40.439933361676

 Timing summary (sec):

 STEP                 CPU(USER)    SYS     CPU(TOT)    WALL
 Transformation         12.87      0.59     13.46     13.48
 CCSD iterations        47.42      1.54     48.96     49.03
 Triples                36.61      0.21     36.82     36.91

 Program statistics:

 Available memory in ccsd:              1999999916
 Min. memory needed in ccsd:               1865022
 Max. memory used in ccsd:                 2159652
 Max. memory used in cckext:               1451153 (12 integral passes)



 **********************************************************************************************************************************
 DATASETS  * FILE   NREC   LENGTH (MB)   RECORD NAMES
              1      19      222.33       500      610      700      900      950      970     1000      129      960     1100   
                                          VAR    BASINP    GEOM    SYMINP    ZMAT    AOBASIS   BASIS     P2S    ABASIS      S 
                                         1400     1410     1200     1210     1080     1600     1650     1700     1380   
                                           T        V       H0       H01     AOSYM     SMH    MOLCAS    OPER     JKOP   

              2       7       13.71       700     1000      520     2100      200     2101     2102   
                                         GEOM     BASIS   MCVARS     RHF    OPTIONS    RHF      RHF  

 PROGRAMS   *        TOTAL   CCSD(T)    HF-SCF       INT   CCSD(T)    HF-SCF       INT   CCSD(T)    HF-SCF       INT
 CPU TIMES  *       777.74     97.11     11.93      0.23    112.61     13.13      0.24    513.33     14.09     14.75
 REAL TIME  *       804.28 SEC
 DISK USED  *       570.36 MB (local),        7.98 GB (total)
 SF USED    *       504.31 MB
 GA USED    *         0.00 MB       (max)       0.00 MB       (current)
 **********************************************************************************************************************************
 Molecular orbitals read from record     2102.2  Type=RHF/CANONICAL (state 1.1)
 Occupation numbers read from record     2102.2  Type=RHF/RHF (state 1.1)
 Orbital energies read from record       2102.2  Type=RHF/CANONICAL (state 1.1)
 Redundancy group numbers read from rec  2102.2  Type=RHF/RHF (state 1.1)

 CCSD(T)/aug-cc-pVTZ energy=    -40.439933361676

         CCSD(T)          HF-SCF         CCSD(T)          HF-SCF         CCSD(T)          HF-SCF
    -40.43993336    -40.21327421    -76.34175212    -76.05827409   -116.78241933   -116.27133700
 **********************************************************************************************************************************
 Molpro calculation terminated
