
 Primary working directories    : /scratch/klimes/383090/molpro.zqlfIlAxbh
 Secondary working directories  : /scratch/klimes/383090/molpro.zqlfIlAxbh
 Wavefunction directory         : /scratch/klimes/383090/
 Main file repository           : /scratch/klimes/383090/molpro.zqlfIlAxbh/

 id        : karlovklimes

 Nodes                      nprocs
 nc-01.cc.karlov.mff.cuni.cz    4

 Using customized tuning parameters: mindgm=1; mindgv=20; mindgc=4; mindgr=1; noblas=0; minvec=7
 default implementation of scratch files=sf  


 Variables initialized (930), CPU time= 0.01 sec
                                                                                 !gdirect
 memory,2000,m
 gthresh,orbital=1d-10,energy=1d-10,grid=1d-8
 
 symmetry,nosym
 angstrom
 geometry={
 O8        -2.441500000000      2.874300000000     -2.185500000000
 H15        -3.121200000000      3.446800000000     -1.780300000000
 H16        -2.892600000000      2.018700000000     -2.335200000000
 C1        -3.277200000000      1.482500000000      1.271900000000
 H41        -2.464000000000      0.899600000000      1.651000000000
 H42        -3.160800000000      2.501000000000      1.578500000000
 H43        -4.201800000000      1.099200000000      1.650100000000
 H44        -3.268500000000      1.421000000000      0.203700000000
 }
 
 nkerna=1
 nkernb=1
 
 gf=0
 sing=1
 thrdum=1d-4
 gridthr=1d-8
 
 basis={
 set,orbital
 default,avtz
 set,jkfit
 default,avqz/jkfit
 set,mp2fit
 default,avqz/mp2fit
 set,ri
 default,avqz/optri
 set,tddft
 default,avqz/mp2fit
 }
 
 proc set_monomer1
 dummy,4,5,6,7,8
 endproc
 
 proc set_monomer2
 dummy,1,2,3
 endproc
 
                                                                                 !1234 energy
 {hf,accu=1.d-16}
 ccsd(t)
 
 set_monomer1
 {hf,accu=1.d-16}
 ccsd(t)
 
 set_monomer2
 {hf,accu=1.d-16}
 ccsd(t)
 
 Commands  initialized (760), CPU time= 0.02 sec, 617 directives.
 Default parameters read. Elapsed time= 0.25 sec

 Checking input...
 Passed
1


                                         ***  PROGRAM SYSTEM MOLPRO  ***
                                       Copyright, TTI GmbH Stuttgart, 2015
                                    Version 2019.1 linked Jan 14 2019 13:09:19


 **********************************************************************************************************************************
 LABEL *                                                                                 
  64 bit mpp version                                                                     DATE: 11-Mar-20          TIME: 12:52:32  
 **********************************************************************************************************************************

 SHA1:             d688ac825633d238f2093ded1675ba87ccd55965
 **********************************************************************************************************************************

 THRESHOLDS:

 ZERO    =  1.00D-12  ONEINT  =  1.00D-12  TWOINT  =  1.00D-11  PREFAC  =  1.00D-14  XXXXXX  =  1.00D-09  EORDER  =  1.00D-04
 ENERGY  =  1.00D-10  ETEST   =  0.00D+00  EDENS   =  0.00D+00  THRDEDEF=  1.00D-06  GRADIENT=  1.00D-02  STEP    =  1.00D-03
 ORBITAL =  1.00D-10  CIVEC   =  1.00D-05  COEFF   =  1.00D-04  PRINTCI =  5.00D-02  PUNCHCI =  9.90D+01  OPTGRAD =  3.00D-04
 OPTENERG=  1.00D-06  OPTSTEP =  3.00D-04  THRGRAD =  1.00D-10  COMPRESS=  1.00D-11  VARMIN  =  1.00D-07  VARMAX  =  1.00D-03
 THRDOUB =  0.00D+00  THRDIV  =  1.00D-05  THRRED  =  1.00D-07  THRPSP  =  1.00D+00  THRDC   =  1.00D-10  THRCS   =  1.00D-10
 THRNRM  =  1.00D-08  THREQ   =  0.00D+00  THRDE   =  1.00D+00  THRREF  =  1.00D-05  SPARFAC =  1.00D+00  THRDLP  =  1.00D-07
 THRDIA  =  1.00D-10  THRDLS  =  1.00D-07  THRGPS  =  0.00D+00  THRKEX  =  0.00D+00  THRDIS  =  2.00D-01  THRVAR  =  1.00D-10
 THRLOC  =  1.00D-06  THRGAP  =  1.00D-06  THRLOCT = -1.00D+00  THRGAPT = -1.00D+00  THRORB  =  1.00D-06  THRMLTP =  0.00D+00
 THRCPQCI=  1.00D-10  KEXTA   =  0.00D+00  THRCOARS=  0.00D+00  SYMTOL  =  1.00D-06  GRADTOL =  1.00D-06  THROVL  =  1.00D-08
 THRORTH =  1.00D-08  GRID    =  1.00D-08  GRIDMAX =  1.00D-03  DTMAX   =  0.00D+00  THROCCDE=  1.00D-01  THROCCDE=  1.00D-01
 THRPRINT=  2.50D-01


 Variable memory set to 2000000000 words,  buffer space 

 ZSYMEL=NOSYM
 ZUNIT=ANG


Geometry recognized as XYZ

 SETTING NKERNA         =         1.00000000                                  
 SETTING NKERNB         =         1.00000000                                  
 SETTING GF             =     0.00000000D+00                                  
 SETTING SING           =         1.00000000                                  
 SETTING THRDUM         =     1.00000000D-04                                  
 SETTING GRIDTHR        =     1.00000000D-08                                  
 SETTING BASIS          =    AVTZ


 Recomputing integrals since basis changed


 Using spherical harmonics

 Library entry O      S aug-cc-pVTZ          selected for orbital group  1
 Library entry O      P aug-cc-pVTZ          selected for orbital group  1
 Library entry O      D aug-cc-pVTZ          selected for orbital group  1
 Library entry O      F aug-cc-pVTZ          selected for orbital group  1
 Library entry H      S aug-cc-pVTZ          selected for orbital group  2
 Library entry H      P aug-cc-pVTZ          selected for orbital group  2
 Library entry H      D aug-cc-pVTZ          selected for orbital group  2
 Library entry C      S aug-cc-pVTZ          selected for orbital group  3
 Library entry C      P aug-cc-pVTZ          selected for orbital group  3
 Library entry C      D aug-cc-pVTZ          selected for orbital group  3
 Library entry C      F aug-cc-pVTZ          selected for orbital group  3


 PROGRAM * SEWARD (Integral evaluation for generally contracted gaussian basis sets)     Author: Roland Lindh, 1990

 Geometry written to block  1 of record 700


 Point group  C1  



 ATOMIC COORDINATES

 NR  ATOM    CHARGE       X              Y              Z

   1  O8      8.00   -4.613766333    5.431639800   -4.129996445
   2  H15     1.00   -5.898213180    6.513508006   -3.364279420
   3  H16     1.00   -5.466221788    3.814790128   -4.412888446
   4  C1      6.00   -6.193010455    2.801518980    2.403542658
   5  H41     1.00   -4.656285171    1.699997622    3.119937832
   6  H42     1.00   -5.973046335    4.726205038    2.982932688
   7  H43     1.00   -7.940251230    2.077186956    3.118237078
   8  H44     1.00   -6.176569838    2.685300823    0.384937212

 Bond lengths in Bohr (Angstrom)

 1-2  1.845688241  1-3  1.849570504  4-5  2.021904040  4-6  2.022002335  4-7  2.021953343
     ( 0.976696155)     ( 0.978750561)     ( 1.069945541)     ( 1.069997556)     ( 1.069971630)

 4-8  2.022015060
     ( 1.070004290)

 Bond angles

  2-1-3  104.78050181   5-4-6  109.53398059   5-4-7  109.65604535   5-4-8  108.43490854

  6-4-7  109.49436728   6-4-8  109.86987750   7-4-8  109.83468330

 NUCLEAR CHARGE:                   20
 NUMBER OF PRIMITIVE AOS:         296
 NUMBER OF SYMMETRY AOS:          266
 NUMBER OF CONTRACTIONS:          230   (  230A   )
 NUMBER OF CORE ORBITALS:           2   (    2A   )
 NUMBER OF VALENCE ORBITALS:       14   (   14A   )


 NUCLEAR REPULSION ENERGY   36.70371194


 Basis set:  JKFIT                   
 Basis size:   740
 Attributes:
 Sphericals:   T
 Basis set:  MP2FIT                  
 Basis size:   816
 Attributes:
 Sphericals:   T
 Basis set:  RI                      
 Basis size:   556
 Attributes:
 Sphericals:   T
 Basis set:  TDDFT                   
 Basis size:   816
 Attributes:
 Sphericals:   T

 **********************************************************************************************************************************


 Eigenvalues of metric

         1 0.447E-04 0.772E-04 0.100E-03 0.104E-03 0.335E-03 0.376E-03 0.528E-03 0.687E-03


 Contracted 2-electron integrals neglected if value below      1.0D-14
 AO integral compression algorithm  1   Integral accuracy      1.0D-14

     2200.699 MB (compressed) written to integral file ( 68.6%)

     Node minimum: 525.074 MB, node maximum: 588.775 MB


 NUMBER OF SORTED TWO-ELECTRON INTEGRALS:   88219044.     BUFFER LENGTH:  32768
 NUMBER OF SEGMENTS:   6  SEGMENT LENGTH:   15998348      RECORD LENGTH: 524288

 Memory used in sort:      16.56 MW

 SORT1 READ   400769927. AND WROTE    82057986. INTEGRALS IN    237 RECORDS. CPU TIME:     7.42 SEC, REAL TIME:     8.33 SEC
 SORT2 READ   328379172. AND WROTE   352862895. INTEGRALS IN   8376 RECORDS. CPU TIME:     1.76 SEC, REAL TIME:     2.58 SEC

 Node minimum:    88205762.  Node maximum:    88225686. integrals

 OPERATOR DM      FOR CENTER  0  COORDINATES:    0.000000    0.000000    0.000000


 **********************************************************************************************************************************
 DATASETS  * FILE   NREC   LENGTH (MB)   RECORD NAMES
              1      18       32.04       500      610      700      900      950      970     1000      129      960     1100   
                                          VAR    BASINP    GEOM    SYMINP    ZMAT    AOBASIS   BASIS     P2S    ABASIS      S 
                                         1400     1410     1200     1210     1080     1600     1650     1700   
                                           T        V       H0       H01     AOSYM     SMH    MOLCAS    OPER   

 PROGRAMS   *        TOTAL       INT
 CPU TIMES  *        14.09     13.87
 REAL TIME  *        19.59 SEC
 DISK USED  *        32.49 MB (local),        6.22 GB (total)
 GA USED    *         0.00 MB       (max)       0.00 MB       (current)
 **********************************************************************************************************************************


 PROGRAM * RHF-SCF (CLOSED SHELL)       Authors: W. Meyer, H.-J. Werner


 NUMBER OF ELECTRONS:      10+   10-    SPACE SYMMETRY=1    SPIN SYMMETRY: Singlet 
 CONVERGENCE THRESHOLDS:    1.00E-08 (Density)    1.00E-11 (Energy)
 MAX. NUMBER OF ITERATIONS:       60
 INTERPOLATION TYPE:            DIIS
 INTERPOLATION STEPS:              2 (START)      1 (STEP)
 LEVEL SHIFTS:                  0.00 (CLOSED)  0.00 (OPEN) 



 Orbital guess generated from atomic densities. Full valence occupancy:   16

 Molecular orbital dump at record        2100.2

 Initial occupancy:  10

 ITERATION    DDIFF          GRAD             ENERGY        2-EL.EN.            DIPOLE MOMENTS         DIIS   ORB.
    1      0.000D+00      0.000D+00      -116.21307869    158.757149   -1.08726   -0.27429    0.24234    0    start
    2      0.000D+00      0.522D-02      -116.25701954    153.976269   -0.59564   -0.15444    0.16336    1    diag
    3      0.554D-02      0.306D-02      -116.27030543    155.976650   -0.72195   -0.18513    0.18185    2    diag
    4      0.183D-02      0.455D-03      -116.27095893    155.864963   -0.71263   -0.18283    0.17842    3    diag
    5      0.404D-03      0.133D-03      -116.27102637    155.859773   -0.71238   -0.18302    0.17878    4    diag
    6      0.147D-03      0.326D-04      -116.27103020    155.865649   -0.71170   -0.18302    0.17875    5    diag
    7      0.420D-04      0.640D-05      -116.27103043    155.864074   -0.71175   -0.18307    0.17881    6    diag
    8      0.117D-04      0.162D-05      -116.27103045    155.864224   -0.71169   -0.18307    0.17883    7    diag
    9      0.247D-05      0.360D-06      -116.27103045    155.864196   -0.71167   -0.18307    0.17883    8    diag
   10      0.805D-06      0.436D-07      -116.27103045    155.864198   -0.71166   -0.18307    0.17883    9    orth
   11      0.658D-07      0.120D-07      -116.27103045    155.864199   -0.71166   -0.18307    0.17883    9    diag
   12      0.262D-07      0.346D-08      -116.27103045    155.864198   -0.71166   -0.18307    0.17883    9    diag
   13      0.525D-08      0.926D-09      -116.27103045    155.864199   -0.71166   -0.18307    0.17883    0    orth

 Final occupancy:  10

 !RHF STATE  1.1 Energy              -116.271030449165
 Nuclear energy                        36.70371194
 One-electron energy                 -230.90684180
 Two-electron energy                   77.93209941
 Virial quotient                       -1.00103760
 !RHF STATE  1.1 Dipole moment         -0.71166489    -0.18306825     0.17883488
 Dipole moment /Debye                  -1.80875325    -0.46528261     0.45452316

 Orbital energies:

         1.1          2.1          3.1          4.1          5.1          6.1          7.1          8.1          9.1         10.1
    -20.570377   -11.199845    -1.343220    -0.953524    -0.707330    -0.581356    -0.554850    -0.552519    -0.550923    -0.507377

        11.1         12.1
      0.026409     0.043515


 HOMO     10.1    -0.507377 =     -13.8064eV
 LUMO     11.1     0.026409 =       0.7186eV
 LUMO-HOMO         0.533786 =      14.5251eV


 **********************************************************************************************************************************
 DATASETS  * FILE   NREC   LENGTH (MB)   RECORD NAMES
              1      18       32.04       500      610      700      900      950      970     1000      129      960     1100   
                                          VAR    BASINP    GEOM    SYMINP    ZMAT    AOBASIS   BASIS     P2S    ABASIS      S 
                                         1400     1410     1200     1210     1080     1600     1650     1700   
                                           T        V       H0       H01     AOSYM     SMH    MOLCAS    OPER   

              2       4        3.96       700     1000      520     2100   
                                         GEOM     BASIS   MCVARS     RHF  

 PROGRAMS   *        TOTAL    HF-SCF       INT
 CPU TIMES  *        29.06     14.97     13.87
 REAL TIME  *        37.99 SEC
 DISK USED  *        39.90 MB (local),        6.25 GB (total)
 SF USED    *         0.21 MB
 GA USED    *         0.00 MB       (max)       0.00 MB       (current)
 **********************************************************************************************************************************

 Basis set:  JKFIT                   
 Basis size:   740
 Attributes:
 Sphericals:   T
 Basis set:  MP2FIT                  
 Basis size:   816
 Attributes:
 Sphericals:   T
 Basis set:  RI                      
 Basis size:   556
 Attributes:
 Sphericals:   T
 Basis set:  TDDFT                   
 Basis size:   816
 Attributes:
 Sphericals:   T

 PROGRAM * CCSD (Closed-shell coupled cluster)     Authors: C. Hampel, H.-J. Werner, 1991, M. Deegan, P.J. Knowles, 1992


 Convergence thresholds:  THRVAR = 1.00D-08  THRDEN = 1.00D-10

 CCSD(T)     terms to be evaluated (factor= 1.000)


 Number of core orbitals:           2 (   2 )
 Number of closed-shell orbitals:   8 (   8 )
 Number of external orbitals:     220 ( 220 )

 Molecular orbitals read from record     2100.2  Type=RHF/CANONICAL (state 1.1)

 Number of N-1 electron functions:               8
 Number of N-2 electron functions:              36
 Number of singly external CSFs:              1760
 Number of doubly external CSFs:           1549680
 Total number of CSFs:                     1551441

 Length of J-op  integral file:               0.00 MB
 Length of K-op  integral file:               3.65 MB
 Length of 3-ext integral record:             0.00 MB

 Memory could be reduced to 116.39 Mwords without degradation in triples

 Integral transformation finished. Total CPU:  25.35 sec, npass=  1  Memory used:  59.35 MW

 Reference energy:                   -116.27103045

 MP2 singlet pair energy:              -0.31751502
 MP2 triplet pair energy:              -0.15397129
 MP2 correlation energy:               -0.47148631
 MP2 total energy:                   -116.74251676

 SCS-MP2 correlation energy:           -0.47682238   (PS=  1.200000  PT=  0.333333)
 SCS-MP2 total energy:               -116.74785283

 ITER.      SQ.NORM     CORR.ENERGY   TOTAL ENERGY   ENERGY CHANGE        DEN1      VAR(S)    VAR(P)  DIIS     TIME  TIME/IT
   1      1.13550146    -0.49416104  -116.76519149    -0.02267473    -0.01143502  0.14D-02  0.20D-02  1  1    39.77    14.41
   2      1.14457792    -0.49557539  -116.76660584    -0.00141435    -0.01038221  0.23D-04  0.24D-03  2  2    54.28    14.61
   3      1.14758618    -0.49570602  -116.76673647    -0.00013063    -0.00196602  0.15D-04  0.12D-04  3  3    68.79    14.66
   4      1.14839389    -0.49570650  -116.76673695    -0.00000048    -0.00036455  0.59D-06  0.12D-05  4  4    83.28    14.69
   5      1.14855443    -0.49570382  -116.76673427     0.00000268    -0.00005107  0.21D-06  0.80D-07  5  5    97.80    14.71
   6      1.14860306    -0.49569921  -116.76672966     0.00000461    -0.00001224  0.19D-07  0.57D-08  6  6   112.36    14.73
   7      1.14861179    -0.49569856  -116.76672901     0.00000065    -0.00000100  0.18D-08  0.10D-08  6  2   126.94    14.73
   8      1.14861392    -0.49569840  -116.76672885     0.00000016    -0.00000018  0.36D-09  0.11D-09  6  1   141.54    14.74
   9      1.14861472    -0.49569835  -116.76672880     0.00000004     0.00000016  0.28D-10  0.14D-10  6  3   156.10    14.74
  10      1.14861482    -0.49569835  -116.76672880     0.00000001     0.00000005  0.55D-11  0.32D-11  6  1   170.58    14.75
  11      1.14861489    -0.49569835  -116.76672879     0.00000000     0.00000002  0.61D-12  0.25D-12  6  4   185.10    14.75
  12      1.14861488    -0.49569835  -116.76672879    -0.00000000     0.00000001  0.12D-12  0.38D-13  6  5   199.67    14.75
  13      1.14861487    -0.49569835  -116.76672880    -0.00000000     0.00000000  0.18D-13  0.56D-14  6  6   214.20    14.75
  14      1.14861486    -0.49569835  -116.76672880    -0.00000000     0.00000000  0.25D-14  0.12D-14  6  1   228.79    14.76
  15      1.14861486    -0.49569835  -116.76672880    -0.00000000     0.00000000  0.17D-15  0.96D-16  6  2   243.34    14.76
  16      1.14861486    -0.49569835  -116.76672880    -0.00000000     0.00000000  0.26D-16  0.14D-16  6  3   257.89    14.76
  17      1.14861486    -0.49569835  -116.76672880     0.00000000    -0.00000000  0.29D-17  0.25D-17  6  4   272.36    14.76

 Norm of t1 vector:      0.05146103      S-energy:     0.00000000      T1 diagnostic:  0.00909711
                                                                       D1 diagnostic:  0.02251118


 Total CPU time for triples:    218.04 sec


 RESULTS
 =======

  Reference energy                   -116.271030449167
  CCSD singlet pair energy             -0.354546501097
  CCSD triplet pair energy             -0.141151846692
  CCSD correlation energy              -0.495698347781

  Triples (T) contribution             -0.015430963486
  Total correlation energy             -0.511129311267

  CCSD total energy                  -116.766728796948
  CCSD[T] energy                     -116.782686532131
  CCSD-T energy                      -116.781905844421
 !CCSD(T) total energy               -116.782159760435

 Timing summary (sec):

 STEP                 CPU(USER)    SYS     CPU(TOT)    WALL
 Transformation         25.53      0.98     26.51     26.61
 CCSD iterations       246.85      3.68    250.53    250.94
 Triples               218.04      0.75    218.79    219.14

 Program statistics:

 Available memory in ccsd:              1999999734
 Min. memory needed in ccsd:               4617529
 Max. memory used in ccsd:                 5944569
 Max. memory used in cckext:               4248553 (17 integral passes)



 **********************************************************************************************************************************
 DATASETS  * FILE   NREC   LENGTH (MB)   RECORD NAMES
              1      19      398.13       500      610      700      900      950      970     1000      129      960     1100   
                                          VAR    BASINP    GEOM    SYMINP    ZMAT    AOBASIS   BASIS     P2S    ABASIS      S 
                                         1400     1410     1200     1210     1080     1600     1650     1700     1380   
                                           T        V       H0       H01     AOSYM     SMH    MOLCAS    OPER     JKOP   

              2       4        3.96       700     1000      520     2100   
                                         GEOM     BASIS   MCVARS     RHF  

 PROGRAMS   *        TOTAL   CCSD(T)    HF-SCF       INT
 CPU TIMES  *       519.75    490.68     14.97     13.87
 REAL TIME  *       535.61 SEC
 DISK USED  *       570.36 MB (local),        7.87 GB (total)
 SF USED    *       504.31 MB
 GA USED    *         0.00 MB       (max)       0.00 MB       (current)
 **********************************************************************************************************************************

 Running procedure: SET_MONOMER1

 Dummy atoms: C1  H41  H42  H43  H44


 Recomputing one-electron integrals since nuclear charges changed


 PROGRAM * SEWARD (Integral evaluation for generally contracted gaussian basis sets)     Author: Roland Lindh, 1990

 Geometry written to block  1 of record 700


 Point group  C1  



 ATOMIC COORDINATES

 NR  ATOM    CHARGE       X              Y              Z

   1  O8      8.00   -4.613766333    5.431639800   -4.129996445
   2  H15     1.00   -5.898213180    6.513508006   -3.364279420
   3  H16     1.00   -5.466221788    3.814790128   -4.412888446
   4  C1      0.00   -6.193010455    2.801518980    2.403542658
   5  H41     0.00   -4.656285171    1.699997622    3.119937832
   6  H42     0.00   -5.973046335    4.726205038    2.982932688
   7  H43     0.00   -7.940251230    2.077186956    3.118237078
   8  H44     0.00   -6.176569838    2.685300823    0.384937212

 Bond lengths in Bohr (Angstrom)

 1-2  1.845688241  1-3  1.849570504  4-5  2.021904040  4-6  2.022002335  4-7  2.021953343
     ( 0.976696155)     ( 0.978750561)     ( 1.069945541)     ( 1.069997556)     ( 1.069971630)

 4-8  2.022015060
     ( 1.070004290)

 Bond angles

  2-1-3  104.78050181   5-4-6  109.53398059   5-4-7  109.65604535   5-4-8  108.43490854

  6-4-7  109.49436728   6-4-8  109.86987750   7-4-8  109.83468330

 NUCLEAR CHARGE:                   10
 NUMBER OF PRIMITIVE AOS:         296
 NUMBER OF SYMMETRY AOS:          266
 NUMBER OF CONTRACTIONS:          230   (  230A   )
 NUMBER OF CORE ORBITALS:           1   (    1A   )
 NUMBER OF VALENCE ORBITALS:        6   (    6A   )

 MOLECULE CHANGED: INITIALIZING OCCUPATION AND DUMP RECORDS


 NUCLEAR REPULSION ENERGY    9.00136291

 Basis set:  JKFIT                   
 Basis size:   740
 Attributes:
 Sphericals:   T
 Basis set:  MP2FIT                  
 Basis size:   816
 Attributes:
 Sphericals:   T
 Basis set:  RI                      
 Basis size:   556
 Attributes:
 Sphericals:   T
 Basis set:  TDDFT                   
 Basis size:   816
 Attributes:
 Sphericals:   T

 Eigenvalues of metric

         1 0.447E-04 0.772E-04 0.100E-03 0.104E-03 0.335E-03 0.376E-03 0.528E-03 0.687E-03


 Contracted 2-electron integrals neglected if value below      1.0D-14

 OPERATOR DM      FOR CENTER  0  COORDINATES:    0.000000    0.000000    0.000000


 **********************************************************************************************************************************
 DATASETS  * FILE   NREC   LENGTH (MB)   RECORD NAMES
              1      18       32.04       500      610      700      900      950      970     1000      129      960     1100   
                                          VAR    BASINP    GEOM    SYMINP    ZMAT    AOBASIS   BASIS     P2S    ABASIS      S 
                                         1400     1410     1200     1210     1080     1600     1650     1700   
                                           T        V       H0       H01     AOSYM     SMH    MOLCAS    OPER   

              2       5        5.05       700     1000      520     2100      200   
                                         GEOM     BASIS   MCVARS     RHF    OPTIONS    

 PROGRAMS   *        TOTAL       INT   CCSD(T)    HF-SCF       INT
 CPU TIMES  *       519.99      0.22    490.68     14.97     13.87
 REAL TIME  *       536.40 SEC
 DISK USED  *       570.36 MB (local),        7.87 GB (total)
 SF USED    *       504.31 MB
 GA USED    *         0.00 MB       (max)       0.00 MB       (current)
 **********************************************************************************************************************************


 PROGRAM * RHF-SCF (CLOSED SHELL)       Authors: W. Meyer, H.-J. Werner


 NUMBER OF ELECTRONS:       5+    5-    SPACE SYMMETRY=1    SPIN SYMMETRY: Singlet 
 CONVERGENCE THRESHOLDS:    1.00E-08 (Density)    1.00E-11 (Energy)
 MAX. NUMBER OF ITERATIONS:       60
 INTERPOLATION TYPE:            DIIS
 INTERPOLATION STEPS:              2 (START)      1 (STEP)
 LEVEL SHIFTS:                  0.00 (CLOSED)  0.00 (OPEN) 



 Orbital guess generated from atomic densities. Full valence occupancy:    7

 Molecular orbital dump at record        2101.2

 Initial occupancy:   5

 ITERATION    DDIFF          GRAD             ENERGY        2-EL.EN.            DIPOLE MOMENTS         DIIS   ORB.
    1      0.000D+00      0.000D+00       -76.02025919     77.378026   -1.09441   -0.27467    0.24690    0    start
    2      0.000D+00      0.640D-02       -76.04693854     73.751362   -0.63644   -0.15911    0.14361    1    diag
    3      0.447D-02      0.408D-02       -76.05831174     75.355931   -0.75010   -0.18767    0.16931    2    diag
    4      0.161D-02      0.376D-03       -76.05850249     75.266418   -0.74578   -0.18646    0.16837    3    diag
    5      0.205D-03      0.105D-03       -76.05852256     75.280650   -0.74415   -0.18601    0.16802    4    diag
    6      0.639D-04      0.204D-04       -76.05852380     75.279772   -0.74385   -0.18592    0.16795    5    diag
    7      0.165D-04      0.403D-05       -76.05852386     75.279899   -0.74373   -0.18588    0.16793    6    diag
    8      0.461D-05      0.738D-06       -76.05852387     75.279885   -0.74370   -0.18587    0.16792    7    diag
    9      0.767D-06      0.929D-07       -76.05852387     75.279875   -0.74369   -0.18587    0.16792    8    diag
   10      0.897D-07      0.226D-07       -76.05852387     75.279879   -0.74369   -0.18587    0.16792    9    orth
   11      0.232D-07      0.413D-08       -76.05852387     75.279878   -0.74369   -0.18587    0.16792    9    diag
   12      0.488D-08      0.603D-09       -76.05852387     75.279878   -0.74369   -0.18587    0.16792    0    orth

 Final occupancy:   5

 !RHF STATE  1.1 Energy               -76.058523865330
 Nuclear energy                         9.00136291
 One-electron energy                 -122.69982593
 Two-electron energy                   37.63993916
 Virial quotient                       -1.00236035
 !RHF STATE  1.1 Dipole moment         -0.74369417    -0.18587242     0.16792039
 Dipole moment /Debye                  -1.89015823    -0.47240963     0.42678310

 Orbital energies:

         1.1          2.1          3.1          4.1          5.1          6.1          7.1
    -20.570611    -1.343052    -0.707220    -0.580470    -0.508621     0.019827     0.040982


 HOMO      5.1    -0.508621 =     -13.8403eV
 LUMO      6.1     0.019827 =       0.5395eV
 LUMO-HOMO         0.528449 =      14.3798eV


 **********************************************************************************************************************************
 DATASETS  * FILE   NREC   LENGTH (MB)   RECORD NAMES
              1      18       32.04       500      610      700      900      950      970     1000      129      960     1100   
                                          VAR    BASINP    GEOM    SYMINP    ZMAT    AOBASIS   BASIS     P2S    ABASIS      S 
                                         1400     1410     1200     1210     1080     1600     1650     1700   
                                           T        V       H0       H01     AOSYM     SMH    MOLCAS    OPER   

              2       6        9.09       700     1000      520     2100      200     2101   
                                         GEOM     BASIS   MCVARS     RHF    OPTIONS    RHF  

 PROGRAMS   *        TOTAL    HF-SCF       INT   CCSD(T)    HF-SCF       INT
 CPU TIMES  *       533.30     13.32      0.22    490.68     14.97     13.87
 REAL TIME  *       551.21 SEC
 DISK USED  *       570.36 MB (local),        7.87 GB (total)
 SF USED    *       504.31 MB
 GA USED    *         0.00 MB       (max)       0.00 MB       (current)
 **********************************************************************************************************************************

 Basis set:  JKFIT                   
 Basis size:   740
 Attributes:
 Sphericals:   T
 Basis set:  MP2FIT                  
 Basis size:   816
 Attributes:
 Sphericals:   T
 Basis set:  RI                      
 Basis size:   556
 Attributes:
 Sphericals:   T
 Basis set:  TDDFT                   
 Basis size:   816
 Attributes:
 Sphericals:   T

 PROGRAM * CCSD (Closed-shell coupled cluster)     Authors: C. Hampel, H.-J. Werner, 1991, M. Deegan, P.J. Knowles, 1992


 Convergence thresholds:  THRVAR = 1.00D-08  THRDEN = 1.00D-10

 CCSD(T)     terms to be evaluated (factor= 1.000)


 Number of core orbitals:           1 (   1 )
 Number of closed-shell orbitals:   4 (   4 )
 Number of external orbitals:     225 ( 225 )

 Molecular orbitals read from record     2101.2  Type=RHF/CANONICAL (state 1.1)

 Number of N-1 electron functions:               4
 Number of N-2 electron functions:              10
 Number of singly external CSFs:               900
 Number of doubly external CSFs:            405450
 Total number of CSFs:                      406351

 Length of J-op  integral file:               0.00 MB
 Length of K-op  integral file:               3.65 MB
 Length of 3-ext integral record:             0.00 MB

 Memory could be reduced to 75.63 Mwords without degradation in triples

 Integral transformation finished. Total CPU:  12.19 sec, npass=  1  Memory used:  32.52 MW

 Reference energy:                    -76.05852387

 MP2 singlet pair energy:              -0.17183211
 MP2 triplet pair energy:              -0.09827678
 MP2 correlation energy:               -0.27010889
 MP2 total energy:                    -76.32863276

 SCS-MP2 correlation energy:           -0.26734853   (PS=  1.200000  PT=  0.333333)
 SCS-MP2 total energy:                -76.32587240

 ITER.      SQ.NORM     CORR.ENERGY   TOTAL ENERGY   ENERGY CHANGE        DEN1      VAR(S)    VAR(P)  DIIS     TIME  TIME/IT
   1      1.06417258    -0.27423987   -76.33276373    -0.00413097     0.00163097  0.93D-03  0.10D-02  1  1    16.07     3.91
   2      1.06803294    -0.27454720   -76.33307107    -0.00030734    -0.00493806  0.12D-04  0.13D-03  2  2    20.00     3.97
   3      1.06949084    -0.27463174   -76.33315561    -0.00008454    -0.00094115  0.11D-04  0.59D-05  3  3    23.87     4.00
   4      1.06996620    -0.27462538   -76.33314925     0.00000636    -0.00021907  0.52D-06  0.73D-06  4  4    27.81     4.01
   5      1.07007385    -0.27462238   -76.33314624     0.00000301    -0.00003412  0.17D-06  0.49D-07  5  5    31.66     4.02
   6      1.07011070    -0.27461900   -76.33314287     0.00000338    -0.00000751  0.17D-07  0.40D-08  6  6    35.56     4.03
   7      1.07011825    -0.27461865   -76.33314251     0.00000036    -0.00000074  0.15D-08  0.82D-09  6  1    39.41     4.02
   8      1.07012014    -0.27461855   -76.33314242     0.00000009    -0.00000014  0.24D-09  0.94D-10  6  2    43.31     4.02
   9      1.07012071    -0.27461851   -76.33314238     0.00000004     0.00000020  0.19D-10  0.85D-11  6  3    47.15     4.02
  10      1.07012089    -0.27461850   -76.33314236     0.00000002    -0.00000002  0.26D-11  0.14D-11  6  4    51.06     4.03
  11      1.07012088    -0.27461850   -76.33314237    -0.00000001     0.00000002  0.57D-12  0.16D-12  6  5    54.90     4.02
  12      1.07012088    -0.27461850   -76.33314237     0.00000000     0.00000000  0.96D-13  0.30D-13  6  6    58.80     4.02
  13      1.07012088    -0.27461850   -76.33314237    -0.00000000     0.00000000  0.15D-13  0.55D-14  6  1    62.74     4.02
  14      1.07012087    -0.27461850   -76.33314237    -0.00000000     0.00000000  0.14D-14  0.66D-15  6  2    66.64     4.03
  15      1.07012087    -0.27461850   -76.33314237    -0.00000000     0.00000000  0.16D-15  0.12D-15  6  3    70.55     4.03
  16      1.07012087    -0.27461850   -76.33314237    -0.00000000     0.00000000  0.32D-16  0.17D-16  6  4    74.34     4.03

 Norm of t1 vector:      0.04120959      S-energy:    -0.00000000      T1 diagnostic:  0.01030240
                                                                       D1 diagnostic:  0.02190980


 Total CPU time for triples:     34.29 sec


 RESULTS
 =======

  Reference energy                    -76.058523865330
  CCSD singlet pair energy             -0.187656777897
  CCSD triplet pair energy             -0.086961724448
  CCSD correlation energy              -0.274618502397

  Triples (T) contribution             -0.008844529928
  Total correlation energy             -0.283463032325

  CCSD total energy                   -76.333142367727
  CCSD[T] energy                      -76.342324012855
  CCSD-T energy                       -76.341805390736
 !CCSD(T) total energy                -76.341986897655

 Timing summary (sec):

 STEP                 CPU(USER)    SYS     CPU(TOT)    WALL
 Transformation         12.24      0.51     12.75     12.77
 CCSD iterations        62.12      2.29     64.41     64.50
 Triples                34.29      0.11     34.40     34.45

 Program statistics:

 Available memory in ccsd:              1999999921
 Min. memory needed in ccsd:               1865022
 Max. memory used in ccsd:                 2159652
 Max. memory used in cckext:               1451153 (16 integral passes)



 **********************************************************************************************************************************
 DATASETS  * FILE   NREC   LENGTH (MB)   RECORD NAMES
              1      19      222.33       500      610      700      900      950      970     1000      129      960     1100   
                                          VAR    BASINP    GEOM    SYMINP    ZMAT    AOBASIS   BASIS     P2S    ABASIS      S 
                                         1400     1410     1200     1210     1080     1600     1650     1700     1380   
                                           T        V       H0       H01     AOSYM     SMH    MOLCAS    OPER     JKOP   

              2       6        9.09       700     1000      520     2100      200     2101   
                                         GEOM     BASIS   MCVARS     RHF    OPTIONS    RHF  

 PROGRAMS   *        TOTAL   CCSD(T)    HF-SCF       INT   CCSD(T)    HF-SCF       INT
 CPU TIMES  *       642.17    108.87     13.32      0.22    490.68     14.97     13.87
 REAL TIME  *       663.67 SEC
 DISK USED  *       570.36 MB (local),        7.87 GB (total)
 SF USED    *       504.31 MB
 GA USED    *         0.00 MB       (max)       0.00 MB       (current)
 **********************************************************************************************************************************

 Running procedure: SET_MONOMER2

 Dummy atoms: O8  H15  H16


 Recomputing one-electron integrals since nuclear charges changed


 PROGRAM * SEWARD (Integral evaluation for generally contracted gaussian basis sets)     Author: Roland Lindh, 1990

 Geometry written to block  1 of record 700


 Point group  C1  



 ATOMIC COORDINATES

 NR  ATOM    CHARGE       X              Y              Z

   1  O8      0.00   -4.613766333    5.431639800   -4.129996445
   2  H15     0.00   -5.898213180    6.513508006   -3.364279420
   3  H16     0.00   -5.466221788    3.814790128   -4.412888446
   4  C1      6.00   -6.193010455    2.801518980    2.403542658
   5  H41     1.00   -4.656285171    1.699997622    3.119937832
   6  H42     1.00   -5.973046335    4.726205038    2.982932688
   7  H43     1.00   -7.940251230    2.077186956    3.118237078
   8  H44     1.00   -6.176569838    2.685300823    0.384937212

 Bond lengths in Bohr (Angstrom)

 1-2  1.845688241  1-3  1.849570504  4-5  2.021904040  4-6  2.022002335  4-7  2.021953343
     ( 0.976696155)     ( 0.978750561)     ( 1.069945541)     ( 1.069997556)     ( 1.069971630)

 4-8  2.022015060
     ( 1.070004290)

 Bond angles

  2-1-3  104.78050181   5-4-6  109.53398059   5-4-7  109.65604535   5-4-8  108.43490854

  6-4-7  109.49436728   6-4-8  109.86987750   7-4-8  109.83468330

 NUCLEAR CHARGE:                   10
 NUMBER OF PRIMITIVE AOS:         296
 NUMBER OF SYMMETRY AOS:          266
 NUMBER OF CONTRACTIONS:          230   (  230A   )
 NUMBER OF CORE ORBITALS:           1   (    1A   )
 NUMBER OF VALENCE ORBITALS:        8   (    8A   )

 MOLECULE CHANGED: INITIALIZING OCCUPATION AND DUMP RECORDS


 NUCLEAR REPULSION ENERGY   13.68681606

 Basis set:  JKFIT                   
 Basis size:   740
 Attributes:
 Sphericals:   T
 Basis set:  MP2FIT                  
 Basis size:   816
 Attributes:
 Sphericals:   T
 Basis set:  RI                      
 Basis size:   556
 Attributes:
 Sphericals:   T
 Basis set:  TDDFT                   
 Basis size:   816
 Attributes:
 Sphericals:   T

 Eigenvalues of metric

         1 0.447E-04 0.772E-04 0.100E-03 0.104E-03 0.335E-03 0.376E-03 0.528E-03 0.687E-03


 Contracted 2-electron integrals neglected if value below      1.0D-14

 OPERATOR DM      FOR CENTER  0  COORDINATES:    0.000000    0.000000    0.000000


 **********************************************************************************************************************************
 DATASETS  * FILE   NREC   LENGTH (MB)   RECORD NAMES
              1      18       32.04       500      610      700      900      950      970     1000      129      960     1100   
                                          VAR    BASINP    GEOM    SYMINP    ZMAT    AOBASIS   BASIS     P2S    ABASIS      S 
                                         1400     1410     1200     1210     1080     1600     1650     1700   
                                           T        V       H0       H01     AOSYM     SMH    MOLCAS    OPER   

              2       6        9.09       700     1000      520     2100      200     2101   
                                         GEOM     BASIS   MCVARS     RHF    OPTIONS    RHF  

 PROGRAMS   *        TOTAL       INT   CCSD(T)    HF-SCF       INT   CCSD(T)    HF-SCF       INT
 CPU TIMES  *       642.42      0.24    108.87     13.32      0.22    490.68     14.97     13.87
 REAL TIME  *       664.44 SEC
 DISK USED  *       570.36 MB (local),        7.87 GB (total)
 SF USED    *       504.31 MB
 GA USED    *         0.00 MB       (max)       0.00 MB       (current)
 **********************************************************************************************************************************


 PROGRAM * RHF-SCF (CLOSED SHELL)       Authors: W. Meyer, H.-J. Werner


 NUMBER OF ELECTRONS:       5+    5-    SPACE SYMMETRY=1    SPIN SYMMETRY: Singlet 
 CONVERGENCE THRESHOLDS:    1.00E-08 (Density)    1.00E-11 (Energy)
 MAX. NUMBER OF ITERATIONS:       60
 INTERPOLATION TYPE:            DIIS
 INTERPOLATION STEPS:              2 (START)      1 (STEP)
 LEVEL SHIFTS:                  0.00 (CLOSED)  0.00 (OPEN) 



 Orbital guess generated from atomic densities. Full valence occupancy:    9

 Molecular orbital dump at record        2102.2

 Initial occupancy:   5

 ITERATION    DDIFF          GRAD             ENERGY        2-EL.EN.            DIPOLE MOMENTS         DIIS   ORB.
    1      0.000D+00      0.000D+00       -40.19358947     53.494057    0.00411   -0.00276   -0.00132    0    start
    2      0.000D+00      0.353D-02       -40.21070709     52.213696    0.00129   -0.00088   -0.00041    1    diag
    3      0.326D-02      0.137D-02       -40.21295554     52.664872    0.00182   -0.00124   -0.00057    2    diag
    4      0.910D-03      0.342D-03       -40.21327099     52.609850    0.00162   -0.00110   -0.00050    3    diag
    5      0.302D-03      0.444D-04       -40.21327638     52.612187    0.00159   -0.00108   -0.00049    4    diag
    6      0.840D-04      0.345D-05       -40.21327642     52.612284    0.00159   -0.00108   -0.00049    5    diag
    7      0.697D-05      0.264D-06       -40.21327642     52.612250    0.00159   -0.00108   -0.00049    6    diag
    8      0.103D-05      0.221D-07       -40.21327642     52.612251    0.00159   -0.00108   -0.00049    7    diag
    9      0.188D-06      0.285D-08       -40.21327642     52.612251    0.00159   -0.00108   -0.00049    8    diag
   10      0.101D-07      0.797D-09       -40.21327642     52.612251    0.00159   -0.00108   -0.00049    9    orth
   11      0.131D-08      0.107D-09       -40.21327642     52.612251    0.00159   -0.00108   -0.00049    0    orth

 Final occupancy:   5

 !RHF STATE  1.1 Energy               -40.213276417371
 Nuclear energy                        13.68681606
 One-electron energy                  -80.20621780
 Two-electron energy                   26.30612533
 Virial quotient                       -0.99869860
 !RHF STATE  1.1 Dipole moment          0.00159277    -0.00108173    -0.00049173
 Dipole moment /Debye                   0.00404815    -0.00274931    -0.00124977

 Orbital energies:

         1.1          2.1          3.1          4.1          5.1          6.1          7.1
    -11.197208    -0.950742    -0.551695    -0.549758    -0.547581     0.027120     0.042689


 HOMO      5.1    -0.547581 =     -14.9004eV
 LUMO      6.1     0.027120 =       0.7380eV
 LUMO-HOMO         0.574701 =      15.6384eV


 **********************************************************************************************************************************
 DATASETS  * FILE   NREC   LENGTH (MB)   RECORD NAMES
              1      18       32.04       500      610      700      900      950      970     1000      129      960     1100   
                                          VAR    BASINP    GEOM    SYMINP    ZMAT    AOBASIS   BASIS     P2S    ABASIS      S 
                                         1400     1410     1200     1210     1080     1600     1650     1700   
                                           T        V       H0       H01     AOSYM     SMH    MOLCAS    OPER   

              2       7       13.71       700     1000      520     2100      200     2101     2102   
                                         GEOM     BASIS   MCVARS     RHF    OPTIONS    RHF      RHF  

 PROGRAMS   *        TOTAL    HF-SCF       INT   CCSD(T)    HF-SCF       INT   CCSD(T)    HF-SCF       INT
 CPU TIMES  *       654.77     12.35      0.24    108.87     13.32      0.22    490.68     14.97     13.87
 REAL TIME  *       678.10 SEC
 DISK USED  *       570.36 MB (local),        7.87 GB (total)
 SF USED    *       504.31 MB
 GA USED    *         0.00 MB       (max)       0.00 MB       (current)
 **********************************************************************************************************************************

 Basis set:  JKFIT                   
 Basis size:   740
 Attributes:
 Sphericals:   T
 Basis set:  MP2FIT                  
 Basis size:   816
 Attributes:
 Sphericals:   T
 Basis set:  RI                      
 Basis size:   556
 Attributes:
 Sphericals:   T
 Basis set:  TDDFT                   
 Basis size:   816
 Attributes:
 Sphericals:   T

 PROGRAM * CCSD (Closed-shell coupled cluster)     Authors: C. Hampel, H.-J. Werner, 1991, M. Deegan, P.J. Knowles, 1992


 Convergence thresholds:  THRVAR = 1.00D-08  THRDEN = 1.00D-10

 CCSD(T)     terms to be evaluated (factor= 1.000)


 Number of core orbitals:           1 (   1 )
 Number of closed-shell orbitals:   4 (   4 )
 Number of external orbitals:     225 ( 225 )

 Molecular orbitals read from record     2102.2  Type=RHF/CANONICAL (state 1.1)

 Number of N-1 electron functions:               4
 Number of N-2 electron functions:              10
 Number of singly external CSFs:               900
 Number of doubly external CSFs:            405450
 Total number of CSFs:                      406351

 Length of J-op  integral file:               0.00 MB
 Length of K-op  integral file:               3.65 MB
 Length of 3-ext integral record:             0.00 MB

 Memory could be reduced to 75.63 Mwords without degradation in triples

 Integral transformation finished. Total CPU:  12.28 sec, npass=  1  Memory used:  32.52 MW

 Reference energy:                    -40.21327642

 MP2 singlet pair energy:              -0.14546989
 MP2 triplet pair energy:              -0.05506692
 MP2 correlation energy:               -0.20053681
 MP2 total energy:                    -40.41381323

 SCS-MP2 correlation energy:           -0.20882773   (PS=  1.200000  PT=  0.333333)
 SCS-MP2 total energy:                -40.42210415

 ITER.      SQ.NORM     CORR.ENERGY   TOTAL ENERGY   ENERGY CHANGE        DEN1      VAR(S)    VAR(P)  DIIS     TIME  TIME/IT
   1      1.07101120    -0.21908100   -40.43235741    -0.01854419    -0.01309075  0.46D-03  0.10D-02  1  1    16.13     3.94
   2      1.07650405    -0.22018231   -40.43345873    -0.00110131    -0.00567752  0.13D-04  0.71D-04  2  2    20.04     4.00
   3      1.07773292    -0.22023557   -40.43351199    -0.00005326    -0.00078868  0.16D-05  0.48D-05  3  3    23.96     4.02
   4      1.07803708    -0.22024458   -40.43352100    -0.00000901    -0.00012822  0.92D-07  0.22D-06  4  4    27.91     4.04
   5      1.07808329    -0.22024352   -40.43351993     0.00000106    -0.00001887  0.57D-08  0.16D-07  5  5    31.85     4.05
   6      1.07808821    -0.22024272   -40.43351914     0.00000079    -0.00000159  0.47D-09  0.11D-08  6  6    35.75     4.04
   7      1.07808892    -0.22024257   -40.43351899     0.00000015    -0.00000033  0.33D-10  0.95D-10  6  1    39.66     4.04
   8      1.07808897    -0.22024260   -40.43351902    -0.00000003     0.00000011  0.28D-11  0.58D-11  6  2    43.57     4.05
   9      1.07808898    -0.22024261   -40.43351902    -0.00000000     0.00000002  0.32D-12  0.50D-12  6  3    47.44     4.04
  10      1.07808897    -0.22024260   -40.43351902     0.00000000     0.00000001  0.27D-13  0.50D-13  6  4    51.28     4.04
  11      1.07808896    -0.22024260   -40.43351902     0.00000000     0.00000001  0.22D-14  0.50D-14  6  5    55.13     4.04
  12      1.07808896    -0.22024260   -40.43351902     0.00000000     0.00000000  0.53D-16  0.59D-15  6  6    59.06     4.04

 Norm of t1 vector:      0.02947352      S-energy:     0.00000000      T1 diagnostic:  0.00736838
                                                                       D1 diagnostic:  0.01186634

 Total CPU time for triples:     34.18 sec


 RESULTS
 =======

  Reference energy                    -40.213276417371
  CCSD singlet pair energy             -0.166746478987
  CCSD triplet pair energy             -0.053496125428
  CCSD correlation energy              -0.220242604356

  Triples (T) contribution             -0.006424200522
  Total correlation energy             -0.226666804878

  CCSD total energy                   -40.433519021727
  CCSD[T] energy                      -40.440125790404
  CCSD-T energy                       -40.439875334177
 !CCSD(T) total energy                -40.439943222249

 Timing summary (sec):

 STEP                 CPU(USER)    SYS     CPU(TOT)    WALL
 Transformation         12.33      0.49     12.82     12.83
 CCSD iterations        46.74      1.73     48.47     48.56
 Triples                34.18      0.12     34.30     34.35

 Program statistics:

 Available memory in ccsd:              1999999916
 Min. memory needed in ccsd:               1865022
 Max. memory used in ccsd:                 2159652
 Max. memory used in cckext:               1451153 (12 integral passes)



 **********************************************************************************************************************************
 DATASETS  * FILE   NREC   LENGTH (MB)   RECORD NAMES
              1      19      222.33       500      610      700      900      950      970     1000      129      960     1100   
                                          VAR    BASINP    GEOM    SYMINP    ZMAT    AOBASIS   BASIS     P2S    ABASIS      S 
                                         1400     1410     1200     1210     1080     1600     1650     1700     1380   
                                           T        V       H0       H01     AOSYM     SMH    MOLCAS    OPER     JKOP   

              2       7       13.71       700     1000      520     2100      200     2101     2102   
                                         GEOM     BASIS   MCVARS     RHF    OPTIONS    RHF      RHF  

 PROGRAMS   *        TOTAL   CCSD(T)    HF-SCF       INT   CCSD(T)    HF-SCF       INT   CCSD(T)    HF-SCF       INT
 CPU TIMES  *       748.25     93.47     12.35      0.24    108.87     13.32      0.22    490.68     14.97     13.87
 REAL TIME  *       774.61 SEC
 DISK USED  *       570.36 MB (local),        7.87 GB (total)
 SF USED    *       504.31 MB
 GA USED    *         0.00 MB       (max)       0.00 MB       (current)
 **********************************************************************************************************************************
 Molecular orbitals read from record     2102.2  Type=RHF/CANONICAL (state 1.1)
 Occupation numbers read from record     2102.2  Type=RHF/RHF (state 1.1)
 Orbital energies read from record       2102.2  Type=RHF/CANONICAL (state 1.1)
 Redundancy group numbers read from rec  2102.2  Type=RHF/RHF (state 1.1)

 CCSD(T)/aug-cc-pVTZ energy=    -40.439943222249

         CCSD(T)          HF-SCF         CCSD(T)          HF-SCF         CCSD(T)          HF-SCF
    -40.43994322    -40.21327642    -76.34198690    -76.05852387   -116.78215976   -116.27103045
 **********************************************************************************************************************************
 Molpro calculation terminated
