
 Primary working directories    : /scratch/klimes/383091/molpro.fAc6Kfbef9
 Secondary working directories  : /scratch/klimes/383091/molpro.fAc6Kfbef9
 Wavefunction directory         : /scratch/klimes/383091/
 Main file repository           : /scratch/klimes/383091/molpro.fAc6Kfbef9/

 id        : karlovklimes

 Nodes                      nprocs
 nc-03.cc.karlov.mff.cuni.cz    4

 Using customized tuning parameters: mindgm=1; mindgv=20; mindgc=4; mindgr=1; noblas=0; minvec=7
 default implementation of scratch files=sf  


 Variables initialized (930), CPU time= 0.01 sec
                                                                                 !gdirect
 memory,2000,m
 gthresh,orbital=1d-10,energy=1d-10,grid=1d-8
 
 symmetry,nosym
 angstrom
 geometry={
 O9        -3.518900000000     -2.419500000000      0.991300000000
 H17        -3.388900000000     -3.371800000000      0.893300000000
 H18        -2.990700000000     -2.010200000000      0.231000000000
 C1        -3.277200000000      1.482500000000      1.271900000000
 H41        -2.464000000000      0.899600000000      1.651000000000
 H42        -3.160800000000      2.501000000000      1.578500000000
 H43        -4.201800000000      1.099200000000      1.650100000000
 H44        -3.268500000000      1.421000000000      0.203700000000
 }
 
 nkerna=1
 nkernb=1
 
 gf=0
 sing=1
 thrdum=1d-4
 gridthr=1d-8
 
 basis={
 set,orbital
 default,avtz
 set,jkfit
 default,avqz/jkfit
 set,mp2fit
 default,avqz/mp2fit
 set,ri
 default,avqz/optri
 set,tddft
 default,avqz/mp2fit
 }
 
 proc set_monomer1
 dummy,4,5,6,7,8
 endproc
 
 proc set_monomer2
 dummy,1,2,3
 endproc
 
                                                                                 !1234 energy
 {hf,accu=1.d-16}
 ccsd(t)
 
 set_monomer1
 {hf,accu=1.d-16}
 ccsd(t)
 
 set_monomer2
 {hf,accu=1.d-16}
 ccsd(t)
 
 Commands  initialized (760), CPU time= 0.01 sec, 617 directives.
 Default parameters read. Elapsed time= 0.19 sec

 Checking input...
 Passed
1


                                         ***  PROGRAM SYSTEM MOLPRO  ***
                                       Copyright, TTI GmbH Stuttgart, 2015
                                    Version 2019.1 linked Jan 14 2019 13:09:19


 **********************************************************************************************************************************
 LABEL *                                                                                 
  64 bit mpp version                                                                     DATE: 11-Mar-20          TIME: 12:52:30  
 **********************************************************************************************************************************

 SHA1:             d688ac825633d238f2093ded1675ba87ccd55965
 **********************************************************************************************************************************

 THRESHOLDS:

 ZERO    =  1.00D-12  ONEINT  =  1.00D-12  TWOINT  =  1.00D-11  PREFAC  =  1.00D-14  XXXXXX  =  1.00D-09  EORDER  =  1.00D-04
 ENERGY  =  1.00D-10  ETEST   =  0.00D+00  EDENS   =  0.00D+00  THRDEDEF=  1.00D-06  GRADIENT=  1.00D-02  STEP    =  1.00D-03
 ORBITAL =  1.00D-10  CIVEC   =  1.00D-05  COEFF   =  1.00D-04  PRINTCI =  5.00D-02  PUNCHCI =  9.90D+01  OPTGRAD =  3.00D-04
 OPTENERG=  1.00D-06  OPTSTEP =  3.00D-04  THRGRAD =  1.00D-10  COMPRESS=  1.00D-11  VARMIN  =  1.00D-07  VARMAX  =  1.00D-03
 THRDOUB =  0.00D+00  THRDIV  =  1.00D-05  THRRED  =  1.00D-07  THRPSP  =  1.00D+00  THRDC   =  1.00D-10  THRCS   =  1.00D-10
 THRNRM  =  1.00D-08  THREQ   =  0.00D+00  THRDE   =  1.00D+00  THRREF  =  1.00D-05  SPARFAC =  1.00D+00  THRDLP  =  1.00D-07
 THRDIA  =  1.00D-10  THRDLS  =  1.00D-07  THRGPS  =  0.00D+00  THRKEX  =  0.00D+00  THRDIS  =  2.00D-01  THRVAR  =  1.00D-10
 THRLOC  =  1.00D-06  THRGAP  =  1.00D-06  THRLOCT = -1.00D+00  THRGAPT = -1.00D+00  THRORB  =  1.00D-06  THRMLTP =  0.00D+00
 THRCPQCI=  1.00D-10  KEXTA   =  0.00D+00  THRCOARS=  0.00D+00  SYMTOL  =  1.00D-06  GRADTOL =  1.00D-06  THROVL  =  1.00D-08
 THRORTH =  1.00D-08  GRID    =  1.00D-08  GRIDMAX =  1.00D-03  DTMAX   =  0.00D+00  THROCCDE=  1.00D-01  THROCCDE=  1.00D-01
 THRPRINT=  2.50D-01


 Variable memory set to 2000000000 words,  buffer space 

 ZSYMEL=NOSYM
 ZUNIT=ANG


Geometry recognized as XYZ

 SETTING NKERNA         =         1.00000000                                  
 SETTING NKERNB         =         1.00000000                                  
 SETTING GF             =     0.00000000D+00                                  
 SETTING SING           =         1.00000000                                  
 SETTING THRDUM         =     1.00000000D-04                                  
 SETTING GRIDTHR        =     1.00000000D-08                                  
 SETTING BASIS          =    AVTZ


 Recomputing integrals since basis changed


 Using spherical harmonics

 Library entry O      S aug-cc-pVTZ          selected for orbital group  1
 Library entry O      P aug-cc-pVTZ          selected for orbital group  1
 Library entry O      D aug-cc-pVTZ          selected for orbital group  1
 Library entry O      F aug-cc-pVTZ          selected for orbital group  1
 Library entry H      S aug-cc-pVTZ          selected for orbital group  2
 Library entry H      P aug-cc-pVTZ          selected for orbital group  2
 Library entry H      D aug-cc-pVTZ          selected for orbital group  2
 Library entry C      S aug-cc-pVTZ          selected for orbital group  3
 Library entry C      P aug-cc-pVTZ          selected for orbital group  3
 Library entry C      D aug-cc-pVTZ          selected for orbital group  3
 Library entry C      F aug-cc-pVTZ          selected for orbital group  3


 PROGRAM * SEWARD (Integral evaluation for generally contracted gaussian basis sets)     Author: Roland Lindh, 1990

 Geometry written to block  1 of record 700


 Point group  C1  



 ATOMIC COORDINATES

 NR  ATOM    CHARGE       X              Y              Z

   1  O9      8.00   -6.649757260   -4.572192358    1.873285507
   2  H17     1.00   -6.404092864   -6.371778547    1.688092347
   3  H18     1.00   -5.651603921   -3.798727456    0.436526735
   4  C1      6.00   -6.193010455    2.801518980    2.403542658
   5  H41     1.00   -4.656285171    1.699997622    3.119937832
   6  H42     1.00   -5.973046335    4.726205038    2.982932688
   7  H43     1.00   -7.940251230    2.077186956    3.118237078
   8  H44     1.00   -6.176569838    2.685300823    0.384937212

 Bond lengths in Bohr (Angstrom)

 1-2  1.825693827  1-3  1.912807835  4-5  2.021904040  4-6  2.022002335  4-7  2.021953343
     ( 0.966115568)     ( 1.012214315)     ( 1.069945541)     ( 1.069997556)     ( 1.069971630)

 4-8  2.022015060
     ( 1.070004290)

 Bond angles

  2-1-3  104.60595341   5-4-6  109.53398059   5-4-7  109.65604535   5-4-8  108.43490854

  6-4-7  109.49436728   6-4-8  109.86987750   7-4-8  109.83468330

 NUCLEAR CHARGE:                   20
 NUMBER OF PRIMITIVE AOS:         296
 NUMBER OF SYMMETRY AOS:          266
 NUMBER OF CONTRACTIONS:          230   (  230A   )
 NUMBER OF CORE ORBITALS:           2   (    2A   )
 NUMBER OF VALENCE ORBITALS:       14   (   14A   )


 NUCLEAR REPULSION ENERGY   35.88176990


 Basis set:  JKFIT                   
 Basis size:   740
 Attributes:
 Sphericals:   T
 Basis set:  MP2FIT                  
 Basis size:   816
 Attributes:
 Sphericals:   T
 Basis set:  RI                      
 Basis size:   556
 Attributes:
 Sphericals:   T
 Basis set:  TDDFT                   
 Basis size:   816
 Attributes:
 Sphericals:   T

 **********************************************************************************************************************************


 Eigenvalues of metric

         1 0.556E-04 0.709E-04 0.104E-03 0.106E-03 0.333E-03 0.374E-03 0.645E-03 0.771E-03


 Contracted 2-electron integrals neglected if value below      1.0D-14
 AO integral compression algorithm  1   Integral accuracy      1.0D-14

     2044.723 MB (compressed) written to integral file ( 63.8%)

     Node minimum: 496.763 MB, node maximum: 537.133 MB


 NUMBER OF SORTED TWO-ELECTRON INTEGRALS:   88219044.     BUFFER LENGTH:  32768
 NUMBER OF SEGMENTS:   6  SEGMENT LENGTH:   15998348      RECORD LENGTH: 524288

 Memory used in sort:      16.56 MW

 SORT1 READ   400769927. AND WROTE    79555974. INTEGRALS IN    230 RECORDS. CPU TIME:     9.71 SEC, REAL TIME:    11.26 SEC
 SORT2 READ   318534034. AND WROTE   352862895. INTEGRALS IN   7716 RECORDS. CPU TIME:     3.43 SEC, REAL TIME:     5.38 SEC

 Node minimum:    88205762.  Node maximum:    88225686. integrals

 OPERATOR DM      FOR CENTER  0  COORDINATES:    0.000000    0.000000    0.000000


 **********************************************************************************************************************************
 DATASETS  * FILE   NREC   LENGTH (MB)   RECORD NAMES
              1      18       32.04       500      610      700      900      950      970     1000      129      960     1100   
                                          VAR    BASINP    GEOM    SYMINP    ZMAT    AOBASIS   BASIS     P2S    ABASIS      S 
                                         1400     1410     1200     1210     1080     1600     1650     1700   
                                           T        V       H0       H01     AOSYM     SMH    MOLCAS    OPER   

 PROGRAMS   *        TOTAL       INT
 CPU TIMES  *        18.49     18.26
 REAL TIME  *        28.20 SEC
 DISK USED  *        32.49 MB (local),        5.94 GB (total)
 GA USED    *         0.00 MB       (max)       0.00 MB       (current)
 **********************************************************************************************************************************


 PROGRAM * RHF-SCF (CLOSED SHELL)       Authors: W. Meyer, H.-J. Werner


 NUMBER OF ELECTRONS:      10+   10-    SPACE SYMMETRY=1    SPIN SYMMETRY: Singlet 
 CONVERGENCE THRESHOLDS:    1.00E-08 (Density)    1.00E-11 (Energy)
 MAX. NUMBER OF ITERATIONS:       60
 INTERPOLATION TYPE:            DIIS
 INTERPOLATION STEPS:              2 (START)      1 (STEP)
 LEVEL SHIFTS:                  0.00 (CLOSED)  0.00 (OPEN) 



 Orbital guess generated from atomic densities. Full valence occupancy:   16

 Molecular orbital dump at record        2100.2

 Initial occupancy:  10

 ITERATION    DDIFF          GRAD             ENERGY        2-EL.EN.            DIPOLE MOMENTS         DIIS   ORB.
    1      0.000D+00      0.000D+00      -116.21040651    157.493115    0.64559   -0.51574   -0.83920    0    start
    2      0.000D+00      0.524D-02      -116.25439013    152.436892    0.34100   -0.33062   -0.44456    1    diag
    3      0.551D-02      0.312D-02      -116.26829905    154.533906    0.41855   -0.38065   -0.54320    2    diag
    4      0.185D-02      0.457D-03      -116.26896064    154.421893    0.41190   -0.37786   -0.53358    3    diag
    5      0.413D-03      0.135D-03      -116.26903039    154.416325    0.41122   -0.37878   -0.53253    4    diag
    6      0.144D-03      0.331D-04      -116.26903438    154.422217    0.41067   -0.37881   -0.53173    5    diag
    7      0.391D-04      0.666D-05      -116.26903463    154.420647    0.41065   -0.37892   -0.53169    6    diag
    8      0.106D-04      0.176D-05      -116.26903465    154.420805    0.41059   -0.37894   -0.53161    7    diag
    9      0.238D-05      0.378D-06      -116.26903465    154.420778    0.41058   -0.37894   -0.53159    8    diag
   10      0.734D-06      0.427D-07      -116.26903465    154.420780    0.41057   -0.37894   -0.53159    9    orth
   11      0.591D-07      0.109D-07      -116.26903465    154.420781    0.41057   -0.37894   -0.53159    9    diag
   12      0.236D-07      0.279D-08      -116.26903465    154.420781    0.41057   -0.37894   -0.53159    9    diag
   13      0.390D-08      0.731D-09      -116.26903465    154.420781    0.41057   -0.37894   -0.53159    0    orth

 Final occupancy:  10

 !RHF STATE  1.1 Energy              -116.269034653425
 Nuclear energy                        35.88176990
 One-electron energy                 -229.36119508
 Two-electron energy                   77.21039053
 Virial quotient                       -1.00138448
 !RHF STATE  1.1 Dipole moment          0.41057374    -0.37893762    -0.53159291
 Dipole moment /Debye                   1.04350600    -0.96310029    -1.35108590

 Orbital energies:

         1.1          2.1          3.1          4.1          5.1          6.1          7.1          8.1          9.1         10.1
    -20.572284   -11.192459    -1.337900    -0.946035    -0.700852    -0.578332    -0.547535    -0.544225    -0.543015    -0.507570

        11.1         12.1
      0.027096     0.038978


 HOMO     10.1    -0.507570 =     -13.8117eV
 LUMO     11.1     0.027096 =       0.7373eV
 LUMO-HOMO         0.534666 =      14.5490eV


 **********************************************************************************************************************************
 DATASETS  * FILE   NREC   LENGTH (MB)   RECORD NAMES
              1      18       32.04       500      610      700      900      950      970     1000      129      960     1100   
                                          VAR    BASINP    GEOM    SYMINP    ZMAT    AOBASIS   BASIS     P2S    ABASIS      S 
                                         1400     1410     1200     1210     1080     1600     1650     1700   
                                           T        V       H0       H01     AOSYM     SMH    MOLCAS    OPER   

              2       4        3.96       700     1000      520     2100   
                                         GEOM     BASIS   MCVARS     RHF  

 PROGRAMS   *        TOTAL    HF-SCF       INT
 CPU TIMES  *        34.70     16.20     18.26
 REAL TIME  *        47.84 SEC
 DISK USED  *        39.90 MB (local),        5.97 GB (total)
 SF USED    *         0.21 MB
 GA USED    *         0.00 MB       (max)       0.00 MB       (current)
 **********************************************************************************************************************************

 Basis set:  JKFIT                   
 Basis size:   740
 Attributes:
 Sphericals:   T
 Basis set:  MP2FIT                  
 Basis size:   816
 Attributes:
 Sphericals:   T
 Basis set:  RI                      
 Basis size:   556
 Attributes:
 Sphericals:   T
 Basis set:  TDDFT                   
 Basis size:   816
 Attributes:
 Sphericals:   T

 PROGRAM * CCSD (Closed-shell coupled cluster)     Authors: C. Hampel, H.-J. Werner, 1991, M. Deegan, P.J. Knowles, 1992


 Convergence thresholds:  THRVAR = 1.00D-08  THRDEN = 1.00D-10

 CCSD(T)     terms to be evaluated (factor= 1.000)


 Number of core orbitals:           2 (   2 )
 Number of closed-shell orbitals:   8 (   8 )
 Number of external orbitals:     220 ( 220 )

 Molecular orbitals read from record     2100.2  Type=RHF/CANONICAL (state 1.1)

 Number of N-1 electron functions:               8
 Number of N-2 electron functions:              36
 Number of singly external CSFs:              1760
 Number of doubly external CSFs:           1549680
 Total number of CSFs:                     1551441

 Length of J-op  integral file:               0.00 MB
 Length of K-op  integral file:               3.65 MB
 Length of 3-ext integral record:             0.00 MB

 Memory could be reduced to 116.39 Mwords without degradation in triples

 Integral transformation finished. Total CPU:  38.44 sec, npass=  1  Memory used:  59.35 MW

 Reference energy:                   -116.26903465

 MP2 singlet pair energy:              -0.31797759
 MP2 triplet pair energy:              -0.15402854
 MP2 correlation energy:               -0.47200613
 MP2 total energy:                   -116.74104079

 SCS-MP2 correlation energy:           -0.47741309   (PS=  1.200000  PT=  0.333333)
 SCS-MP2 total energy:               -116.74644775

 ITER.      SQ.NORM     CORR.ENERGY   TOTAL ENERGY   ENERGY CHANGE        DEN1      VAR(S)    VAR(P)  DIIS     TIME  TIME/IT
   1      1.13616199    -0.49453661  -116.76357126    -0.02253048    -0.01116130  0.14D-02  0.21D-02  1  1    54.81    16.50
   2      1.14534510    -0.49595866  -116.76499331    -0.00142205    -0.01046418  0.23D-04  0.25D-03  2  2    71.47    16.86
   3      1.14844229    -0.49609783  -116.76513248    -0.00013917    -0.00202070  0.15D-04  0.12D-04  3  3    88.12    16.98
   4      1.14928022    -0.49609992  -116.76513457    -0.00000209    -0.00037462  0.61D-06  0.12D-05  4  4   105.11    17.06
   5      1.14944362    -0.49609708  -116.76513173     0.00000284    -0.00005168  0.21D-06  0.80D-07  5  5   122.09    17.15
   6      1.14949348    -0.49609230  -116.76512695     0.00000478    -0.00001229  0.18D-07  0.51D-08  6  6   139.01    17.22
   7      1.14950199    -0.49609173  -116.76512639     0.00000057    -0.00000076  0.13D-08  0.83D-09  6  2   155.88    17.24
   8      1.14950380    -0.49609159  -116.76512624     0.00000014     0.00000001  0.24D-09  0.86D-10  6  1   172.56    17.24
   9      1.14950456    -0.49609153  -116.76512618     0.00000006     0.00000001  0.20D-10  0.12D-10  6  3   189.21    17.23
  10      1.14950472    -0.49609152  -116.76512617     0.00000001     0.00000001  0.29D-11  0.16D-11  6  4   205.85    17.23
  11      1.14950465    -0.49609153  -116.76512618    -0.00000001     0.00000007  0.53D-12  0.26D-12  6  6   222.47    17.24
  12      1.14950463    -0.49609153  -116.76512618    -0.00000000     0.00000002  0.91D-13  0.29D-13  6  5   239.33    17.24
  13      1.14950461    -0.49609153  -116.76512619    -0.00000000     0.00000000  0.16D-13  0.46D-14  6  2   256.01    17.24
  14      1.14950461    -0.49609153  -116.76512619    -0.00000000     0.00000000  0.19D-14  0.11D-14  6  1   272.65    17.24
  15      1.14950461    -0.49609153  -116.76512619    -0.00000000    -0.00000000  0.15D-15  0.11D-15  6  3   289.38    17.24
  16      1.14950461    -0.49609153  -116.76512619    -0.00000000    -0.00000000  0.22D-16  0.14D-16  6  4   306.14    17.23

 Norm of t1 vector:      0.05182792      S-energy:     0.00000000      T1 diagnostic:  0.00916197
                                                                       D1 diagnostic:  0.02266076


 Total CPU time for triples:    271.80 sec


 RESULTS
 =======

  Reference energy                   -116.269034653420
  CCSD singlet pair energy             -0.355191217271
  CCSD triplet pair energy             -0.140900314947
  CCSD correlation energy              -0.496091532189

  Triples (T) contribution             -0.015465346249
  Total correlation energy             -0.511556878439

  CCSD total energy                  -116.765126185609
  CCSD[T] energy                     -116.781126129119
  CCSD-T energy                      -116.780334024904
 !CCSD(T) total energy               -116.780591531859

 Timing summary (sec):

 STEP                 CPU(USER)    SYS     CPU(TOT)    WALL
 Transformation         38.63      1.73     40.36     40.75
 CCSD iterations       267.53      7.18    274.71    275.82
 Triples               271.80      1.99    273.79    274.23

 Program statistics:

 Available memory in ccsd:              1999999734
 Min. memory needed in ccsd:               4617529
 Max. memory used in ccsd:                 5944569
 Max. memory used in cckext:               4248553 (16 integral passes)



 **********************************************************************************************************************************
 DATASETS  * FILE   NREC   LENGTH (MB)   RECORD NAMES
              1      19      398.13       500      610      700      900      950      970     1000      129      960     1100   
                                          VAR    BASINP    GEOM    SYMINP    ZMAT    AOBASIS   BASIS     P2S    ABASIS      S 
                                         1400     1410     1200     1210     1080     1600     1650     1700     1380   
                                           T        V       H0       H01     AOSYM     SMH    MOLCAS    OPER     JKOP   

              2       4        3.96       700     1000      520     2100   
                                         GEOM     BASIS   MCVARS     RHF  

 PROGRAMS   *        TOTAL   CCSD(T)    HF-SCF       INT
 CPU TIMES  *       612.86    578.16     16.20     18.26
 REAL TIME  *       639.42 SEC
 DISK USED  *       570.36 MB (local),        7.59 GB (total)
 SF USED    *       504.31 MB
 GA USED    *         0.00 MB       (max)       0.00 MB       (current)
 **********************************************************************************************************************************

 Running procedure: SET_MONOMER1

 Dummy atoms: C1  H41  H42  H43  H44


 Recomputing one-electron integrals since nuclear charges changed


 PROGRAM * SEWARD (Integral evaluation for generally contracted gaussian basis sets)     Author: Roland Lindh, 1990

 Geometry written to block  1 of record 700


 Point group  C1  



 ATOMIC COORDINATES

 NR  ATOM    CHARGE       X              Y              Z

   1  O9      8.00   -6.649757260   -4.572192358    1.873285507
   2  H17     1.00   -6.404092864   -6.371778547    1.688092347
   3  H18     1.00   -5.651603921   -3.798727456    0.436526735
   4  C1      0.00   -6.193010455    2.801518980    2.403542658
   5  H41     0.00   -4.656285171    1.699997622    3.119937832
   6  H42     0.00   -5.973046335    4.726205038    2.982932688
   7  H43     0.00   -7.940251230    2.077186956    3.118237078
   8  H44     0.00   -6.176569838    2.685300823    0.384937212

 Bond lengths in Bohr (Angstrom)

 1-2  1.825693827  1-3  1.912807835  4-5  2.021904040  4-6  2.022002335  4-7  2.021953343
     ( 0.966115568)     ( 1.012214315)     ( 1.069945541)     ( 1.069997556)     ( 1.069971630)

 4-8  2.022015060
     ( 1.070004290)

 Bond angles

  2-1-3  104.60595341   5-4-6  109.53398059   5-4-7  109.65604535   5-4-8  108.43490854

  6-4-7  109.49436728   6-4-8  109.86987750   7-4-8  109.83468330

 NUCLEAR CHARGE:                   10
 NUMBER OF PRIMITIVE AOS:         296
 NUMBER OF SYMMETRY AOS:          266
 NUMBER OF CONTRACTIONS:          230   (  230A   )
 NUMBER OF CORE ORBITALS:           1   (    1A   )
 NUMBER OF VALENCE ORBITALS:        6   (    6A   )

 MOLECULE CHANGED: INITIALIZING OCCUPATION AND DUMP RECORDS


 NUCLEAR REPULSION ENERGY    8.90222806

 Basis set:  JKFIT                   
 Basis size:   740
 Attributes:
 Sphericals:   T
 Basis set:  MP2FIT                  
 Basis size:   816
 Attributes:
 Sphericals:   T
 Basis set:  RI                      
 Basis size:   556
 Attributes:
 Sphericals:   T
 Basis set:  TDDFT                   
 Basis size:   816
 Attributes:
 Sphericals:   T

 Eigenvalues of metric

         1 0.556E-04 0.709E-04 0.104E-03 0.106E-03 0.333E-03 0.374E-03 0.645E-03 0.771E-03


 Contracted 2-electron integrals neglected if value below      1.0D-14

 OPERATOR DM      FOR CENTER  0  COORDINATES:    0.000000    0.000000    0.000000


 **********************************************************************************************************************************
 DATASETS  * FILE   NREC   LENGTH (MB)   RECORD NAMES
              1      18       32.04       500      610      700      900      950      970     1000      129      960     1100   
                                          VAR    BASINP    GEOM    SYMINP    ZMAT    AOBASIS   BASIS     P2S    ABASIS      S 
                                         1400     1410     1200     1210     1080     1600     1650     1700   
                                           T        V       H0       H01     AOSYM     SMH    MOLCAS    OPER   

              2       5        5.05       700     1000      520     2100      200   
                                         GEOM     BASIS   MCVARS     RHF    OPTIONS    

 PROGRAMS   *        TOTAL       INT   CCSD(T)    HF-SCF       INT
 CPU TIMES  *       613.11      0.24    578.16     16.20     18.26
 REAL TIME  *       640.22 SEC
 DISK USED  *       570.36 MB (local),        7.59 GB (total)
 SF USED    *       504.31 MB
 GA USED    *         0.00 MB       (max)       0.00 MB       (current)
 **********************************************************************************************************************************


 PROGRAM * RHF-SCF (CLOSED SHELL)       Authors: W. Meyer, H.-J. Werner


 NUMBER OF ELECTRONS:       5+    5-    SPACE SYMMETRY=1    SPIN SYMMETRY: Singlet 
 CONVERGENCE THRESHOLDS:    1.00E-08 (Density)    1.00E-11 (Energy)
 MAX. NUMBER OF ITERATIONS:       60
 INTERPOLATION TYPE:            DIIS
 INTERPOLATION STEPS:              2 (START)      1 (STEP)
 LEVEL SHIFTS:                  0.00 (CLOSED)  0.00 (OPEN) 



 Orbital guess generated from atomic densities. Full valence occupancy:    7

 Molecular orbital dump at record        2101.2

 Initial occupancy:   5

 ITERATION    DDIFF          GRAD             ENERGY        2-EL.EN.            DIPOLE MOMENTS         DIIS   ORB.
    1      0.000D+00      0.000D+00       -76.01700953     77.243276    0.64193   -0.51286   -0.83851    0    start
    2      0.000D+00      0.641D-02       -76.04377644     73.564504    0.36497   -0.30687   -0.47532    1    diag
    3      0.443D-02      0.414D-02       -76.05558554     75.199897    0.43331   -0.36094   -0.56468    2    diag
    4      0.162D-02      0.381D-03       -76.05578595     75.110051    0.42966   -0.36112   -0.55965    3    diag
    5      0.207D-03      0.109D-03       -76.05580847     75.124769    0.42824   -0.36129   -0.55768    4    diag
    6      0.682D-04      0.220D-04       -76.05580997     75.123757    0.42789   -0.36145   -0.55720    5    diag
    7      0.177D-04      0.444D-05       -76.05581004     75.123887    0.42778   -0.36147   -0.55705    6    diag
    8      0.454D-05      0.783D-06       -76.05581005     75.123869    0.42776   -0.36147   -0.55701    7    diag
    9      0.694D-06      0.105D-06       -76.05581005     75.123859    0.42776   -0.36146   -0.55701    8    diag
   10      0.857D-07      0.285D-07       -76.05581005     75.123862    0.42776   -0.36146   -0.55701    9    orth
   11      0.233D-07      0.704D-08       -76.05581005     75.123862    0.42776   -0.36146   -0.55701    9    diag
   12      0.710D-08      0.135D-08       -76.05581005     75.123862    0.42776   -0.36146   -0.55701    0    orth

 Final occupancy:   5

 !RHF STATE  1.1 Energy               -76.055810045178
 Nuclear energy                         8.90222806
 One-electron energy                 -122.51996907
 Two-electron energy                   37.56193096
 Virial quotient                       -1.00282181
 !RHF STATE  1.1 Dipole moment          0.42775691    -0.36146453    -0.55700818
 Dipole moment /Debye                   1.08717840    -0.91869102    -1.41568084

 Orbital energies:

         1.1          2.1          3.1          4.1          5.1          6.1          7.1
    -20.572562    -1.338136    -0.701075    -0.578437    -0.507844     0.023142     0.035237


 HOMO      5.1    -0.507844 =     -13.8191eV
 LUMO      6.1     0.023142 =       0.6297eV
 LUMO-HOMO         0.530986 =      14.4489eV


 **********************************************************************************************************************************
 DATASETS  * FILE   NREC   LENGTH (MB)   RECORD NAMES
              1      18       32.04       500      610      700      900      950      970     1000      129      960     1100   
                                          VAR    BASINP    GEOM    SYMINP    ZMAT    AOBASIS   BASIS     P2S    ABASIS      S 
                                         1400     1410     1200     1210     1080     1600     1650     1700   
                                           T        V       H0       H01     AOSYM     SMH    MOLCAS    OPER   

              2       6        9.09       700     1000      520     2100      200     2101   
                                         GEOM     BASIS   MCVARS     RHF    OPTIONS    RHF  

 PROGRAMS   *        TOTAL    HF-SCF       INT   CCSD(T)    HF-SCF       INT
 CPU TIMES  *       628.38     15.26      0.24    578.16     16.20     18.26
 REAL TIME  *       657.68 SEC
 DISK USED  *       570.36 MB (local),        7.59 GB (total)
 SF USED    *       504.31 MB
 GA USED    *         0.00 MB       (max)       0.00 MB       (current)
 **********************************************************************************************************************************

 Basis set:  JKFIT                   
 Basis size:   740
 Attributes:
 Sphericals:   T
 Basis set:  MP2FIT                  
 Basis size:   816
 Attributes:
 Sphericals:   T
 Basis set:  RI                      
 Basis size:   556
 Attributes:
 Sphericals:   T
 Basis set:  TDDFT                   
 Basis size:   816
 Attributes:
 Sphericals:   T

 PROGRAM * CCSD (Closed-shell coupled cluster)     Authors: C. Hampel, H.-J. Werner, 1991, M. Deegan, P.J. Knowles, 1992


 Convergence thresholds:  THRVAR = 1.00D-08  THRDEN = 1.00D-10

 CCSD(T)     terms to be evaluated (factor= 1.000)


 Number of core orbitals:           1 (   1 )
 Number of closed-shell orbitals:   4 (   4 )
 Number of external orbitals:     225 ( 225 )

 Molecular orbitals read from record     2101.2  Type=RHF/CANONICAL (state 1.1)

 Number of N-1 electron functions:               4
 Number of N-2 electron functions:              10
 Number of singly external CSFs:               900
 Number of doubly external CSFs:            405450
 Total number of CSFs:                      406351

 Length of J-op  integral file:               0.00 MB
 Length of K-op  integral file:               3.65 MB
 Length of 3-ext integral record:             0.00 MB

 Memory could be reduced to 75.63 Mwords without degradation in triples

 Integral transformation finished. Total CPU:  16.57 sec, npass=  1  Memory used:  32.52 MW

 Reference energy:                    -76.05581005

 MP2 singlet pair energy:              -0.17239694
 MP2 triplet pair energy:              -0.09857798
 MP2 correlation energy:               -0.27097492
 MP2 total energy:                    -76.32678497

 SCS-MP2 correlation energy:           -0.26821374   (PS=  1.200000  PT=  0.333333)
 SCS-MP2 total energy:                -76.32402379

 ITER.      SQ.NORM     CORR.ENERGY   TOTAL ENERGY   ENERGY CHANGE        DEN1      VAR(S)    VAR(P)  DIIS     TIME  TIME/IT
   1      1.06495298    -0.27500028   -76.33081033    -0.00402536     0.00188037  0.97D-03  0.11D-02  1  1    20.76     4.24
   2      1.06894857    -0.27531823   -76.33112828    -0.00031795    -0.00504329  0.13D-04  0.13D-03  2  2    24.91     4.34
   3      1.07049932    -0.27541047   -76.33122052    -0.00009224    -0.00098431  0.12D-04  0.63D-05  3  3    29.15     4.37
   4      1.07100974    -0.27540433   -76.33121438     0.00000614    -0.00023225  0.52D-06  0.75D-06  4  4    33.35     4.39
   5      1.07112150    -0.27540139   -76.33121143     0.00000294    -0.00003446  0.17D-06  0.48D-07  5  5    37.51     4.41
   6      1.07116067    -0.27539769   -76.33120773     0.00000370    -0.00000810  0.13D-07  0.32D-08  6  6    41.70     4.42
   7      1.07116761    -0.27539744   -76.33120748     0.00000025    -0.00000078  0.10D-08  0.56D-09  6  1    46.07     4.45
   8      1.07116881    -0.27539740   -76.33120744     0.00000004     0.00000032  0.16D-09  0.66D-10  6  2    50.32     4.45
   9      1.07116938    -0.27539735   -76.33120739     0.00000005     0.00000002  0.15D-10  0.73D-11  6  3    54.57     4.45
  10      1.07116949    -0.27539734   -76.33120738     0.00000001     0.00000000  0.29D-11  0.10D-11  6  4    58.81     4.45
  11      1.07116945    -0.27539734   -76.33120739    -0.00000001     0.00000003  0.55D-12  0.19D-12  6  6    63.03     4.45
  12      1.07116944    -0.27539734   -76.33120739    -0.00000000     0.00000001  0.80D-13  0.26D-13  6  5    67.31     4.45
  13      1.07116943    -0.27539735   -76.33120739    -0.00000000     0.00000000  0.10D-13  0.40D-14  6  1    71.59     4.45
  14      1.07116943    -0.27539735   -76.33120739    -0.00000000     0.00000000  0.12D-14  0.77D-15  6  2    75.78     4.46
  15      1.07116943    -0.27539735   -76.33120739     0.00000000    -0.00000000  0.10D-15  0.83D-16  6  3    80.01     4.46
  16      1.07116943    -0.27539735   -76.33120739    -0.00000000    -0.00000000  0.14D-16  0.11D-16  6  4    84.27     4.46

 Norm of t1 vector:      0.04211515      S-energy:    -0.00000000      T1 diagnostic:  0.01052879
                                                                       D1 diagnostic:  0.02243253


 Total CPU time for triples:     42.92 sec


 RESULTS
 =======

  Reference energy                    -76.055810045179
  CCSD singlet pair energy             -0.188379602258
  CCSD triplet pair energy             -0.087017744145
  CCSD correlation energy              -0.275397346428

  Triples (T) contribution             -0.008958368149
  Total correlation energy             -0.284355714577

  CCSD total energy                   -76.331207391607
  CCSD[T] energy                      -76.340513738104
  CCSD-T energy                       -76.339978362644
 !CCSD(T) total energy                -76.340165759756

 Timing summary (sec):

 STEP                 CPU(USER)    SYS     CPU(TOT)    WALL
 Transformation         16.63      0.83     17.46     17.53
 CCSD iterations        67.67      3.60     71.27     71.41
 Triples                42.92      0.32     43.24     43.31

 Program statistics:

 Available memory in ccsd:              1999999921
 Min. memory needed in ccsd:               1865022
 Max. memory used in ccsd:                 2159652
 Max. memory used in cckext:               1451153 (16 integral passes)



 **********************************************************************************************************************************
 DATASETS  * FILE   NREC   LENGTH (MB)   RECORD NAMES
              1      19      222.33       500      610      700      900      950      970     1000      129      960     1100   
                                          VAR    BASINP    GEOM    SYMINP    ZMAT    AOBASIS   BASIS     P2S    ABASIS      S 
                                         1400     1410     1200     1210     1080     1600     1650     1700     1380   
                                           T        V       H0       H01     AOSYM     SMH    MOLCAS    OPER     JKOP   

              2       6        9.09       700     1000      520     2100      200     2101   
                                         GEOM     BASIS   MCVARS     RHF    OPTIONS    RHF  

 PROGRAMS   *        TOTAL   CCSD(T)    HF-SCF       INT   CCSD(T)    HF-SCF       INT
 CPU TIMES  *       755.83    127.45     15.26      0.24    578.16     16.20     18.26
 REAL TIME  *       790.67 SEC
 DISK USED  *       570.36 MB (local),        7.59 GB (total)
 SF USED    *       504.31 MB
 GA USED    *         0.00 MB       (max)       0.00 MB       (current)
 **********************************************************************************************************************************

 Running procedure: SET_MONOMER2

 Dummy atoms: O9  H17  H18


 Recomputing one-electron integrals since nuclear charges changed


 PROGRAM * SEWARD (Integral evaluation for generally contracted gaussian basis sets)     Author: Roland Lindh, 1990

 Geometry written to block  1 of record 700


 Point group  C1  



 ATOMIC COORDINATES

 NR  ATOM    CHARGE       X              Y              Z

   1  O9      0.00   -6.649757260   -4.572192358    1.873285507
   2  H17     0.00   -6.404092864   -6.371778547    1.688092347
   3  H18     0.00   -5.651603921   -3.798727456    0.436526735
   4  C1      6.00   -6.193010455    2.801518980    2.403542658
   5  H41     1.00   -4.656285171    1.699997622    3.119937832
   6  H42     1.00   -5.973046335    4.726205038    2.982932688
   7  H43     1.00   -7.940251230    2.077186956    3.118237078
   8  H44     1.00   -6.176569838    2.685300823    0.384937212

 Bond lengths in Bohr (Angstrom)

 1-2  1.825693827  1-3  1.912807835  4-5  2.021904040  4-6  2.022002335  4-7  2.021953343
     ( 0.966115568)     ( 1.012214315)     ( 1.069945541)     ( 1.069997556)     ( 1.069971630)

 4-8  2.022015060
     ( 1.070004290)

 Bond angles

  2-1-3  104.60595341   5-4-6  109.53398059   5-4-7  109.65604535   5-4-8  108.43490854

  6-4-7  109.49436728   6-4-8  109.86987750   7-4-8  109.83468330

 NUCLEAR CHARGE:                   10
 NUMBER OF PRIMITIVE AOS:         296
 NUMBER OF SYMMETRY AOS:          266
 NUMBER OF CONTRACTIONS:          230   (  230A   )
 NUMBER OF CORE ORBITALS:           1   (    1A   )
 NUMBER OF VALENCE ORBITALS:        8   (    8A   )

 MOLECULE CHANGED: INITIALIZING OCCUPATION AND DUMP RECORDS


 NUCLEAR REPULSION ENERGY   13.68681606

 Basis set:  JKFIT                   
 Basis size:   740
 Attributes:
 Sphericals:   T
 Basis set:  MP2FIT                  
 Basis size:   816
 Attributes:
 Sphericals:   T
 Basis set:  RI                      
 Basis size:   556
 Attributes:
 Sphericals:   T
 Basis set:  TDDFT                   
 Basis size:   816
 Attributes:
 Sphericals:   T

 Eigenvalues of metric

         1 0.556E-04 0.709E-04 0.104E-03 0.106E-03 0.333E-03 0.374E-03 0.645E-03 0.771E-03


 Contracted 2-electron integrals neglected if value below      1.0D-14

 OPERATOR DM      FOR CENTER  0  COORDINATES:    0.000000    0.000000    0.000000


 **********************************************************************************************************************************
 DATASETS  * FILE   NREC   LENGTH (MB)   RECORD NAMES
              1      18       32.04       500      610      700      900      950      970     1000      129      960     1100   
                                          VAR    BASINP    GEOM    SYMINP    ZMAT    AOBASIS   BASIS     P2S    ABASIS      S 
                                         1400     1410     1200     1210     1080     1600     1650     1700   
                                           T        V       H0       H01     AOSYM     SMH    MOLCAS    OPER   

              2       6        9.09       700     1000      520     2100      200     2101   
                                         GEOM     BASIS   MCVARS     RHF    OPTIONS    RHF  

 PROGRAMS   *        TOTAL       INT   CCSD(T)    HF-SCF       INT   CCSD(T)    HF-SCF       INT
 CPU TIMES  *       756.09      0.25    127.45     15.26      0.24    578.16     16.20     18.26
 REAL TIME  *       791.43 SEC
 DISK USED  *       570.36 MB (local),        7.59 GB (total)
 SF USED    *       504.31 MB
 GA USED    *         0.00 MB       (max)       0.00 MB       (current)
 **********************************************************************************************************************************


 PROGRAM * RHF-SCF (CLOSED SHELL)       Authors: W. Meyer, H.-J. Werner


 NUMBER OF ELECTRONS:       5+    5-    SPACE SYMMETRY=1    SPIN SYMMETRY: Singlet 
 CONVERGENCE THRESHOLDS:    1.00E-08 (Density)    1.00E-11 (Energy)
 MAX. NUMBER OF ITERATIONS:       60
 INTERPOLATION TYPE:            DIIS
 INTERPOLATION STEPS:              2 (START)      1 (STEP)
 LEVEL SHIFTS:                  0.00 (CLOSED)  0.00 (OPEN) 



 Orbital guess generated from atomic densities. Full valence occupancy:    9

 Molecular orbital dump at record        2102.2

 Initial occupancy:   5

 ITERATION    DDIFF          GRAD             ENERGY        2-EL.EN.            DIPOLE MOMENTS         DIIS   ORB.
    1      0.000D+00      0.000D+00       -40.19358874     53.494049    0.00411   -0.00274   -0.00131    0    start
    2      0.000D+00      0.353D-02       -40.21070633     52.213682    0.00129   -0.00084   -0.00040    1    diag
    3      0.324D-02      0.137D-02       -40.21295486     52.664857    0.00182   -0.00121   -0.00056    2    diag
    4      0.919D-03      0.342D-03       -40.21327034     52.609829    0.00162   -0.00107   -0.00050    3    diag
    5      0.306D-03      0.444D-04       -40.21327573     52.612168    0.00159   -0.00106   -0.00049    4    diag
    6      0.738D-04      0.344D-05       -40.21327577     52.612265    0.00159   -0.00106   -0.00049    5    diag
    7      0.623D-05      0.264D-06       -40.21327577     52.612231    0.00159   -0.00105   -0.00049    6    diag
    8      0.956D-06      0.221D-07       -40.21327577     52.612231    0.00159   -0.00105   -0.00049    7    diag
    9      0.190D-06      0.286D-08       -40.21327577     52.612232    0.00159   -0.00105   -0.00049    8    diag
   10      0.123D-07      0.800D-09       -40.21327577     52.612231    0.00159   -0.00105   -0.00049    9    orth
   11      0.124D-08      0.106D-09       -40.21327577     52.612232    0.00159   -0.00105   -0.00049    0    orth

 Final occupancy:   5

 !RHF STATE  1.1 Energy               -40.213275771737
 Nuclear energy                        13.68681606
 One-electron energy                  -80.20620758
 Two-electron energy                   26.30611575
 Virial quotient                       -0.99870123
 !RHF STATE  1.1 Dipole moment          0.00158664    -0.00105486    -0.00048712
 Dipole moment /Debye                   0.00403257    -0.00268100    -0.00123806

 Orbital energies:

         1.1          2.1          3.1          4.1          5.1          6.1          7.1
    -11.197211    -0.950741    -0.551695    -0.549760    -0.547580     0.026366     0.038736


 HOMO      5.1    -0.547580 =     -14.9004eV
 LUMO      6.1     0.026366 =       0.7174eV
 LUMO-HOMO         0.573946 =      15.6179eV


 **********************************************************************************************************************************
 DATASETS  * FILE   NREC   LENGTH (MB)   RECORD NAMES
              1      18       32.04       500      610      700      900      950      970     1000      129      960     1100   
                                          VAR    BASINP    GEOM    SYMINP    ZMAT    AOBASIS   BASIS     P2S    ABASIS      S 
                                         1400     1410     1200     1210     1080     1600     1650     1700   
                                           T        V       H0       H01     AOSYM     SMH    MOLCAS    OPER   

              2       7       13.71       700     1000      520     2100      200     2101     2102   
                                         GEOM     BASIS   MCVARS     RHF    OPTIONS    RHF      RHF  

 PROGRAMS   *        TOTAL    HF-SCF       INT   CCSD(T)    HF-SCF       INT   CCSD(T)    HF-SCF       INT
 CPU TIMES  *       770.51     14.41      0.25    127.45     15.26      0.24    578.16     16.20     18.26
 REAL TIME  *       807.80 SEC
 DISK USED  *       570.36 MB (local),        7.59 GB (total)
 SF USED    *       504.31 MB
 GA USED    *         0.00 MB       (max)       0.00 MB       (current)
 **********************************************************************************************************************************

 Basis set:  JKFIT                   
 Basis size:   740
 Attributes:
 Sphericals:   T
 Basis set:  MP2FIT                  
 Basis size:   816
 Attributes:
 Sphericals:   T
 Basis set:  RI                      
 Basis size:   556
 Attributes:
 Sphericals:   T
 Basis set:  TDDFT                   
 Basis size:   816
 Attributes:
 Sphericals:   T

 PROGRAM * CCSD (Closed-shell coupled cluster)     Authors: C. Hampel, H.-J. Werner, 1991, M. Deegan, P.J. Knowles, 1992


 Convergence thresholds:  THRVAR = 1.00D-08  THRDEN = 1.00D-10

 CCSD(T)     terms to be evaluated (factor= 1.000)


 Number of core orbitals:           1 (   1 )
 Number of closed-shell orbitals:   4 (   4 )
 Number of external orbitals:     225 ( 225 )

 Molecular orbitals read from record     2102.2  Type=RHF/CANONICAL (state 1.1)

 Number of N-1 electron functions:               4
 Number of N-2 electron functions:              10
 Number of singly external CSFs:               900
 Number of doubly external CSFs:            405450
 Total number of CSFs:                      406351

 Length of J-op  integral file:               0.00 MB
 Length of K-op  integral file:               3.65 MB
 Length of 3-ext integral record:             0.00 MB

 Memory could be reduced to 75.63 Mwords without degradation in triples

 Integral transformation finished. Total CPU:  16.05 sec, npass=  1  Memory used:  32.52 MW

 Reference energy:                    -40.21327577

 MP2 singlet pair energy:              -0.14544440
 MP2 triplet pair energy:              -0.05506324
 MP2 correlation energy:               -0.20050764
 MP2 total energy:                    -40.41378341

 SCS-MP2 correlation energy:           -0.20879485   (PS=  1.200000  PT=  0.333333)
 SCS-MP2 total energy:                -40.42207062

 ITER.      SQ.NORM     CORR.ENERGY   TOTAL ENERGY   ENERGY CHANGE        DEN1      VAR(S)    VAR(P)  DIIS     TIME  TIME/IT
   1      1.07100974    -0.21905757   -40.43233334    -0.01854992    -0.01309645  0.46D-03  0.10D-02  1  1    20.22     4.27
   2      1.07650307    -0.22015870   -40.43343447    -0.00110113    -0.00567824  0.13D-04  0.71D-04  2  2    24.38     4.37
   3      1.07773138    -0.22021203   -40.43348780    -0.00005333    -0.00078801  0.16D-05  0.48D-05  3  3    28.74     4.46
   4      1.07803538    -0.22022104   -40.43349681    -0.00000900    -0.00012814  0.92D-07  0.22D-06  4  4    32.95     4.46
   5      1.07808157    -0.22021997   -40.43349574     0.00000107    -0.00001886  0.57D-08  0.16D-07  5  5    37.34     4.49
   6      1.07808640    -0.22021917   -40.43349494     0.00000079    -0.00000156  0.45D-09  0.11D-08  6  6    41.65     4.50
   7      1.07808711    -0.22021903   -40.43349480     0.00000015    -0.00000032  0.32D-10  0.89D-10  6  1    45.85     4.49
   8      1.07808714    -0.22021906   -40.43349483    -0.00000004     0.00000012  0.26D-11  0.50D-11  6  2    50.07     4.49
   9      1.07808715    -0.22021906   -40.43349483    -0.00000000     0.00000002  0.29D-12  0.46D-12  6  3    54.23     4.49
  10      1.07808715    -0.22021906   -40.43349483     0.00000000     0.00000001  0.26D-13  0.48D-13  6  4    58.55     4.49
  11      1.07808714    -0.22021906   -40.43349483     0.00000000     0.00000001  0.22D-14  0.48D-14  6  5    62.88     4.50
  12      1.07808714    -0.22021906   -40.43349483     0.00000000     0.00000000  0.48D-16  0.57D-15  6  6    67.18     4.50
  13      1.07808713    -0.22021906   -40.43349483    -0.00000000     0.00000000  0.73D-17  0.60D-16  6  1    71.48     4.50
  14      1.07808713    -0.22021906   -40.43349483    -0.00000000     0.00000000  0.14D-17  0.76D-17  6  2    75.83     4.51

 Norm of t1 vector:      0.02946855      S-energy:     0.00000000      T1 diagnostic:  0.00736714
                                                                       D1 diagnostic:  0.01186416

 Total CPU time for triples:     42.19 sec


 RESULTS
 =======

  Reference energy                    -40.213275771738
  CCSD singlet pair energy             -0.166726137673
  CCSD triplet pair energy             -0.053492923361
  CCSD correlation energy              -0.220219061010

  Triples (T) contribution             -0.006422196141
  Total correlation energy             -0.226641257151

  CCSD total energy                   -40.433494832748
  CCSD[T] energy                      -40.440099585820
  CCSD-T energy                       -40.439849117958
 !CCSD(T) total energy                -40.439917028889

 Timing summary (sec):

 STEP                 CPU(USER)    SYS     CPU(TOT)    WALL
 Transformation         16.11      0.78     16.89     16.90
 CCSD iterations        59.74      3.41     63.15     63.22
 Triples                42.19      0.37     42.56     42.62

 Program statistics:

 Available memory in ccsd:              1999999916
 Min. memory needed in ccsd:               1865022
 Max. memory used in ccsd:                 2159652
 Max. memory used in cckext:               1451153 (14 integral passes)



 **********************************************************************************************************************************
 DATASETS  * FILE   NREC   LENGTH (MB)   RECORD NAMES
              1      19      222.33       500      610      700      900      950      970     1000      129      960     1100   
                                          VAR    BASINP    GEOM    SYMINP    ZMAT    AOBASIS   BASIS     P2S    ABASIS      S 
                                         1400     1410     1200     1210     1080     1600     1650     1700     1380   
                                           T        V       H0       H01     AOSYM     SMH    MOLCAS    OPER     JKOP   

              2       7       13.71       700     1000      520     2100      200     2101     2102   
                                         GEOM     BASIS   MCVARS     RHF    OPTIONS    RHF      RHF  

 PROGRAMS   *        TOTAL   CCSD(T)    HF-SCF       INT   CCSD(T)    HF-SCF       INT   CCSD(T)    HF-SCF       INT
 CPU TIMES  *       888.76    118.24     14.41      0.25    127.45     15.26      0.24    578.16     16.20     18.26
 REAL TIME  *       931.28 SEC
 DISK USED  *       570.36 MB (local),        7.59 GB (total)
 SF USED    *       504.31 MB
 GA USED    *         0.00 MB       (max)       0.00 MB       (current)
 **********************************************************************************************************************************
 Molecular orbitals read from record     2102.2  Type=RHF/CANONICAL (state 1.1)
 Occupation numbers read from record     2102.2  Type=RHF/RHF (state 1.1)
 Orbital energies read from record       2102.2  Type=RHF/CANONICAL (state 1.1)
 Redundancy group numbers read from rec  2102.2  Type=RHF/RHF (state 1.1)

 CCSD(T)/aug-cc-pVTZ energy=    -40.439917028889

         CCSD(T)          HF-SCF         CCSD(T)          HF-SCF         CCSD(T)          HF-SCF
    -40.43991703    -40.21327577    -76.34016576    -76.05581005   -116.78059153   -116.26903465
 **********************************************************************************************************************************
 Molpro calculation terminated
