
 Primary working directories    : /scratch/klimes/383092/molpro.DvimDLQZul
 Secondary working directories  : /scratch/klimes/383092/molpro.DvimDLQZul
 Wavefunction directory         : /scratch/klimes/383092/
 Main file repository           : /scratch/klimes/383092/molpro.DvimDLQZul/

 id        : karlovklimes

 Nodes                      nprocs
 nc-03.cc.karlov.mff.cuni.cz    4

 Using customized tuning parameters: mindgm=1; mindgv=20; mindgc=4; mindgr=1; noblas=0; minvec=7
 default implementation of scratch files=sf  


 Variables initialized (930), CPU time= 0.02 sec
                                                                                 !gdirect
 memory,2000,m
 gthresh,orbital=1d-10,energy=1d-10,grid=1d-8
 
 symmetry,nosym
 angstrom
 geometry={
 O10        -3.744400000000      0.396600000000     -2.499800000000
 H19        -4.617400000000      0.462100000000     -2.021700000000
 H20        -3.968900000000      0.126100000000     -3.399000000000
 C1        -3.277200000000      1.482500000000      1.271900000000
 H41        -2.464000000000      0.899600000000      1.651000000000
 H42        -3.160800000000      2.501000000000      1.578500000000
 H43        -4.201800000000      1.099200000000      1.650100000000
 H44        -3.268500000000      1.421000000000      0.203700000000
 }
 
 nkerna=1
 nkernb=1
 
 gf=0
 sing=1
 thrdum=1d-4
 gridthr=1d-8
 
 basis={
 set,orbital
 default,avtz
 set,jkfit
 default,avqz/jkfit
 set,mp2fit
 default,avqz/mp2fit
 set,ri
 default,avqz/optri
 set,tddft
 default,avqz/mp2fit
 }
 
 proc set_monomer1
 dummy,4,5,6,7,8
 endproc
 
 proc set_monomer2
 dummy,1,2,3
 endproc
 
                                                                                 !1234 energy
 {hf,accu=1.d-16}
 ccsd(t)
 
 set_monomer1
 {hf,accu=1.d-16}
 ccsd(t)
 
 set_monomer2
 {hf,accu=1.d-16}
 ccsd(t)
 
 Commands  initialized (760), CPU time= 0.01 sec, 617 directives.
 Default parameters read. Elapsed time= 0.20 sec

 Checking input...
 Passed
1


                                         ***  PROGRAM SYSTEM MOLPRO  ***
                                       Copyright, TTI GmbH Stuttgart, 2015
                                    Version 2019.1 linked Jan 14 2019 13:09:19


 **********************************************************************************************************************************
 LABEL *                                                                                 
  64 bit mpp version                                                                     DATE: 11-Mar-20          TIME: 12:52:30  
 **********************************************************************************************************************************

 SHA1:             d688ac825633d238f2093ded1675ba87ccd55965
 **********************************************************************************************************************************

 THRESHOLDS:

 ZERO    =  1.00D-12  ONEINT  =  1.00D-12  TWOINT  =  1.00D-11  PREFAC  =  1.00D-14  XXXXXX  =  1.00D-09  EORDER  =  1.00D-04
 ENERGY  =  1.00D-10  ETEST   =  0.00D+00  EDENS   =  0.00D+00  THRDEDEF=  1.00D-06  GRADIENT=  1.00D-02  STEP    =  1.00D-03
 ORBITAL =  1.00D-10  CIVEC   =  1.00D-05  COEFF   =  1.00D-04  PRINTCI =  5.00D-02  PUNCHCI =  9.90D+01  OPTGRAD =  3.00D-04
 OPTENERG=  1.00D-06  OPTSTEP =  3.00D-04  THRGRAD =  1.00D-10  COMPRESS=  1.00D-11  VARMIN  =  1.00D-07  VARMAX  =  1.00D-03
 THRDOUB =  0.00D+00  THRDIV  =  1.00D-05  THRRED  =  1.00D-07  THRPSP  =  1.00D+00  THRDC   =  1.00D-10  THRCS   =  1.00D-10
 THRNRM  =  1.00D-08  THREQ   =  0.00D+00  THRDE   =  1.00D+00  THRREF  =  1.00D-05  SPARFAC =  1.00D+00  THRDLP  =  1.00D-07
 THRDIA  =  1.00D-10  THRDLS  =  1.00D-07  THRGPS  =  0.00D+00  THRKEX  =  0.00D+00  THRDIS  =  2.00D-01  THRVAR  =  1.00D-10
 THRLOC  =  1.00D-06  THRGAP  =  1.00D-06  THRLOCT = -1.00D+00  THRGAPT = -1.00D+00  THRORB  =  1.00D-06  THRMLTP =  0.00D+00
 THRCPQCI=  1.00D-10  KEXTA   =  0.00D+00  THRCOARS=  0.00D+00  SYMTOL  =  1.00D-06  GRADTOL =  1.00D-06  THROVL  =  1.00D-08
 THRORTH =  1.00D-08  GRID    =  1.00D-08  GRIDMAX =  1.00D-03  DTMAX   =  0.00D+00  THROCCDE=  1.00D-01  THROCCDE=  1.00D-01
 THRPRINT=  2.50D-01


 Variable memory set to 2000000000 words,  buffer space 

 ZSYMEL=NOSYM
 ZUNIT=ANG


Geometry recognized as XYZ

 SETTING NKERNA         =         1.00000000                                  
 SETTING NKERNB         =         1.00000000                                  
 SETTING GF             =     0.00000000D+00                                  
 SETTING SING           =         1.00000000                                  
 SETTING THRDUM         =     1.00000000D-04                                  
 SETTING GRIDTHR        =     1.00000000D-08                                  
 SETTING BASIS          =    AVTZ


 Recomputing integrals since basis changed


 Using spherical harmonics

 Library entry O      S aug-cc-pVTZ          selected for orbital group  1
 Library entry O      P aug-cc-pVTZ          selected for orbital group  1
 Library entry O      D aug-cc-pVTZ          selected for orbital group  1
 Library entry O      F aug-cc-pVTZ          selected for orbital group  1
 Library entry H      S aug-cc-pVTZ          selected for orbital group  2
 Library entry H      P aug-cc-pVTZ          selected for orbital group  2
 Library entry H      D aug-cc-pVTZ          selected for orbital group  2
 Library entry C      S aug-cc-pVTZ          selected for orbital group  3
 Library entry C      P aug-cc-pVTZ          selected for orbital group  3
 Library entry C      D aug-cc-pVTZ          selected for orbital group  3
 Library entry C      F aug-cc-pVTZ          selected for orbital group  3


 PROGRAM * SEWARD (Integral evaluation for generally contracted gaussian basis sets)     Author: Roland Lindh, 1990

 Geometry written to block  1 of record 700


 Point group  C1  



 ATOMIC COORDINATES

 NR  ATOM    CHARGE       X              Y              Z

   1  O10     8.00   -7.075890501    0.749465381   -4.723937366
   2  H19     1.00   -8.725621408    0.873242442   -3.820459306
   3  H20     1.00   -7.500134016    0.238294464   -6.423179097
   4  C1      6.00   -6.193010455    2.801518980    2.403542658
   5  H41     1.00   -4.656285171    1.699997622    3.119937832
   6  H42     1.00   -5.973046335    4.726205038    2.982932688
   7  H43     1.00   -7.940251230    2.077186956    3.118237078
   8  H44     1.00   -6.176569838    2.685300823    0.384937212

 Bond lengths in Bohr (Angstrom)

 1-2  1.884994809  1-3  1.824472726  4-5  2.021904040  4-6  2.022002335  4-7  2.021953343
     ( 0.997496296)     ( 0.965469388)     ( 1.069945541)     ( 1.069997556)     ( 1.069971630)

 4-8  2.022015060
     ( 1.070004290)

 Bond angles

  2-1-3  105.14667399   5-4-6  109.53398059   5-4-7  109.65604535   5-4-8  108.43490854

  6-4-7  109.49436728   6-4-8  109.86987750   7-4-8  109.83468330

 NUCLEAR CHARGE:                   20
 NUMBER OF PRIMITIVE AOS:         296
 NUMBER OF SYMMETRY AOS:          266
 NUMBER OF CONTRACTIONS:          230   (  230A   )
 NUMBER OF CORE ORBITALS:           2   (    2A   )
 NUMBER OF VALENCE ORBITALS:       14   (   14A   )


 NUCLEAR REPULSION ENERGY   35.92323390


 Basis set:  JKFIT                   
 Basis size:   740
 Attributes:
 Sphericals:   T
 Basis set:  MP2FIT                  
 Basis size:   816
 Attributes:
 Sphericals:   T
 Basis set:  RI                      
 Basis size:   556
 Attributes:
 Sphericals:   T
 Basis set:  TDDFT                   
 Basis size:   816
 Attributes:
 Sphericals:   T

 **********************************************************************************************************************************


 Eigenvalues of metric

         1 0.512E-04 0.790E-04 0.100E-03 0.105E-03 0.330E-03 0.348E-03 0.610E-03 0.717E-03


 Contracted 2-electron integrals neglected if value below      1.0D-14
 AO integral compression algorithm  1   Integral accuracy      1.0D-14

     2042.102 MB (compressed) written to integral file ( 63.7%)

     Node minimum: 441.975 MB, node maximum: 563.610 MB


 NUMBER OF SORTED TWO-ELECTRON INTEGRALS:   88219044.     BUFFER LENGTH:  32768
 NUMBER OF SEGMENTS:   6  SEGMENT LENGTH:   15998348      RECORD LENGTH: 524288

 Memory used in sort:      16.56 MW

 SORT1 READ   400769927. AND WROTE    79169450. INTEGRALS IN    229 RECORDS. CPU TIME:     9.86 SEC, REAL TIME:    11.47 SEC
 SORT2 READ   316739054. AND WROTE   352862895. INTEGRALS IN   6744 RECORDS. CPU TIME:     3.24 SEC, REAL TIME:     5.47 SEC

 Node minimum:    88205762.  Node maximum:    88225686. integrals

 OPERATOR DM      FOR CENTER  0  COORDINATES:    0.000000    0.000000    0.000000


 **********************************************************************************************************************************
 DATASETS  * FILE   NREC   LENGTH (MB)   RECORD NAMES
              1      18       32.04       500      610      700      900      950      970     1000      129      960     1100   
                                          VAR    BASINP    GEOM    SYMINP    ZMAT    AOBASIS   BASIS     P2S    ABASIS      S 
                                         1400     1410     1200     1210     1080     1600     1650     1700   
                                           T        V       H0       H01     AOSYM     SMH    MOLCAS    OPER   

 PROGRAMS   *        TOTAL       INT
 CPU TIMES  *        18.85     18.63
 REAL TIME  *        28.48 SEC
 DISK USED  *        32.49 MB (local),        5.95 GB (total)
 GA USED    *         0.00 MB       (max)       0.00 MB       (current)
 **********************************************************************************************************************************


 PROGRAM * RHF-SCF (CLOSED SHELL)       Authors: W. Meyer, H.-J. Werner


 NUMBER OF ELECTRONS:      10+   10-    SPACE SYMMETRY=1    SPIN SYMMETRY: Singlet 
 CONVERGENCE THRESHOLDS:    1.00E-08 (Density)    1.00E-11 (Energy)
 MAX. NUMBER OF ITERATIONS:       60
 INTERPOLATION TYPE:            DIIS
 INTERPOLATION STEPS:              2 (START)      1 (STEP)
 LEVEL SHIFTS:                  0.00 (CLOSED)  0.00 (OPEN) 



 Orbital guess generated from atomic densities. Full valence occupancy:   16

 Molecular orbital dump at record        2100.2

 Initial occupancy:  10

 ITERATION    DDIFF          GRAD             ENERGY        2-EL.EN.            DIPOLE MOMENTS         DIIS   ORB.
    1      0.000D+00      0.000D+00      -116.21311734    157.492803   -1.06346   -0.20050   -0.40397    0    start
    2      0.000D+00      0.521D-02      -116.25673150    152.519231   -0.58241   -0.12749   -0.28506    1    diag
    3      0.548D-02      0.307D-02      -116.27011528    154.576070   -0.70401   -0.14578   -0.31747    2    diag
    4      0.183D-02      0.454D-03      -116.27076714    154.464083   -0.69335   -0.14384   -0.31484    3    diag
    5      0.402D-03      0.133D-03      -116.27083452    154.459089   -0.69258   -0.14375   -0.31547    4    diag
    6      0.146D-03      0.325D-04      -116.27083834    154.464940   -0.69171   -0.14358   -0.31536    5    diag
    7      0.407D-04      0.634D-05      -116.27083857    154.463472   -0.69169   -0.14357   -0.31539    6    diag
    8      0.112D-04      0.160D-05      -116.27083858    154.463622   -0.69161   -0.14356   -0.31538    7    diag
    9      0.233D-05      0.364D-06      -116.27083858    154.463596   -0.69158   -0.14355   -0.31538    8    diag
   10      0.765D-06      0.416D-07      -116.27083858    154.463597   -0.69158   -0.14356   -0.31538    9    orth
   11      0.646D-07      0.102D-07      -116.27083858    154.463599   -0.69158   -0.14356   -0.31538    9    diag
   12      0.228D-07      0.259D-08      -116.27083858    154.463598   -0.69158   -0.14356   -0.31538    9    diag
   13      0.393D-08      0.681D-09      -116.27083858    154.463599   -0.69158   -0.14356   -0.31538    0    orth

 Final occupancy:  10

 !RHF STATE  1.1 Energy              -116.270838584006
 Nuclear energy                        35.92323390
 One-electron energy                 -229.42587182
 Two-electron energy                   77.23179934
 Virial quotient                       -1.00116950
 !RHF STATE  1.1 Dipole moment         -0.69158135    -0.14355512    -0.31538220
 Dipole moment /Debye                  -1.75770933    -0.36485682    -0.80156909

 Orbital energies:

         1.1          2.1          3.1          4.1          5.1          6.1          7.1          8.1          9.1         10.1
    -20.572049   -11.191502    -1.342399    -0.945403    -0.707423    -0.580739    -0.545903    -0.544947    -0.541409    -0.509363

        11.1         12.1
      0.025949     0.040179


 HOMO     10.1    -0.509363 =     -13.8605eV
 LUMO     11.1     0.025949 =       0.7061eV
 LUMO-HOMO         0.535312 =      14.5666eV


 **********************************************************************************************************************************
 DATASETS  * FILE   NREC   LENGTH (MB)   RECORD NAMES
              1      18       32.04       500      610      700      900      950      970     1000      129      960     1100   
                                          VAR    BASINP    GEOM    SYMINP    ZMAT    AOBASIS   BASIS     P2S    ABASIS      S 
                                         1400     1410     1200     1210     1080     1600     1650     1700   
                                           T        V       H0       H01     AOSYM     SMH    MOLCAS    OPER   

              2       4        3.96       700     1000      520     2100   
                                         GEOM     BASIS   MCVARS     RHF  

 PROGRAMS   *        TOTAL    HF-SCF       INT
 CPU TIMES  *        35.45     16.60     18.63
 REAL TIME  *        47.85 SEC
 DISK USED  *        39.90 MB (local),        5.98 GB (total)
 SF USED    *         0.21 MB
 GA USED    *         0.00 MB       (max)       0.00 MB       (current)
 **********************************************************************************************************************************

 Basis set:  JKFIT                   
 Basis size:   740
 Attributes:
 Sphericals:   T
 Basis set:  MP2FIT                  
 Basis size:   816
 Attributes:
 Sphericals:   T
 Basis set:  RI                      
 Basis size:   556
 Attributes:
 Sphericals:   T
 Basis set:  TDDFT                   
 Basis size:   816
 Attributes:
 Sphericals:   T

 PROGRAM * CCSD (Closed-shell coupled cluster)     Authors: C. Hampel, H.-J. Werner, 1991, M. Deegan, P.J. Knowles, 1992


 Convergence thresholds:  THRVAR = 1.00D-08  THRDEN = 1.00D-10

 CCSD(T)     terms to be evaluated (factor= 1.000)


 Number of core orbitals:           2 (   2 )
 Number of closed-shell orbitals:   8 (   8 )
 Number of external orbitals:     220 ( 220 )

 Molecular orbitals read from record     2100.2  Type=RHF/CANONICAL (state 1.1)

 Number of N-1 electron functions:               8
 Number of N-2 electron functions:              36
 Number of singly external CSFs:              1760
 Number of doubly external CSFs:           1549680
 Total number of CSFs:                     1551441

 Length of J-op  integral file:               0.00 MB
 Length of K-op  integral file:               3.65 MB
 Length of 3-ext integral record:             0.00 MB

 Memory could be reduced to 116.39 Mwords without degradation in triples

 Integral transformation finished. Total CPU:  38.00 sec, npass=  1  Memory used:  59.35 MW

 Reference energy:                   -116.27083858

 MP2 singlet pair energy:              -0.31758598
 MP2 triplet pair energy:              -0.15394758
 MP2 correlation energy:               -0.47153355
 MP2 total energy:                   -116.74237214

 SCS-MP2 correlation energy:           -0.47689277   (PS=  1.200000  PT=  0.333333)
 SCS-MP2 total energy:               -116.74773136

 ITER.      SQ.NORM     CORR.ENERGY   TOTAL ENERGY   ENERGY CHANGE        DEN1      VAR(S)    VAR(P)  DIIS     TIME  TIME/IT
   1      1.13564753    -0.49412963  -116.76496821    -0.02259608    -0.01133486  0.14D-02  0.20D-02  1  1    54.45    16.56
   2      1.14474126    -0.49553999  -116.76637858    -0.00141036    -0.01039971  0.23D-04  0.24D-03  2  2    71.15    16.85
   3      1.14775545    -0.49567305  -116.76651164    -0.00013306    -0.00197083  0.14D-04  0.12D-04  3  3    88.00    16.98
   4      1.14856709    -0.49567458  -116.76651316    -0.00000152    -0.00036461  0.59D-06  0.11D-05  4  4   104.74    17.03
   5      1.14872428    -0.49567187  -116.76651045     0.00000271    -0.00005009  0.20D-06  0.77D-07  5  5   121.56    17.10
   6      1.14877237    -0.49566724  -116.76650582     0.00000463    -0.00001208  0.17D-07  0.48D-08  6  6   138.39    17.14
   7      1.14878072    -0.49566667  -116.76650526     0.00000057    -0.00000086  0.12D-08  0.77D-09  6  2   155.19    17.15
   8      1.14878248    -0.49566653  -116.76650512     0.00000014    -0.00000001  0.22D-09  0.74D-10  6  1   171.88    17.15
   9      1.14878320    -0.49566648  -116.76650506     0.00000006     0.00000001  0.18D-10  0.10D-10  6  3   188.64    17.15
  10      1.14878335    -0.49566647  -116.76650505     0.00000001     0.00000001  0.25D-11  0.14D-11  6  4   205.21    17.15
  11      1.14878328    -0.49566648  -116.76650506    -0.00000001     0.00000006  0.47D-12  0.23D-12  6  6   221.89    17.15
  12      1.14878326    -0.49566648  -116.76650506    -0.00000000     0.00000002  0.80D-13  0.25D-13  6  5   238.63    17.15
  13      1.14878325    -0.49566648  -116.76650506    -0.00000000     0.00000000  0.14D-13  0.37D-14  6  2   255.31    17.15
  14      1.14878324    -0.49566648  -116.76650506    -0.00000000     0.00000000  0.16D-14  0.92D-15  6  1   271.95    17.15
  15      1.14878324    -0.49566648  -116.76650506    -0.00000000    -0.00000000  0.15D-15  0.86D-16  6  3   288.62    17.15
  16      1.14878324    -0.49566648  -116.76650506    -0.00000000    -0.00000000  0.23D-16  0.12D-16  6  4   305.32    17.15

 Norm of t1 vector:      0.05125956      S-energy:     0.00000000      T1 diagnostic:  0.00906150
                                                                       D1 diagnostic:  0.02228812


 Total CPU time for triples:    268.78 sec


 RESULTS
 =======

  Reference energy                   -116.270838584007
  CCSD singlet pair energy             -0.354657095782
  CCSD triplet pair energy             -0.141009382871
  CCSD correlation energy              -0.495666478644

  Triples (T) contribution             -0.015410349125
  Total correlation energy             -0.511076827769

  CCSD total energy                  -116.766505062651
  CCSD[T] energy                     -116.782441927416
  CCSD-T energy                      -116.781662002805
 !CCSD(T) total energy               -116.781915411776

 Timing summary (sec):

 STEP                 CPU(USER)    SYS     CPU(TOT)    WALL
 Transformation         38.18      1.84     40.02     41.07
 CCSD iterations       267.17      6.86    274.03    274.41
 Triples               268.78      1.95    270.73    271.10

 Program statistics:

 Available memory in ccsd:              1999999734
 Min. memory needed in ccsd:               4617529
 Max. memory used in ccsd:                 5944569
 Max. memory used in cckext:               4248553 (16 integral passes)



 **********************************************************************************************************************************
 DATASETS  * FILE   NREC   LENGTH (MB)   RECORD NAMES
              1      19      398.13       500      610      700      900      950      970     1000      129      960     1100   
                                          VAR    BASINP    GEOM    SYMINP    ZMAT    AOBASIS   BASIS     P2S    ABASIS      S 
                                         1400     1410     1200     1210     1080     1600     1650     1700     1380   
                                           T        V       H0       H01     AOSYM     SMH    MOLCAS    OPER     JKOP   

              2       4        3.96       700     1000      520     2100   
                                         GEOM     BASIS   MCVARS     RHF  

 PROGRAMS   *        TOTAL   CCSD(T)    HF-SCF       INT
 CPU TIMES  *       609.82    574.37     16.60     18.63
 REAL TIME  *       635.22 SEC
 DISK USED  *       570.36 MB (local),        7.60 GB (total)
 SF USED    *       504.31 MB
 GA USED    *         0.00 MB       (max)       0.00 MB       (current)
 **********************************************************************************************************************************

 Running procedure: SET_MONOMER1

 Dummy atoms: C1  H41  H42  H43  H44


 Recomputing one-electron integrals since nuclear charges changed


 PROGRAM * SEWARD (Integral evaluation for generally contracted gaussian basis sets)     Author: Roland Lindh, 1990

 Geometry written to block  1 of record 700


 Point group  C1  



 ATOMIC COORDINATES

 NR  ATOM    CHARGE       X              Y              Z

   1  O10     8.00   -7.075890501    0.749465381   -4.723937366
   2  H19     1.00   -8.725621408    0.873242442   -3.820459306
   3  H20     1.00   -7.500134016    0.238294464   -6.423179097
   4  C1      0.00   -6.193010455    2.801518980    2.403542658
   5  H41     0.00   -4.656285171    1.699997622    3.119937832
   6  H42     0.00   -5.973046335    4.726205038    2.982932688
   7  H43     0.00   -7.940251230    2.077186956    3.118237078
   8  H44     0.00   -6.176569838    2.685300823    0.384937212

 Bond lengths in Bohr (Angstrom)

 1-2  1.884994809  1-3  1.824472726  4-5  2.021904040  4-6  2.022002335  4-7  2.021953343
     ( 0.997496296)     ( 0.965469388)     ( 1.069945541)     ( 1.069997556)     ( 1.069971630)

 4-8  2.022015060
     ( 1.070004290)

 Bond angles

  2-1-3  105.14667399   5-4-6  109.53398059   5-4-7  109.65604535   5-4-8  108.43490854

  6-4-7  109.49436728   6-4-8  109.86987750   7-4-8  109.83468330

 NUCLEAR CHARGE:                   10
 NUMBER OF PRIMITIVE AOS:         296
 NUMBER OF SYMMETRY AOS:          266
 NUMBER OF CONTRACTIONS:          230   (  230A   )
 NUMBER OF CORE ORBITALS:           1   (    1A   )
 NUMBER OF VALENCE ORBITALS:        6   (    6A   )

 MOLECULE CHANGED: INITIALIZING OCCUPATION AND DUMP RECORDS


 NUCLEAR REPULSION ENERGY    8.96831117

 Basis set:  JKFIT                   
 Basis size:   740
 Attributes:
 Sphericals:   T
 Basis set:  MP2FIT                  
 Basis size:   816
 Attributes:
 Sphericals:   T
 Basis set:  RI                      
 Basis size:   556
 Attributes:
 Sphericals:   T
 Basis set:  TDDFT                   
 Basis size:   816
 Attributes:
 Sphericals:   T

 Eigenvalues of metric

         1 0.512E-04 0.790E-04 0.100E-03 0.105E-03 0.330E-03 0.348E-03 0.610E-03 0.717E-03


 Contracted 2-electron integrals neglected if value below      1.0D-14

 OPERATOR DM      FOR CENTER  0  COORDINATES:    0.000000    0.000000    0.000000


 **********************************************************************************************************************************
 DATASETS  * FILE   NREC   LENGTH (MB)   RECORD NAMES
              1      18       32.04       500      610      700      900      950      970     1000      129      960     1100   
                                          VAR    BASINP    GEOM    SYMINP    ZMAT    AOBASIS   BASIS     P2S    ABASIS      S 
                                         1400     1410     1200     1210     1080     1600     1650     1700   
                                           T        V       H0       H01     AOSYM     SMH    MOLCAS    OPER   

              2       5        5.05       700     1000      520     2100      200   
                                         GEOM     BASIS   MCVARS     RHF    OPTIONS    

 PROGRAMS   *        TOTAL       INT   CCSD(T)    HF-SCF       INT
 CPU TIMES  *       610.08      0.24    574.37     16.60     18.63
 REAL TIME  *       636.00 SEC
 DISK USED  *       570.36 MB (local),        7.60 GB (total)
 SF USED    *       504.31 MB
 GA USED    *         0.00 MB       (max)       0.00 MB       (current)
 **********************************************************************************************************************************


 PROGRAM * RHF-SCF (CLOSED SHELL)       Authors: W. Meyer, H.-J. Werner


 NUMBER OF ELECTRONS:       5+    5-    SPACE SYMMETRY=1    SPIN SYMMETRY: Singlet 
 CONVERGENCE THRESHOLDS:    1.00E-08 (Density)    1.00E-11 (Energy)
 MAX. NUMBER OF ITERATIONS:       60
 INTERPOLATION TYPE:            DIIS
 INTERPOLATION STEPS:              2 (START)      1 (STEP)
 LEVEL SHIFTS:                  0.00 (CLOSED)  0.00 (OPEN) 



 Orbital guess generated from atomic densities. Full valence occupancy:    7

 Molecular orbital dump at record        2101.2

 Initial occupancy:   5

 ITERATION    DDIFF          GRAD             ENERGY        2-EL.EN.            DIPOLE MOMENTS         DIIS   ORB.
    1      0.000D+00      0.000D+00       -76.01912513     77.337116   -1.06820   -0.19637   -0.39862    0    start
    2      0.000D+00      0.640D-02       -76.04580601     73.691535   -0.61491   -0.11591   -0.23978    1    diag
    3      0.445D-02      0.410D-02       -76.05730887     75.305949   -0.72660   -0.13636   -0.28110    2    diag
    4      0.162D-02      0.377D-03       -76.05750308     75.216429   -0.72133   -0.13596   -0.28118    3    diag
    5      0.209D-03      0.106D-03       -76.05752393     75.230731   -0.71931   -0.13583   -0.28127    4    diag
    6      0.689D-04      0.209D-04       -76.05752526     75.229810   -0.71886   -0.13582   -0.28138    5    diag
    7      0.175D-04      0.418D-05       -76.05752532     75.229939   -0.71871   -0.13581   -0.28139    6    diag
    8      0.457D-05      0.760D-06       -76.05752533     75.229922   -0.71867   -0.13581   -0.28138    7    diag
    9      0.780D-06      0.990D-07       -76.05752533     75.229913   -0.71866   -0.13581   -0.28138    8    diag
   10      0.996D-07      0.256D-07       -76.05752533     75.229916   -0.71866   -0.13581   -0.28138    9    orth
   11      0.245D-07      0.580D-08       -76.05752533     75.229916   -0.71866   -0.13581   -0.28138    9    diag
   12      0.632D-08      0.113D-08       -76.05752533     75.229916   -0.71866   -0.13581   -0.28138    0    orth

 Final occupancy:   5

 !RHF STATE  1.1 Energy               -76.057525326123
 Nuclear energy                         8.96831117
 One-electron energy                 -122.64079439
 Two-electron energy                   37.61495789
 Virial quotient                       -1.00251552
 !RHF STATE  1.1 Dipole moment         -0.71866108    -0.13580920    -0.28138297
 Dipole moment /Debye                  -1.82653462    -0.34516994    -0.71515732

 Orbital energies:

         1.1          2.1          3.1          4.1          5.1          6.1          7.1
    -20.571043    -1.341208    -0.705998    -0.578971    -0.508219     0.022173     0.036787


 HOMO      5.1    -0.508219 =     -13.8293eV
 LUMO      6.1     0.022173 =       0.6033eV
 LUMO-HOMO         0.530391 =      14.4327eV


 **********************************************************************************************************************************
 DATASETS  * FILE   NREC   LENGTH (MB)   RECORD NAMES
              1      18       32.04       500      610      700      900      950      970     1000      129      960     1100   
                                          VAR    BASINP    GEOM    SYMINP    ZMAT    AOBASIS   BASIS     P2S    ABASIS      S 
                                         1400     1410     1200     1210     1080     1600     1650     1700   
                                           T        V       H0       H01     AOSYM     SMH    MOLCAS    OPER   

              2       6        9.09       700     1000      520     2100      200     2101   
                                         GEOM     BASIS   MCVARS     RHF    OPTIONS    RHF  

 PROGRAMS   *        TOTAL    HF-SCF       INT   CCSD(T)    HF-SCF       INT
 CPU TIMES  *       624.98     14.89      0.24    574.37     16.60     18.63
 REAL TIME  *       652.78 SEC
 DISK USED  *       570.36 MB (local),        7.60 GB (total)
 SF USED    *       504.31 MB
 GA USED    *         0.00 MB       (max)       0.00 MB       (current)
 **********************************************************************************************************************************

 Basis set:  JKFIT                   
 Basis size:   740
 Attributes:
 Sphericals:   T
 Basis set:  MP2FIT                  
 Basis size:   816
 Attributes:
 Sphericals:   T
 Basis set:  RI                      
 Basis size:   556
 Attributes:
 Sphericals:   T
 Basis set:  TDDFT                   
 Basis size:   816
 Attributes:
 Sphericals:   T

 PROGRAM * CCSD (Closed-shell coupled cluster)     Authors: C. Hampel, H.-J. Werner, 1991, M. Deegan, P.J. Knowles, 1992


 Convergence thresholds:  THRVAR = 1.00D-08  THRDEN = 1.00D-10

 CCSD(T)     terms to be evaluated (factor= 1.000)


 Number of core orbitals:           1 (   1 )
 Number of closed-shell orbitals:   4 (   4 )
 Number of external orbitals:     225 ( 225 )

 Molecular orbitals read from record     2101.2  Type=RHF/CANONICAL (state 1.1)

 Number of N-1 electron functions:               4
 Number of N-2 electron functions:              10
 Number of singly external CSFs:               900
 Number of doubly external CSFs:            405450
 Total number of CSFs:                      406351

 Length of J-op  integral file:               0.00 MB
 Length of K-op  integral file:               3.65 MB
 Length of 3-ext integral record:             0.00 MB

 Memory could be reduced to 75.63 Mwords without degradation in triples

 Integral transformation finished. Total CPU:  17.15 sec, npass=  1  Memory used:  32.52 MW

 Reference energy:                    -76.05752533

 MP2 singlet pair energy:              -0.17198745
 MP2 triplet pair energy:              -0.09835930
 MP2 correlation energy:               -0.27034675
 MP2 total energy:                    -76.32787208

 SCS-MP2 correlation energy:           -0.26758628   (PS=  1.200000  PT=  0.333333)
 SCS-MP2 total energy:                -76.32511161

 ITER.      SQ.NORM     CORR.ENERGY   TOTAL ENERGY   ENERGY CHANGE        DEN1      VAR(S)    VAR(P)  DIIS     TIME  TIME/IT
   1      1.06441840    -0.27444768   -76.33197301    -0.00410093     0.00170417  0.94D-03  0.10D-02  1  1    21.18     4.11
   2      1.06832252    -0.27475930   -76.33228463    -0.00031162    -0.00497039  0.12D-04  0.13D-03  2  2    25.38     4.24
   3      1.06981178    -0.27484650   -76.33237183    -0.00008720    -0.00095477  0.12D-04  0.60D-05  3  3    29.59     4.30
   4      1.07030069    -0.27484009   -76.33236541     0.00000641    -0.00022393  0.50D-06  0.72D-06  4  4    33.69     4.33
   5      1.07040826    -0.27483715   -76.33236247     0.00000294    -0.00003338  0.16D-06  0.45D-07  5  5    37.84     4.35
   6      1.07044597    -0.27483355   -76.33235888     0.00000359    -0.00000778  0.12D-07  0.29D-08  6  6    41.97     4.36
   7      1.07045270    -0.27483330   -76.33235862     0.00000025    -0.00000075  0.93D-09  0.52D-09  6  1    46.14     4.37
   8      1.07045384    -0.27483326   -76.33235859     0.00000003     0.00000032  0.15D-09  0.56D-10  6  2    50.34     4.38
   9      1.07045439    -0.27483321   -76.33235854     0.00000005     0.00000001  0.12D-10  0.62D-11  6  3    54.52     4.39
  10      1.07045448    -0.27483320   -76.33235853     0.00000001     0.00000001  0.26D-11  0.88D-12  6  4    58.73     4.39
  11      1.07045444    -0.27483321   -76.33235854    -0.00000001     0.00000003  0.50D-12  0.17D-12  6  6    62.90     4.39
  12      1.07045444    -0.27483321   -76.33235854    -0.00000000     0.00000001  0.71D-13  0.23D-13  6  5    67.08     4.40
  13      1.07045442    -0.27483321   -76.33235854    -0.00000000     0.00000000  0.92D-14  0.32D-14  6  1    71.28     4.40
  14      1.07045442    -0.27483321   -76.33235854    -0.00000000     0.00000000  0.99D-15  0.65D-15  6  2    75.48     4.40
  15      1.07045442    -0.27483321   -76.33235854    -0.00000000    -0.00000000  0.92D-16  0.66D-16  6  3    79.68     4.41
  16      1.07045442    -0.27483321   -76.33235854    -0.00000000    -0.00000000  0.12D-16  0.83D-17  6  4    83.82     4.41

 Norm of t1 vector:      0.04153166      S-energy:    -0.00000000      T1 diagnostic:  0.01038292
                                                                       D1 diagnostic:  0.02209659


 Total CPU time for triples:     42.81 sec


 RESULTS
 =======

  Reference energy                    -76.057525326123
  CCSD singlet pair energy             -0.187862183997
  CCSD triplet pair energy             -0.086971027547
  CCSD correlation energy              -0.274833211560

  Triples (T) contribution             -0.008878340080
  Total correlation energy             -0.283711551640

  CCSD total energy                   -76.332358537683
  CCSD[T] energy                      -76.341577475896
  CCSD-T energy                       -76.341053506449
 !CCSD(T) total energy                -76.341236877763

 Timing summary (sec):

 STEP                 CPU(USER)    SYS     CPU(TOT)    WALL
 Transformation         17.21      0.90     18.11     18.13
 CCSD iterations        66.62      3.88     70.50     70.60
 Triples                42.81      0.32     43.13     43.19

 Program statistics:

 Available memory in ccsd:              1999999921
 Min. memory needed in ccsd:               1865022
 Max. memory used in ccsd:                 2159652
 Max. memory used in cckext:               1451153 (16 integral passes)



 **********************************************************************************************************************************
 DATASETS  * FILE   NREC   LENGTH (MB)   RECORD NAMES
              1      19      222.33       500      610      700      900      950      970     1000      129      960     1100   
                                          VAR    BASINP    GEOM    SYMINP    ZMAT    AOBASIS   BASIS     P2S    ABASIS      S 
                                         1400     1410     1200     1210     1080     1600     1650     1700     1380   
                                           T        V       H0       H01     AOSYM     SMH    MOLCAS    OPER     JKOP   

              2       6        9.09       700     1000      520     2100      200     2101   
                                         GEOM     BASIS   MCVARS     RHF    OPTIONS    RHF  

 PROGRAMS   *        TOTAL   CCSD(T)    HF-SCF       INT   CCSD(T)    HF-SCF       INT
 CPU TIMES  *       751.85    126.85     14.89      0.24    574.37     16.60     18.63
 REAL TIME  *       785.42 SEC
 DISK USED  *       570.36 MB (local),        7.60 GB (total)
 SF USED    *       504.31 MB
 GA USED    *         0.00 MB       (max)       0.00 MB       (current)
 **********************************************************************************************************************************

 Running procedure: SET_MONOMER2

 Dummy atoms: O10  H19  H20


 Recomputing one-electron integrals since nuclear charges changed


 PROGRAM * SEWARD (Integral evaluation for generally contracted gaussian basis sets)     Author: Roland Lindh, 1990

 Geometry written to block  1 of record 700


 Point group  C1  



 ATOMIC COORDINATES

 NR  ATOM    CHARGE       X              Y              Z

   1  O10     0.00   -7.075890501    0.749465381   -4.723937366
   2  H19     0.00   -8.725621408    0.873242442   -3.820459306
   3  H20     0.00   -7.500134016    0.238294464   -6.423179097
   4  C1      6.00   -6.193010455    2.801518980    2.403542658
   5  H41     1.00   -4.656285171    1.699997622    3.119937832
   6  H42     1.00   -5.973046335    4.726205038    2.982932688
   7  H43     1.00   -7.940251230    2.077186956    3.118237078
   8  H44     1.00   -6.176569838    2.685300823    0.384937212

 Bond lengths in Bohr (Angstrom)

 1-2  1.884994809  1-3  1.824472726  4-5  2.021904040  4-6  2.022002335  4-7  2.021953343
     ( 0.997496296)     ( 0.965469388)     ( 1.069945541)     ( 1.069997556)     ( 1.069971630)

 4-8  2.022015060
     ( 1.070004290)

 Bond angles

  2-1-3  105.14667399   5-4-6  109.53398059   5-4-7  109.65604535   5-4-8  108.43490854

  6-4-7  109.49436728   6-4-8  109.86987750   7-4-8  109.83468330

 NUCLEAR CHARGE:                   10
 NUMBER OF PRIMITIVE AOS:         296
 NUMBER OF SYMMETRY AOS:          266
 NUMBER OF CONTRACTIONS:          230   (  230A   )
 NUMBER OF CORE ORBITALS:           1   (    1A   )
 NUMBER OF VALENCE ORBITALS:        8   (    8A   )

 MOLECULE CHANGED: INITIALIZING OCCUPATION AND DUMP RECORDS


 NUCLEAR REPULSION ENERGY   13.68681606

 Basis set:  JKFIT                   
 Basis size:   740
 Attributes:
 Sphericals:   T
 Basis set:  MP2FIT                  
 Basis size:   816
 Attributes:
 Sphericals:   T
 Basis set:  RI                      
 Basis size:   556
 Attributes:
 Sphericals:   T
 Basis set:  TDDFT                   
 Basis size:   816
 Attributes:
 Sphericals:   T

 Eigenvalues of metric

         1 0.512E-04 0.790E-04 0.100E-03 0.105E-03 0.330E-03 0.348E-03 0.610E-03 0.717E-03


 Contracted 2-electron integrals neglected if value below      1.0D-14

 OPERATOR DM      FOR CENTER  0  COORDINATES:    0.000000    0.000000    0.000000


 **********************************************************************************************************************************
 DATASETS  * FILE   NREC   LENGTH (MB)   RECORD NAMES
              1      18       32.04       500      610      700      900      950      970     1000      129      960     1100   
                                          VAR    BASINP    GEOM    SYMINP    ZMAT    AOBASIS   BASIS     P2S    ABASIS      S 
                                         1400     1410     1200     1210     1080     1600     1650     1700   
                                           T        V       H0       H01     AOSYM     SMH    MOLCAS    OPER   

              2       6        9.09       700     1000      520     2100      200     2101   
                                         GEOM     BASIS   MCVARS     RHF    OPTIONS    RHF  

 PROGRAMS   *        TOTAL       INT   CCSD(T)    HF-SCF       INT   CCSD(T)    HF-SCF       INT
 CPU TIMES  *       752.07      0.21    126.85     14.89      0.24    574.37     16.60     18.63
 REAL TIME  *       786.19 SEC
 DISK USED  *       570.36 MB (local),        7.60 GB (total)
 SF USED    *       504.31 MB
 GA USED    *         0.00 MB       (max)       0.00 MB       (current)
 **********************************************************************************************************************************


 PROGRAM * RHF-SCF (CLOSED SHELL)       Authors: W. Meyer, H.-J. Werner


 NUMBER OF ELECTRONS:       5+    5-    SPACE SYMMETRY=1    SPIN SYMMETRY: Singlet 
 CONVERGENCE THRESHOLDS:    1.00E-08 (Density)    1.00E-11 (Energy)
 MAX. NUMBER OF ITERATIONS:       60
 INTERPOLATION TYPE:            DIIS
 INTERPOLATION STEPS:              2 (START)      1 (STEP)
 LEVEL SHIFTS:                  0.00 (CLOSED)  0.00 (OPEN) 



 Orbital guess generated from atomic densities. Full valence occupancy:    9

 Molecular orbital dump at record        2102.2

 Initial occupancy:   5

 ITERATION    DDIFF          GRAD             ENERGY        2-EL.EN.            DIPOLE MOMENTS         DIIS   ORB.
    1      0.000D+00      0.000D+00       -40.19358861     53.494068    0.00410   -0.00277   -0.00133    0    start
    2      0.000D+00      0.353D-02       -40.21070597     52.213715    0.00129   -0.00090   -0.00044    1    diag
    3      0.324D-02      0.137D-02       -40.21295438     52.664886    0.00182   -0.00125   -0.00060    2    diag
    4      0.908D-03      0.342D-03       -40.21326981     52.609866    0.00162   -0.00112   -0.00053    3    diag
    5      0.301D-03      0.443D-04       -40.21327521     52.612203    0.00159   -0.00110   -0.00052    4    diag
    6      0.814D-04      0.345D-05       -40.21327524     52.612301    0.00159   -0.00110   -0.00052    5    diag
    7      0.684D-05      0.264D-06       -40.21327524     52.612267    0.00159   -0.00110   -0.00052    6    diag
    8      0.981D-06      0.221D-07       -40.21327524     52.612267    0.00159   -0.00110   -0.00052    7    diag
    9      0.185D-06      0.284D-08       -40.21327524     52.612267    0.00159   -0.00110   -0.00052    8    diag
   10      0.104D-07      0.793D-09       -40.21327524     52.612267    0.00159   -0.00110   -0.00052    9    orth
   11      0.123D-08      0.107D-09       -40.21327524     52.612267    0.00159   -0.00110   -0.00052    0    orth

 Final occupancy:   5

 !RHF STATE  1.1 Energy               -40.213275244941
 Nuclear energy                        13.68681606
 One-electron energy                  -80.20622491
 Two-electron energy                   26.30613361
 Virial quotient                       -0.99869786
 !RHF STATE  1.1 Dipole moment          0.00158516    -0.00110259    -0.00051774
 Dipole moment /Debye                   0.00402880    -0.00280233    -0.00131588

 Orbital energies:

         1.1          2.1          3.1          4.1          5.1          6.1          7.1
    -11.197206    -0.950741    -0.551694    -0.549758    -0.547581     0.026179     0.039984


 HOMO      5.1    -0.547581 =     -14.9004eV
 LUMO      6.1     0.026179 =       0.7124eV
 LUMO-HOMO         0.573760 =      15.6128eV


 **********************************************************************************************************************************
 DATASETS  * FILE   NREC   LENGTH (MB)   RECORD NAMES
              1      18       32.04       500      610      700      900      950      970     1000      129      960     1100   
                                          VAR    BASINP    GEOM    SYMINP    ZMAT    AOBASIS   BASIS     P2S    ABASIS      S 
                                         1400     1410     1200     1210     1080     1600     1650     1700   
                                           T        V       H0       H01     AOSYM     SMH    MOLCAS    OPER   

              2       7       13.71       700     1000      520     2100      200     2101     2102   
                                         GEOM     BASIS   MCVARS     RHF    OPTIONS    RHF      RHF  

 PROGRAMS   *        TOTAL    HF-SCF       INT   CCSD(T)    HF-SCF       INT   CCSD(T)    HF-SCF       INT
 CPU TIMES  *       766.00     13.93      0.21    126.85     14.89      0.24    574.37     16.60     18.63
 REAL TIME  *       801.76 SEC
 DISK USED  *       570.36 MB (local),        7.60 GB (total)
 SF USED    *       504.31 MB
 GA USED    *         0.00 MB       (max)       0.00 MB       (current)
 **********************************************************************************************************************************

 Basis set:  JKFIT                   
 Basis size:   740
 Attributes:
 Sphericals:   T
 Basis set:  MP2FIT                  
 Basis size:   816
 Attributes:
 Sphericals:   T
 Basis set:  RI                      
 Basis size:   556
 Attributes:
 Sphericals:   T
 Basis set:  TDDFT                   
 Basis size:   816
 Attributes:
 Sphericals:   T

 PROGRAM * CCSD (Closed-shell coupled cluster)     Authors: C. Hampel, H.-J. Werner, 1991, M. Deegan, P.J. Knowles, 1992


 Convergence thresholds:  THRVAR = 1.00D-08  THRDEN = 1.00D-10

 CCSD(T)     terms to be evaluated (factor= 1.000)


 Number of core orbitals:           1 (   1 )
 Number of closed-shell orbitals:   4 (   4 )
 Number of external orbitals:     225 ( 225 )

 Molecular orbitals read from record     2102.2  Type=RHF/CANONICAL (state 1.1)

 Number of N-1 electron functions:               4
 Number of N-2 electron functions:              10
 Number of singly external CSFs:               900
 Number of doubly external CSFs:            405450
 Total number of CSFs:                      406351

 Length of J-op  integral file:               0.00 MB
 Length of K-op  integral file:               3.65 MB
 Length of 3-ext integral record:             0.00 MB

 Memory could be reduced to 75.63 Mwords without degradation in triples

 Integral transformation finished. Total CPU:  17.00 sec, npass=  1  Memory used:  32.52 MW

 Reference energy:                    -40.21327524

 MP2 singlet pair energy:              -0.14545682
 MP2 triplet pair energy:              -0.05506495
 MP2 correlation energy:               -0.20052177
 MP2 total energy:                    -40.41379701

 SCS-MP2 correlation energy:           -0.20881082   (PS=  1.200000  PT=  0.333333)
 SCS-MP2 total energy:                -40.42208606

 ITER.      SQ.NORM     CORR.ENERGY   TOTAL ENERGY   ENERGY CHANGE        DEN1      VAR(S)    VAR(P)  DIIS     TIME  TIME/IT
   1      1.07101018    -0.21906794   -40.43234319    -0.01854617    -0.01309294  0.46D-03  0.10D-02  1  1    21.05     4.13
   2      1.07650316    -0.22016914   -40.43344439    -0.00110120    -0.00567762  0.13D-04  0.71D-04  2  2    25.16     4.26
   3      1.07773181    -0.22022245   -40.43349769    -0.00005331    -0.00078835  0.16D-05  0.48D-05  3  3    29.33     4.33
   4      1.07803592    -0.22023145   -40.43350670    -0.00000901    -0.00012820  0.92D-07  0.22D-06  4  4    33.53     4.37
   5      1.07808213    -0.22023039   -40.43350563     0.00000107    -0.00001887  0.57D-08  0.16D-07  5  5    37.74     4.39
   6      1.07808700    -0.22022959   -40.43350484     0.00000079    -0.00000157  0.46D-09  0.11D-08  6  6    41.95     4.41
   7      1.07808770    -0.22022944   -40.43350469     0.00000015    -0.00000033  0.32D-10  0.90D-10  6  1    46.16     4.42
   8      1.07808774    -0.22022948   -40.43350472    -0.00000003     0.00000011  0.27D-11  0.52D-11  6  2    50.44     4.42
   9      1.07808775    -0.22022948   -40.43350472    -0.00000000     0.00000002  0.30D-12  0.47D-12  6  3    54.65     4.43
  10      1.07808775    -0.22022948   -40.43350472     0.00000000     0.00000001  0.27D-13  0.49D-13  6  4    58.86     4.43
  11      1.07808774    -0.22022948   -40.43350472     0.00000000     0.00000001  0.22D-14  0.49D-14  6  5    63.22     4.44
  12      1.07808773    -0.22022948   -40.43350472     0.00000000     0.00000000  0.54D-16  0.59D-15  6  6    67.50     4.44

 Norm of t1 vector:      0.02947150      S-energy:     0.00000000      T1 diagnostic:  0.00736787
                                                                       D1 diagnostic:  0.01186582

 Total CPU time for triples:     43.11 sec


 RESULTS
 =======

  Reference energy                    -40.213275244941
  CCSD singlet pair energy             -0.166735057623
  CCSD triplet pair energy             -0.053494420449
  CCSD correlation energy              -0.220229478015

  Triples (T) contribution             -0.006423294630
  Total correlation energy             -0.226652772645

  CCSD total energy                   -40.433504722956
  CCSD[T] energy                      -40.440110573907
  CCSD-T energy                       -40.439860121425
 !CCSD(T) total energy                -40.439928017586

 Timing summary (sec):

 STEP                 CPU(USER)    SYS     CPU(TOT)    WALL
 Transformation         17.06      0.81     17.87     17.90
 CCSD iterations        50.45      2.85     53.30     53.36
 Triples                43.11      0.36     43.47     43.53

 Program statistics:

 Available memory in ccsd:              1999999916
 Min. memory needed in ccsd:               1865022
 Max. memory used in ccsd:                 2159652
 Max. memory used in cckext:               1451153 (12 integral passes)



 **********************************************************************************************************************************
 DATASETS  * FILE   NREC   LENGTH (MB)   RECORD NAMES
              1      19      222.33       500      610      700      900      950      970     1000      129      960     1100   
                                          VAR    BASINP    GEOM    SYMINP    ZMAT    AOBASIS   BASIS     P2S    ABASIS      S 
                                         1400     1410     1200     1210     1080     1600     1650     1700     1380   
                                           T        V       H0       H01     AOSYM     SMH    MOLCAS    OPER     JKOP   

              2       7       13.71       700     1000      520     2100      200     2101     2102   
                                         GEOM     BASIS   MCVARS     RHF    OPTIONS    RHF      RHF  

 PROGRAMS   *        TOTAL   CCSD(T)    HF-SCF       INT   CCSD(T)    HF-SCF       INT   CCSD(T)    HF-SCF       INT
 CPU TIMES  *       876.87    110.86     13.93      0.21    126.85     14.89      0.24    574.37     16.60     18.63
 REAL TIME  *       917.28 SEC
 DISK USED  *       570.36 MB (local),        7.60 GB (total)
 SF USED    *       504.31 MB
 GA USED    *         0.00 MB       (max)       0.00 MB       (current)
 **********************************************************************************************************************************
 Molecular orbitals read from record     2102.2  Type=RHF/CANONICAL (state 1.1)
 Occupation numbers read from record     2102.2  Type=RHF/RHF (state 1.1)
 Orbital energies read from record       2102.2  Type=RHF/CANONICAL (state 1.1)
 Redundancy group numbers read from rec  2102.2  Type=RHF/RHF (state 1.1)

 CCSD(T)/aug-cc-pVTZ energy=    -40.439928017586

         CCSD(T)          HF-SCF         CCSD(T)          HF-SCF         CCSD(T)          HF-SCF
    -40.43992802    -40.21327524    -76.34123688    -76.05752533   -116.78191541   -116.27083858
 **********************************************************************************************************************************
 Molpro calculation terminated
