
 Primary working directories    : /scratch/klimes/383093/molpro.Sgk2ZhTh0y
 Secondary working directories  : /scratch/klimes/383093/molpro.Sgk2ZhTh0y
 Wavefunction directory         : /scratch/klimes/383093/
 Main file repository           : /scratch/klimes/383093/molpro.Sgk2ZhTh0y/

 id        : karlovklimes

 Nodes                      nprocs
 nc-04.cc.karlov.mff.cuni.cz    4

 Using customized tuning parameters: mindgm=1; mindgv=20; mindgc=4; mindgr=1; noblas=0; minvec=7
 default implementation of scratch files=sf  


 Variables initialized (930), CPU time= 0.00 sec
                                                                                 !gdirect
 memory,2000,m
 gthresh,orbital=1d-10,energy=1d-10,grid=1d-8
 
 symmetry,nosym
 angstrom
 geometry={
 O11        -2.921900000000      2.481400000000      4.906200000000
 H21        -2.027400000000      2.492000000000      4.514500000000
 H22        -3.418800000000      3.190500000000      4.446000000000
 C1        -3.277200000000      1.482500000000      1.271900000000
 H41        -2.464000000000      0.899600000000      1.651000000000
 H42        -3.160800000000      2.501000000000      1.578500000000
 H43        -4.201800000000      1.099200000000      1.650100000000
 H44        -3.268500000000      1.421000000000      0.203700000000
 }
 
 nkerna=1
 nkernb=1
 
 gf=0
 sing=1
 thrdum=1d-4
 gridthr=1d-8
 
 basis={
 set,orbital
 default,avtz
 set,jkfit
 default,avqz/jkfit
 set,mp2fit
 default,avqz/mp2fit
 set,ri
 default,avqz/optri
 set,tddft
 default,avqz/mp2fit
 }
 
 proc set_monomer1
 dummy,4,5,6,7,8
 endproc
 
 proc set_monomer2
 dummy,1,2,3
 endproc
 
                                                                                 !1234 energy
 {hf,accu=1.d-16}
 ccsd(t)
 
 set_monomer1
 {hf,accu=1.d-16}
 ccsd(t)
 
 set_monomer2
 {hf,accu=1.d-16}
 ccsd(t)
 
 Commands  initialized (760), CPU time= 0.01 sec, 617 directives.
 Default parameters read. Elapsed time= 0.19 sec

 Checking input...
 Passed
1


                                         ***  PROGRAM SYSTEM MOLPRO  ***
                                       Copyright, TTI GmbH Stuttgart, 2015
                                    Version 2019.1 linked Jan 14 2019 13:09:19


 **********************************************************************************************************************************
 LABEL *                                                                                 
  64 bit mpp version                                                                     DATE: 11-Mar-20          TIME: 12:52:30  
 **********************************************************************************************************************************

 SHA1:             d688ac825633d238f2093ded1675ba87ccd55965
 **********************************************************************************************************************************

 THRESHOLDS:

 ZERO    =  1.00D-12  ONEINT  =  1.00D-12  TWOINT  =  1.00D-11  PREFAC  =  1.00D-14  XXXXXX  =  1.00D-09  EORDER  =  1.00D-04
 ENERGY  =  1.00D-10  ETEST   =  0.00D+00  EDENS   =  0.00D+00  THRDEDEF=  1.00D-06  GRADIENT=  1.00D-02  STEP    =  1.00D-03
 ORBITAL =  1.00D-10  CIVEC   =  1.00D-05  COEFF   =  1.00D-04  PRINTCI =  5.00D-02  PUNCHCI =  9.90D+01  OPTGRAD =  3.00D-04
 OPTENERG=  1.00D-06  OPTSTEP =  3.00D-04  THRGRAD =  1.00D-10  COMPRESS=  1.00D-11  VARMIN  =  1.00D-07  VARMAX  =  1.00D-03
 THRDOUB =  0.00D+00  THRDIV  =  1.00D-05  THRRED  =  1.00D-07  THRPSP  =  1.00D+00  THRDC   =  1.00D-10  THRCS   =  1.00D-10
 THRNRM  =  1.00D-08  THREQ   =  0.00D+00  THRDE   =  1.00D+00  THRREF  =  1.00D-05  SPARFAC =  1.00D+00  THRDLP  =  1.00D-07
 THRDIA  =  1.00D-10  THRDLS  =  1.00D-07  THRGPS  =  0.00D+00  THRKEX  =  0.00D+00  THRDIS  =  2.00D-01  THRVAR  =  1.00D-10
 THRLOC  =  1.00D-06  THRGAP  =  1.00D-06  THRLOCT = -1.00D+00  THRGAPT = -1.00D+00  THRORB  =  1.00D-06  THRMLTP =  0.00D+00
 THRCPQCI=  1.00D-10  KEXTA   =  0.00D+00  THRCOARS=  0.00D+00  SYMTOL  =  1.00D-06  GRADTOL =  1.00D-06  THROVL  =  1.00D-08
 THRORTH =  1.00D-08  GRID    =  1.00D-08  GRIDMAX =  1.00D-03  DTMAX   =  0.00D+00  THROCCDE=  1.00D-01  THROCCDE=  1.00D-01
 THRPRINT=  2.50D-01


 Variable memory set to 2000000000 words,  buffer space 

 ZSYMEL=NOSYM
 ZUNIT=ANG


Geometry recognized as XYZ

 SETTING NKERNA         =         1.00000000                                  
 SETTING NKERNB         =         1.00000000                                  
 SETTING GF             =     0.00000000D+00                                  
 SETTING SING           =         1.00000000                                  
 SETTING THRDUM         =     1.00000000D-04                                  
 SETTING GRIDTHR        =     1.00000000D-08                                  
 SETTING BASIS          =    AVTZ


 Recomputing integrals since basis changed


 Using spherical harmonics

 Library entry O      S aug-cc-pVTZ          selected for orbital group  1
 Library entry O      P aug-cc-pVTZ          selected for orbital group  1
 Library entry O      D aug-cc-pVTZ          selected for orbital group  1
 Library entry O      F aug-cc-pVTZ          selected for orbital group  1
 Library entry H      S aug-cc-pVTZ          selected for orbital group  2
 Library entry H      P aug-cc-pVTZ          selected for orbital group  2
 Library entry H      D aug-cc-pVTZ          selected for orbital group  2
 Library entry C      S aug-cc-pVTZ          selected for orbital group  3
 Library entry C      P aug-cc-pVTZ          selected for orbital group  3
 Library entry C      D aug-cc-pVTZ          selected for orbital group  3
 Library entry C      F aug-cc-pVTZ          selected for orbital group  3


 PROGRAM * SEWARD (Integral evaluation for generally contracted gaussian basis sets)     Author: Roland Lindh, 1990

 Geometry written to block  1 of record 700


 Point group  C1  



 ATOMIC COORDINATES

 NR  ATOM    CHARGE       X              Y              Z

   1  O11     8.00   -5.521590763    4.689166405    9.271374312
   2  H21     1.00   -3.831230745    4.709197502    8.531168589
   3  H22     1.00   -6.460595675    6.029171200    8.401722350
   4  C1      6.00   -6.193010455    2.801518980    2.403542658
   5  H41     1.00   -4.656285171    1.699997622    3.119937832
   6  H42     1.00   -5.973046335    4.726205038    2.982932688
   7  H43     1.00   -7.940251230    2.077186956    3.118237078
   8  H44     1.00   -6.176569838    2.685300823    0.384937212

 Bond lengths in Bohr (Angstrom)

 1-2  1.845432944  1-3  1.853007720  4-5  2.021904040  4-6  2.022002335  4-7  2.021953343
     ( 0.976561058)     ( 0.980569457)     ( 1.069945541)     ( 1.069997556)     ( 1.069971630)

 4-8  2.022015060
     ( 1.070004290)

 Bond angles

  2-1-3  105.54946434   5-4-6  109.53398059   5-4-7  109.65604535   5-4-8  108.43490854

  6-4-7  109.49436728   6-4-8  109.86987750   7-4-8  109.83468330

 NUCLEAR CHARGE:                   20
 NUMBER OF PRIMITIVE AOS:         296
 NUMBER OF SYMMETRY AOS:          266
 NUMBER OF CONTRACTIONS:          230   (  230A   )
 NUMBER OF CORE ORBITALS:           2   (    2A   )
 NUMBER OF VALENCE ORBITALS:       14   (   14A   )


 NUCLEAR REPULSION ENERGY   36.73986578


 Basis set:  JKFIT                   
 Basis size:   740
 Attributes:
 Sphericals:   T
 Basis set:  MP2FIT                  
 Basis size:   816
 Attributes:
 Sphericals:   T
 Basis set:  RI                      
 Basis size:   556
 Attributes:
 Sphericals:   T
 Basis set:  TDDFT                   
 Basis size:   816
 Attributes:
 Sphericals:   T

 **********************************************************************************************************************************


 Eigenvalues of metric

         1 0.599E-04 0.687E-04 0.996E-04 0.103E-03 0.333E-03 0.393E-03 0.626E-03 0.729E-03


 Contracted 2-electron integrals neglected if value below      1.0D-14
 AO integral compression algorithm  1   Integral accuracy      1.0D-14

     2187.330 MB (compressed) written to integral file ( 68.2%)

     Node minimum: 521.667 MB, node maximum: 565.969 MB


 NUMBER OF SORTED TWO-ELECTRON INTEGRALS:   88219044.     BUFFER LENGTH:  32768
 NUMBER OF SEGMENTS:   6  SEGMENT LENGTH:   15998348      RECORD LENGTH: 524288

 Memory used in sort:      16.56 MW

 SORT1 READ   400769927. AND WROTE    82598320. INTEGRALS IN    238 RECORDS. CPU TIME:     9.96 SEC, REAL TIME:    11.48 SEC
 SORT2 READ   330187348. AND WROTE   352862895. INTEGRALS IN   8416 RECORDS. CPU TIME:     2.25 SEC, REAL TIME:     3.93 SEC

 Node minimum:    88205762.  Node maximum:    88225686. integrals

 OPERATOR DM      FOR CENTER  0  COORDINATES:    0.000000    0.000000    0.000000


 **********************************************************************************************************************************
 DATASETS  * FILE   NREC   LENGTH (MB)   RECORD NAMES
              1      18       32.04       500      610      700      900      950      970     1000      129      960     1100   
                                          VAR    BASINP    GEOM    SYMINP    ZMAT    AOBASIS   BASIS     P2S    ABASIS      S 
                                         1400     1410     1200     1210     1080     1600     1650     1700   
                                           T        V       H0       H01     AOSYM     SMH    MOLCAS    OPER   

 PROGRAMS   *        TOTAL       INT
 CPU TIMES  *        17.23     17.01
 REAL TIME  *        24.47 SEC
 DISK USED  *        32.49 MB (local),        6.22 GB (total)
 GA USED    *         0.00 MB       (max)       0.00 MB       (current)
 **********************************************************************************************************************************


 PROGRAM * RHF-SCF (CLOSED SHELL)       Authors: W. Meyer, H.-J. Werner


 NUMBER OF ELECTRONS:      10+   10-    SPACE SYMMETRY=1    SPIN SYMMETRY: Singlet 
 CONVERGENCE THRESHOLDS:    1.00E-08 (Density)    1.00E-11 (Energy)
 MAX. NUMBER OF ITERATIONS:       60
 INTERPOLATION TYPE:            DIIS
 INTERPOLATION STEPS:              2 (START)      1 (STEP)
 LEVEL SHIFTS:                  0.00 (CLOSED)  0.00 (OPEN) 



 Orbital guess generated from atomic densities. Full valence occupancy:   16

 Molecular orbital dump at record        2100.2

 Initial occupancy:  10

 ITERATION    DDIFF          GRAD             ENERGY        2-EL.EN.            DIPOLE MOMENTS         DIIS   ORB.
    1      0.000D+00      0.000D+00      -116.21324754    158.882853    0.38791    0.69417   -0.82679    0    start
    2      0.000D+00      0.522D-02      -116.25715256    154.058621    0.20550    0.35971   -0.48612    1    diag
    3      0.553D-02      0.307D-02      -116.27052139    156.068420    0.25199    0.44531   -0.57120    2    diag
    4      0.183D-02      0.454D-03      -116.27117666    155.957560    0.24896    0.43966   -0.56285    3    diag
    5      0.405D-03      0.133D-03      -116.27124348    155.951339    0.24864    0.43924   -0.56281    4    diag
    6      0.142D-03      0.323D-04      -116.27124719    155.957273    0.24838    0.43876   -0.56228    5    diag
    7      0.400D-04      0.613D-05      -116.27124740    155.955694    0.24839    0.43880   -0.56229    6    diag
    8      0.107D-04      0.153D-05      -116.27124741    155.955840    0.24837    0.43875   -0.56225    7    diag
    9      0.208D-05      0.348D-06      -116.27124741    155.955815    0.24836    0.43874   -0.56223    8    diag
   10      0.710D-06      0.404D-07      -116.27124741    155.955817    0.24836    0.43874   -0.56223    9    orth
   11      0.563D-07      0.101D-07      -116.27124741    155.955818    0.24836    0.43874   -0.56223    9    diag
   12      0.224D-07      0.268D-08      -116.27124741    155.955818    0.24836    0.43874   -0.56223    9    diag
   13      0.433D-08      0.709D-09      -116.27124741    155.955818    0.24836    0.43874   -0.56223    0    orth

 Final occupancy:  10

 !RHF STATE  1.1 Energy              -116.271247412966
 Nuclear energy                        36.73986578
 One-electron energy                 -230.98902218
 Two-electron energy                   77.97790899
 Virial quotient                       -1.00110157
 !RHF STATE  1.1 Dipole moment          0.24836388     0.43874167    -0.56223320
 Dipole moment /Debye                   0.63123666     1.11509705    -1.42896066

 Orbital energies:

         1.1          2.1          3.1          4.1          5.1          6.1          7.1          8.1          9.1         10.1
    -20.569177   -11.200649    -1.341106    -0.954046    -0.707211    -0.578405    -0.555394    -0.552976    -0.550791    -0.506849

        11.1         12.1
      0.026309     0.041109


 HOMO     10.1    -0.506849 =     -13.7921eV
 LUMO     11.1     0.026309 =       0.7159eV
 LUMO-HOMO         0.533157 =      14.5079eV


 **********************************************************************************************************************************
 DATASETS  * FILE   NREC   LENGTH (MB)   RECORD NAMES
              1      18       32.04       500      610      700      900      950      970     1000      129      960     1100   
                                          VAR    BASINP    GEOM    SYMINP    ZMAT    AOBASIS   BASIS     P2S    ABASIS      S 
                                         1400     1410     1200     1210     1080     1600     1650     1700   
                                           T        V       H0       H01     AOSYM     SMH    MOLCAS    OPER   

              2       4        3.96       700     1000      520     2100   
                                         GEOM     BASIS   MCVARS     RHF  

 PROGRAMS   *        TOTAL    HF-SCF       INT
 CPU TIMES  *        31.77     14.54     17.01
 REAL TIME  *        40.61 SEC
 DISK USED  *        39.90 MB (local),        6.25 GB (total)
 SF USED    *         0.21 MB
 GA USED    *         0.00 MB       (max)       0.00 MB       (current)
 **********************************************************************************************************************************

 Basis set:  JKFIT                   
 Basis size:   740
 Attributes:
 Sphericals:   T
 Basis set:  MP2FIT                  
 Basis size:   816
 Attributes:
 Sphericals:   T
 Basis set:  RI                      
 Basis size:   556
 Attributes:
 Sphericals:   T
 Basis set:  TDDFT                   
 Basis size:   816
 Attributes:
 Sphericals:   T

 PROGRAM * CCSD (Closed-shell coupled cluster)     Authors: C. Hampel, H.-J. Werner, 1991, M. Deegan, P.J. Knowles, 1992


 Convergence thresholds:  THRVAR = 1.00D-08  THRDEN = 1.00D-10

 CCSD(T)     terms to be evaluated (factor= 1.000)


 Number of core orbitals:           2 (   2 )
 Number of closed-shell orbitals:   8 (   8 )
 Number of external orbitals:     220 ( 220 )

 Molecular orbitals read from record     2100.2  Type=RHF/CANONICAL (state 1.1)

 Number of N-1 electron functions:               8
 Number of N-2 electron functions:              36
 Number of singly external CSFs:              1760
 Number of doubly external CSFs:           1549680
 Total number of CSFs:                     1551441

 Length of J-op  integral file:               0.00 MB
 Length of K-op  integral file:               3.65 MB
 Length of 3-ext integral record:             0.00 MB

 Memory could be reduced to 116.39 Mwords without degradation in triples

 Integral transformation finished. Total CPU:  29.94 sec, npass=  1  Memory used:  59.35 MW

 Reference energy:                   -116.27124741

 MP2 singlet pair energy:              -0.31745286
 MP2 triplet pair energy:              -0.15383700
 MP2 correlation energy:               -0.47128987
 MP2 total energy:                   -116.74253728

 SCS-MP2 correlation energy:           -0.47666424   (PS=  1.200000  PT=  0.333333)
 SCS-MP2 total energy:               -116.74791165

 ITER.      SQ.NORM     CORR.ENERGY   TOTAL ENERGY   ENERGY CHANGE        DEN1      VAR(S)    VAR(P)  DIIS     TIME  TIME/IT
   1      1.13548836    -0.49396435  -116.76521176    -0.02267448    -0.01143551  0.14D-02  0.20D-02  1  1    45.73    15.84
   2      1.14457104    -0.49538197  -116.76662939    -0.00141762    -0.01038527  0.23D-04  0.24D-03  2  2    61.66    16.08
   3      1.14758139    -0.49551400  -116.76676141    -0.00013203    -0.00196851  0.14D-04  0.11D-04  3  3    77.57    16.17
   4      1.14838992    -0.49551497  -116.76676238    -0.00000097    -0.00036416  0.58D-06  0.12D-05  4  4    93.55    16.23
   5      1.14854824    -0.49551223  -116.76675964     0.00000274    -0.00005050  0.21D-06  0.79D-07  5  5   109.54    16.26
   6      1.14859638    -0.49550765  -116.76675507     0.00000458    -0.00001213  0.19D-07  0.56D-08  6  6   125.53    16.30
   7      1.14860494    -0.49550703  -116.76675445     0.00000062    -0.00000095  0.17D-08  0.10D-08  6  2   141.63    16.31
   8      1.14860697    -0.49550688  -116.76675429     0.00000015    -0.00000015  0.35D-09  0.11D-09  6  1   157.57    16.32
   9      1.14860775    -0.49550684  -116.76675425     0.00000004     0.00000015  0.29D-10  0.14D-10  6  3   173.63    16.34
  10      1.14860798    -0.49550682  -116.76675423     0.00000002    -0.00000001  0.34D-11  0.22D-11  6  4   189.63    16.35
  11      1.14860794    -0.49550683  -116.76675424    -0.00000001     0.00000006  0.65D-12  0.29D-12  6  6   205.65    16.35
  12      1.14860792    -0.49550683  -116.76675424    -0.00000000     0.00000002  0.11D-12  0.38D-13  6  5   221.61    16.36
  13      1.14860790    -0.49550683  -116.76675424    -0.00000000     0.00000001  0.19D-13  0.64D-14  6  2   237.56    16.36
  14      1.14860789    -0.49550683  -116.76675424    -0.00000000     0.00000000  0.27D-14  0.13D-14  6  1   253.53    16.36
  15      1.14860789    -0.49550683  -116.76675424    -0.00000000     0.00000000  0.22D-15  0.15D-15  6  3   269.52    16.36
  16      1.14860789    -0.49550683  -116.76675424    -0.00000000    -0.00000000  0.35D-16  0.21D-16  6  4   285.45    16.36
  17      1.14860789    -0.49550683  -116.76675424     0.00000000    -0.00000000  0.72D-17  0.32D-17  6  6   301.47    16.37

 Norm of t1 vector:      0.05136597      S-energy:    -0.00000000      T1 diagnostic:  0.00908031
                                                                       D1 diagnostic:  0.02246645


 Total CPU time for triples:    257.50 sec


 RESULTS
 =======

  Reference energy                   -116.271247412964
  CCSD singlet pair energy             -0.354519179402
  CCSD triplet pair energy             -0.140987651043
  CCSD correlation energy              -0.495506830459

  Triples (T) contribution             -0.015397880738
  Total correlation energy             -0.510904711197

  CCSD total energy                  -116.766754243423
  CCSD[T] energy                     -116.782678566921
  CCSD-T energy                      -116.781898574066
 !CCSD(T) total energy               -116.782152124162

 Timing summary (sec):

 STEP                 CPU(USER)    SYS     CPU(TOT)    WALL
 Transformation         30.14      1.38     31.52     31.56
 CCSD iterations       271.35      6.66    278.01    278.33
 Triples               257.50      2.02    259.52    259.87

 Program statistics:

 Available memory in ccsd:              1999999734
 Min. memory needed in ccsd:               4617529
 Max. memory used in ccsd:                 5944569
 Max. memory used in cckext:               4248553 (17 integral passes)



 **********************************************************************************************************************************
 DATASETS  * FILE   NREC   LENGTH (MB)   RECORD NAMES
              1      19      398.13       500      610      700      900      950      970     1000      129      960     1100   
                                          VAR    BASINP    GEOM    SYMINP    ZMAT    AOBASIS   BASIS     P2S    ABASIS      S 
                                         1400     1410     1200     1210     1080     1600     1650     1700     1380   
                                           T        V       H0       H01     AOSYM     SMH    MOLCAS    OPER     JKOP   

              2       4        3.96       700     1000      520     2100   
                                         GEOM     BASIS   MCVARS     RHF  

 PROGRAMS   *        TOTAL   CCSD(T)    HF-SCF       INT
 CPU TIMES  *       591.01    559.22     14.54     17.01
 REAL TIME  *       611.16 SEC
 DISK USED  *       570.36 MB (local),        7.86 GB (total)
 SF USED    *       504.31 MB
 GA USED    *         0.00 MB       (max)       0.00 MB       (current)
 **********************************************************************************************************************************

 Running procedure: SET_MONOMER1

 Dummy atoms: C1  H41  H42  H43  H44


 Recomputing one-electron integrals since nuclear charges changed


 PROGRAM * SEWARD (Integral evaluation for generally contracted gaussian basis sets)     Author: Roland Lindh, 1990

 Geometry written to block  1 of record 700


 Point group  C1  



 ATOMIC COORDINATES

 NR  ATOM    CHARGE       X              Y              Z

   1  O11     8.00   -5.521590763    4.689166405    9.271374312
   2  H21     1.00   -3.831230745    4.709197502    8.531168589
   3  H22     1.00   -6.460595675    6.029171200    8.401722350
   4  C1      0.00   -6.193010455    2.801518980    2.403542658
   5  H41     0.00   -4.656285171    1.699997622    3.119937832
   6  H42     0.00   -5.973046335    4.726205038    2.982932688
   7  H43     0.00   -7.940251230    2.077186956    3.118237078
   8  H44     0.00   -6.176569838    2.685300823    0.384937212

 Bond lengths in Bohr (Angstrom)

 1-2  1.845432944  1-3  1.853007720  4-5  2.021904040  4-6  2.022002335  4-7  2.021953343
     ( 0.976561058)     ( 0.980569457)     ( 1.069945541)     ( 1.069997556)     ( 1.069971630)

 4-8  2.022015060
     ( 1.070004290)

 Bond angles

  2-1-3  105.54946434   5-4-6  109.53398059   5-4-7  109.65604535   5-4-8  108.43490854

  6-4-7  109.49436728   6-4-8  109.86987750   7-4-8  109.83468330

 NUCLEAR CHARGE:                   10
 NUMBER OF PRIMITIVE AOS:         296
 NUMBER OF SYMMETRY AOS:          266
 NUMBER OF CONTRACTIONS:          230   (  230A   )
 NUMBER OF CORE ORBITALS:           1   (    1A   )
 NUMBER OF VALENCE ORBITALS:        6   (    6A   )

 MOLECULE CHANGED: INITIALIZING OCCUPATION AND DUMP RECORDS


 NUCLEAR REPULSION ENERGY    8.99189736

 Basis set:  JKFIT                   
 Basis size:   740
 Attributes:
 Sphericals:   T
 Basis set:  MP2FIT                  
 Basis size:   816
 Attributes:
 Sphericals:   T
 Basis set:  RI                      
 Basis size:   556
 Attributes:
 Sphericals:   T
 Basis set:  TDDFT                   
 Basis size:   816
 Attributes:
 Sphericals:   T

 Eigenvalues of metric

         1 0.599E-04 0.687E-04 0.996E-04 0.103E-03 0.333E-03 0.393E-03 0.626E-03 0.729E-03


 Contracted 2-electron integrals neglected if value below      1.0D-14

 OPERATOR DM      FOR CENTER  0  COORDINATES:    0.000000    0.000000    0.000000


 **********************************************************************************************************************************
 DATASETS  * FILE   NREC   LENGTH (MB)   RECORD NAMES
              1      18       32.04       500      610      700      900      950      970     1000      129      960     1100   
                                          VAR    BASINP    GEOM    SYMINP    ZMAT    AOBASIS   BASIS     P2S    ABASIS      S 
                                         1400     1410     1200     1210     1080     1600     1650     1700   
                                           T        V       H0       H01     AOSYM     SMH    MOLCAS    OPER   

              2       5        5.05       700     1000      520     2100      200   
                                         GEOM     BASIS   MCVARS     RHF    OPTIONS    

 PROGRAMS   *        TOTAL       INT   CCSD(T)    HF-SCF       INT
 CPU TIMES  *       591.24      0.24    559.22     14.54     17.01
 REAL TIME  *       611.95 SEC
 DISK USED  *       570.36 MB (local),        7.87 GB (total)
 SF USED    *       504.31 MB
 GA USED    *         0.00 MB       (max)       0.00 MB       (current)
 **********************************************************************************************************************************


 PROGRAM * RHF-SCF (CLOSED SHELL)       Authors: W. Meyer, H.-J. Werner


 NUMBER OF ELECTRONS:       5+    5-    SPACE SYMMETRY=1    SPIN SYMMETRY: Singlet 
 CONVERGENCE THRESHOLDS:    1.00E-08 (Density)    1.00E-11 (Energy)
 MAX. NUMBER OF ITERATIONS:       60
 INTERPOLATION TYPE:            DIIS
 INTERPOLATION STEPS:              2 (START)      1 (STEP)
 LEVEL SHIFTS:                  0.00 (CLOSED)  0.00 (OPEN) 



 Orbital guess generated from atomic densities. Full valence occupancy:    7

 Molecular orbital dump at record        2101.2

 Initial occupancy:   5

 ITERATION    DDIFF          GRAD             ENERGY        2-EL.EN.            DIPOLE MOMENTS         DIIS   ORB.
    1      0.000D+00      0.000D+00       -76.02020525     77.370353    0.38419    0.69823   -0.82577    0    start
    2      0.000D+00      0.639D-02       -76.04680703     73.739859    0.22471    0.40585   -0.48050    1    diag
    3      0.445D-02      0.408D-02       -76.05817120     75.345107    0.26442    0.47810   -0.56596    2    diag
    4      0.161D-02      0.376D-03       -76.05836226     75.255736    0.26310    0.47519   -0.56264    3    diag
    5      0.204D-03      0.105D-03       -76.05838229     75.269842    0.26260    0.47408   -0.56137    4    diag
    6      0.646D-04      0.204D-04       -76.05838353     75.268962    0.26252    0.47386   -0.56113    5    diag
    7      0.162D-04      0.403D-05       -76.05838359     75.269091    0.26248    0.47378   -0.56103    6    diag
    8      0.416D-05      0.747D-06       -76.05838359     75.269076    0.26247    0.47375   -0.56101    7    diag
    9      0.711D-06      0.957D-07       -76.05838359     75.269067    0.26247    0.47375   -0.56100    8    diag
   10      0.870D-07      0.236D-07       -76.05838359     75.269070    0.26247    0.47375   -0.56100    9    orth
   11      0.228D-07      0.421D-08       -76.05838359     75.269070    0.26247    0.47375   -0.56100    9    diag
   12      0.479D-08      0.622D-09       -76.05838359     75.269070    0.26247    0.47375   -0.56100    0    orth

 Final occupancy:   5

 !RHF STATE  1.1 Energy               -76.058383592699
 Nuclear energy                         8.99189736
 One-electron energy                 -122.68481579
 Two-electron energy                   37.63453483
 Virial quotient                       -1.00241651
 !RHF STATE  1.1 Dipole moment          0.26246573     0.47375218    -0.56100344
 Dipole moment /Debye                   0.66707765     1.20407906    -1.42583513

 Orbital energies:

         1.1          2.1          3.1          4.1          5.1          6.1          7.1
    -20.570407    -1.342121    -0.708196    -0.578830    -0.508319     0.019751     0.038417


 HOMO      5.1    -0.508319 =     -13.8321eV
 LUMO      6.1     0.019751 =       0.5375eV
 LUMO-HOMO         0.528070 =      14.3695eV


 **********************************************************************************************************************************
 DATASETS  * FILE   NREC   LENGTH (MB)   RECORD NAMES
              1      18       32.04       500      610      700      900      950      970     1000      129      960     1100   
                                          VAR    BASINP    GEOM    SYMINP    ZMAT    AOBASIS   BASIS     P2S    ABASIS      S 
                                         1400     1410     1200     1210     1080     1600     1650     1700   
                                           T        V       H0       H01     AOSYM     SMH    MOLCAS    OPER   

              2       6        9.09       700     1000      520     2100      200     2101   
                                         GEOM     BASIS   MCVARS     RHF    OPTIONS    RHF  

 PROGRAMS   *        TOTAL    HF-SCF       INT   CCSD(T)    HF-SCF       INT
 CPU TIMES  *       604.44     13.20      0.24    559.22     14.54     17.01
 REAL TIME  *       626.89 SEC
 DISK USED  *       570.36 MB (local),        7.87 GB (total)
 SF USED    *       504.31 MB
 GA USED    *         0.00 MB       (max)       0.00 MB       (current)
 **********************************************************************************************************************************

 Basis set:  JKFIT                   
 Basis size:   740
 Attributes:
 Sphericals:   T
 Basis set:  MP2FIT                  
 Basis size:   816
 Attributes:
 Sphericals:   T
 Basis set:  RI                      
 Basis size:   556
 Attributes:
 Sphericals:   T
 Basis set:  TDDFT                   
 Basis size:   816
 Attributes:
 Sphericals:   T

 PROGRAM * CCSD (Closed-shell coupled cluster)     Authors: C. Hampel, H.-J. Werner, 1991, M. Deegan, P.J. Knowles, 1992


 Convergence thresholds:  THRVAR = 1.00D-08  THRDEN = 1.00D-10

 CCSD(T)     terms to be evaluated (factor= 1.000)


 Number of core orbitals:           1 (   1 )
 Number of closed-shell orbitals:   4 (   4 )
 Number of external orbitals:     225 ( 225 )

 Molecular orbitals read from record     2101.2  Type=RHF/CANONICAL (state 1.1)

 Number of N-1 electron functions:               4
 Number of N-2 electron functions:              10
 Number of singly external CSFs:               900
 Number of doubly external CSFs:            405450
 Total number of CSFs:                      406351

 Length of J-op  integral file:               0.00 MB
 Length of K-op  integral file:               3.65 MB
 Length of 3-ext integral record:             0.00 MB

 Memory could be reduced to 75.63 Mwords without degradation in triples

 Integral transformation finished. Total CPU:  14.15 sec, npass=  1  Memory used:  32.52 MW

 Reference energy:                    -76.05838359

 MP2 singlet pair energy:              -0.17181524
 MP2 triplet pair energy:              -0.09827417
 MP2 correlation energy:               -0.27008941
 MP2 total energy:                    -76.32847300

 SCS-MP2 correlation energy:           -0.26732666   (PS=  1.200000  PT=  0.333333)
 SCS-MP2 total energy:                -76.32571025

 ITER.      SQ.NORM     CORR.ENERGY   TOTAL ENERGY   ENERGY CHANGE        DEN1      VAR(S)    VAR(P)  DIIS     TIME  TIME/IT
   1      1.06420407    -0.27422111   -76.33260471    -0.00413170     0.00163278  0.93D-03  0.10D-02  1  1    18.18     4.08
   2      1.06806987    -0.27452963   -76.33291322    -0.00030851    -0.00494083  0.12D-04  0.13D-03  2  2    22.23     4.16
   3      1.06953140    -0.27461447   -76.33299806    -0.00008484    -0.00094248  0.11D-04  0.59D-05  3  3    26.29     4.19
   4      1.07000825    -0.27460809   -76.33299168     0.00000639    -0.00021953  0.51D-06  0.73D-06  4  4    30.40     4.21
   5      1.07011504    -0.27460512   -76.33298872     0.00000296    -0.00003359  0.17D-06  0.48D-07  5  5    34.46     4.22
   6      1.07015197    -0.27460173   -76.33298532     0.00000340    -0.00000755  0.17D-07  0.40D-08  6  6    38.56     4.23
   7      1.07015942    -0.27460139   -76.33298498     0.00000034    -0.00000071  0.15D-08  0.84D-09  6  1    42.60     4.23
   8      1.07016131    -0.27460129   -76.33298489     0.00000009    -0.00000014  0.25D-09  0.97D-10  6  2    46.70     4.24
   9      1.07016188    -0.27460126   -76.33298485     0.00000004     0.00000020  0.20D-10  0.87D-11  6  3    50.78     4.24
  10      1.07016207    -0.27460124   -76.33298483     0.00000002    -0.00000002  0.28D-11  0.14D-11  6  4    54.84     4.25
  11      1.07016206    -0.27460124   -76.33298483    -0.00000001     0.00000002  0.62D-12  0.17D-12  6  5    58.94     4.25
  12      1.07016206    -0.27460124   -76.33298483     0.00000000     0.00000000  0.10D-12  0.33D-13  6  6    63.10     4.25
  13      1.07016205    -0.27460124   -76.33298484    -0.00000000     0.00000000  0.16D-13  0.60D-14  6  1    67.21     4.25
  14      1.07016205    -0.27460124   -76.33298484    -0.00000000     0.00000000  0.15D-14  0.73D-15  6  2    71.25     4.25
  15      1.07016204    -0.27460124   -76.33298484    -0.00000000     0.00000000  0.17D-15  0.13D-15  6  3    75.22     4.25
  16      1.07016204    -0.27460124   -76.33298484    -0.00000000     0.00000000  0.34D-16  0.18D-16  6  4    79.30     4.25

 Norm of t1 vector:      0.04123002      S-energy:    -0.00000000      T1 diagnostic:  0.01030750
                                                                       D1 diagnostic:  0.02190299


 Total CPU time for triples:     40.79 sec


 RESULTS
 =======

  Reference energy                    -76.058383592700
  CCSD singlet pair energy             -0.187649422117
  CCSD triplet pair energy             -0.086951821246
  CCSD correlation energy              -0.274601243419

  Triples (T) contribution             -0.008846197900
  Total correlation energy             -0.283447441319

  CCSD total energy                   -76.332984836119
  CCSD[T] energy                      -76.342168420756
  CCSD-T energy                       -76.341649346001
 !CCSD(T) total energy                -76.341831034019

 Timing summary (sec):

 STEP                 CPU(USER)    SYS     CPU(TOT)    WALL
 Transformation         14.21      0.75     14.96     14.98
 CCSD iterations        65.12      2.86     67.98     68.05
 Triples                40.79      0.37     41.16     41.30

 Program statistics:

 Available memory in ccsd:              1999999921
 Min. memory needed in ccsd:               1865022
 Max. memory used in ccsd:                 2159652
 Max. memory used in cckext:               1451153 (16 integral passes)



 **********************************************************************************************************************************
 DATASETS  * FILE   NREC   LENGTH (MB)   RECORD NAMES
              1      19      222.33       500      610      700      900      950      970     1000      129      960     1100   
                                          VAR    BASINP    GEOM    SYMINP    ZMAT    AOBASIS   BASIS     P2S    ABASIS      S 
                                         1400     1410     1200     1210     1080     1600     1650     1700     1380   
                                           T        V       H0       H01     AOSYM     SMH    MOLCAS    OPER     JKOP   

              2       6        9.09       700     1000      520     2100      200     2101   
                                         GEOM     BASIS   MCVARS     RHF    OPTIONS    RHF  

 PROGRAMS   *        TOTAL   CCSD(T)    HF-SCF       INT   CCSD(T)    HF-SCF       INT
 CPU TIMES  *       724.78    120.33     13.20      0.24    559.22     14.54     17.01
 REAL TIME  *       751.95 SEC
 DISK USED  *       570.36 MB (local),        7.87 GB (total)
 SF USED    *       504.31 MB
 GA USED    *         0.00 MB       (max)       0.00 MB       (current)
 **********************************************************************************************************************************

 Running procedure: SET_MONOMER2

 Dummy atoms: O11  H21  H22


 Recomputing one-electron integrals since nuclear charges changed


 PROGRAM * SEWARD (Integral evaluation for generally contracted gaussian basis sets)     Author: Roland Lindh, 1990

 Geometry written to block  1 of record 700


 Point group  C1  



 ATOMIC COORDINATES

 NR  ATOM    CHARGE       X              Y              Z

   1  O11     0.00   -5.521590763    4.689166405    9.271374312
   2  H21     0.00   -3.831230745    4.709197502    8.531168589
   3  H22     0.00   -6.460595675    6.029171200    8.401722350
   4  C1      6.00   -6.193010455    2.801518980    2.403542658
   5  H41     1.00   -4.656285171    1.699997622    3.119937832
   6  H42     1.00   -5.973046335    4.726205038    2.982932688
   7  H43     1.00   -7.940251230    2.077186956    3.118237078
   8  H44     1.00   -6.176569838    2.685300823    0.384937212

 Bond lengths in Bohr (Angstrom)

 1-2  1.845432944  1-3  1.853007720  4-5  2.021904040  4-6  2.022002335  4-7  2.021953343
     ( 0.976561058)     ( 0.980569457)     ( 1.069945541)     ( 1.069997556)     ( 1.069971630)

 4-8  2.022015060
     ( 1.070004290)

 Bond angles

  2-1-3  105.54946434   5-4-6  109.53398059   5-4-7  109.65604535   5-4-8  108.43490854

  6-4-7  109.49436728   6-4-8  109.86987750   7-4-8  109.83468330

 NUCLEAR CHARGE:                   10
 NUMBER OF PRIMITIVE AOS:         296
 NUMBER OF SYMMETRY AOS:          266
 NUMBER OF CONTRACTIONS:          230   (  230A   )
 NUMBER OF CORE ORBITALS:           1   (    1A   )
 NUMBER OF VALENCE ORBITALS:        8   (    8A   )

 MOLECULE CHANGED: INITIALIZING OCCUPATION AND DUMP RECORDS


 NUCLEAR REPULSION ENERGY   13.68681606

 Basis set:  JKFIT                   
 Basis size:   740
 Attributes:
 Sphericals:   T
 Basis set:  MP2FIT                  
 Basis size:   816
 Attributes:
 Sphericals:   T
 Basis set:  RI                      
 Basis size:   556
 Attributes:
 Sphericals:   T
 Basis set:  TDDFT                   
 Basis size:   816
 Attributes:
 Sphericals:   T

 Eigenvalues of metric

         1 0.599E-04 0.687E-04 0.996E-04 0.103E-03 0.333E-03 0.393E-03 0.626E-03 0.729E-03


 Contracted 2-electron integrals neglected if value below      1.0D-14

 OPERATOR DM      FOR CENTER  0  COORDINATES:    0.000000    0.000000    0.000000


 **********************************************************************************************************************************
 DATASETS  * FILE   NREC   LENGTH (MB)   RECORD NAMES
              1      18       32.04       500      610      700      900      950      970     1000      129      960     1100   
                                          VAR    BASINP    GEOM    SYMINP    ZMAT    AOBASIS   BASIS     P2S    ABASIS      S 
                                         1400     1410     1200     1210     1080     1600     1650     1700   
                                           T        V       H0       H01     AOSYM     SMH    MOLCAS    OPER   

              2       6        9.09       700     1000      520     2100      200     2101   
                                         GEOM     BASIS   MCVARS     RHF    OPTIONS    RHF  

 PROGRAMS   *        TOTAL       INT   CCSD(T)    HF-SCF       INT   CCSD(T)    HF-SCF       INT
 CPU TIMES  *       725.01      0.21    120.33     13.20      0.24    559.22     14.54     17.01
 REAL TIME  *       752.72 SEC
 DISK USED  *       570.36 MB (local),        7.87 GB (total)
 SF USED    *       504.31 MB
 GA USED    *         0.00 MB       (max)       0.00 MB       (current)
 **********************************************************************************************************************************


 PROGRAM * RHF-SCF (CLOSED SHELL)       Authors: W. Meyer, H.-J. Werner


 NUMBER OF ELECTRONS:       5+    5-    SPACE SYMMETRY=1    SPIN SYMMETRY: Singlet 
 CONVERGENCE THRESHOLDS:    1.00E-08 (Density)    1.00E-11 (Energy)
 MAX. NUMBER OF ITERATIONS:       60
 INTERPOLATION TYPE:            DIIS
 INTERPOLATION STEPS:              2 (START)      1 (STEP)
 LEVEL SHIFTS:                  0.00 (CLOSED)  0.00 (OPEN) 



 Orbital guess generated from atomic densities. Full valence occupancy:    9

 Molecular orbital dump at record        2102.2

 Initial occupancy:   5

 ITERATION    DDIFF          GRAD             ENERGY        2-EL.EN.            DIPOLE MOMENTS         DIIS   ORB.
    1      0.000D+00      0.000D+00       -40.19358873     53.494051    0.00410   -0.00277   -0.00133    0    start
    2      0.000D+00      0.353D-02       -40.21070669     52.213673    0.00128   -0.00090   -0.00041    1    diag
    3      0.324D-02      0.137D-02       -40.21295529     52.664851    0.00181   -0.00125   -0.00058    2    diag
    4      0.914D-03      0.342D-03       -40.21327079     52.609823    0.00161   -0.00112   -0.00051    3    diag
    5      0.303D-03      0.444D-04       -40.21327619     52.612161    0.00158   -0.00110   -0.00050    4    diag
    6      0.771D-04      0.345D-05       -40.21327623     52.612259    0.00158   -0.00110   -0.00050    5    diag
    7      0.651D-05      0.264D-06       -40.21327623     52.612225    0.00158   -0.00110   -0.00050    6    diag
    8      0.972D-06      0.221D-07       -40.21327623     52.612225    0.00158   -0.00110   -0.00050    7    diag
    9      0.190D-06      0.284D-08       -40.21327623     52.612225    0.00158   -0.00110   -0.00050    8    diag
   10      0.115D-07      0.795D-09       -40.21327623     52.612225    0.00158   -0.00110   -0.00050    9    orth
   11      0.112D-08      0.106D-09       -40.21327623     52.612225    0.00158   -0.00110   -0.00050    0    orth

 Final occupancy:   5

 !RHF STATE  1.1 Energy               -40.213276228148
 Nuclear energy                        13.68681606
 One-electron energy                  -80.20620491
 Two-electron energy                   26.30611263
 Virial quotient                       -0.99870084
 !RHF STATE  1.1 Dipole moment          0.00158172    -0.00110105    -0.00049772
 Dipole moment /Debye                   0.00402007    -0.00279840    -0.00126499

 Orbital energies:

         1.1          2.1          3.1          4.1          5.1          6.1          7.1
    -11.197213    -0.950741    -0.551695    -0.549759    -0.547582     0.027774     0.041013


 HOMO      5.1    -0.547582 =     -14.9005eV
 LUMO      6.1     0.027774 =       0.7558eV
 LUMO-HOMO         0.575356 =      15.6562eV


 **********************************************************************************************************************************
 DATASETS  * FILE   NREC   LENGTH (MB)   RECORD NAMES
              1      18       32.04       500      610      700      900      950      970     1000      129      960     1100   
                                          VAR    BASINP    GEOM    SYMINP    ZMAT    AOBASIS   BASIS     P2S    ABASIS      S 
                                         1400     1410     1200     1210     1080     1600     1650     1700   
                                           T        V       H0       H01     AOSYM     SMH    MOLCAS    OPER   

              2       7       13.71       700     1000      520     2100      200     2101     2102   
                                         GEOM     BASIS   MCVARS     RHF    OPTIONS    RHF      RHF  

 PROGRAMS   *        TOTAL    HF-SCF       INT   CCSD(T)    HF-SCF       INT   CCSD(T)    HF-SCF       INT
 CPU TIMES  *       737.31     12.29      0.21    120.33     13.20      0.24    559.22     14.54     17.01
 REAL TIME  *       766.47 SEC
 DISK USED  *       570.36 MB (local),        7.87 GB (total)
 SF USED    *       504.31 MB
 GA USED    *         0.00 MB       (max)       0.00 MB       (current)
 **********************************************************************************************************************************

 Basis set:  JKFIT                   
 Basis size:   740
 Attributes:
 Sphericals:   T
 Basis set:  MP2FIT                  
 Basis size:   816
 Attributes:
 Sphericals:   T
 Basis set:  RI                      
 Basis size:   556
 Attributes:
 Sphericals:   T
 Basis set:  TDDFT                   
 Basis size:   816
 Attributes:
 Sphericals:   T

 PROGRAM * CCSD (Closed-shell coupled cluster)     Authors: C. Hampel, H.-J. Werner, 1991, M. Deegan, P.J. Knowles, 1992


 Convergence thresholds:  THRVAR = 1.00D-08  THRDEN = 1.00D-10

 CCSD(T)     terms to be evaluated (factor= 1.000)


 Number of core orbitals:           1 (   1 )
 Number of closed-shell orbitals:   4 (   4 )
 Number of external orbitals:     225 ( 225 )

 Molecular orbitals read from record     2102.2  Type=RHF/CANONICAL (state 1.1)

 Number of N-1 electron functions:               4
 Number of N-2 electron functions:              10
 Number of singly external CSFs:               900
 Number of doubly external CSFs:            405450
 Total number of CSFs:                      406351

 Length of J-op  integral file:               0.00 MB
 Length of K-op  integral file:               3.65 MB
 Length of 3-ext integral record:             0.00 MB

 Memory could be reduced to 75.63 Mwords without degradation in triples

 Integral transformation finished. Total CPU:  14.06 sec, npass=  1  Memory used:  32.52 MW

 Reference energy:                    -40.21327623

 MP2 singlet pair energy:              -0.14545745
 MP2 triplet pair energy:              -0.05506511
 MP2 correlation energy:               -0.20052255
 MP2 total energy:                    -40.41379878

 SCS-MP2 correlation energy:           -0.20881167   (PS=  1.200000  PT=  0.333333)
 SCS-MP2 total energy:                -40.42208790

 ITER.      SQ.NORM     CORR.ENERGY   TOTAL ENERGY   ENERGY CHANGE        DEN1      VAR(S)    VAR(P)  DIIS     TIME  TIME/IT
   1      1.07100996    -0.21907010   -40.43234633    -0.01854755    -0.01309390  0.46D-03  0.10D-02  1  1    18.43     4.40
   2      1.07650294    -0.22017132   -40.43344755    -0.00110122    -0.00567800  0.13D-04  0.71D-04  2  2    22.52     4.36
   3      1.07773153    -0.22022460   -40.43350083    -0.00005328    -0.00078840  0.16D-05  0.48D-05  3  3    26.61     4.33
   4      1.07803556    -0.22023361   -40.43350984    -0.00000901    -0.00012816  0.92D-07  0.22D-06  4  4    30.72     4.32
   5      1.07808175    -0.22023254   -40.43350877     0.00000106    -0.00001886  0.58D-08  0.16D-07  5  5    34.81     4.32
   6      1.07808665    -0.22023175   -40.43350798     0.00000079    -0.00000158  0.47D-09  0.11D-08  6  6    38.99     4.32
   7      1.07808735    -0.22023160   -40.43350783     0.00000015    -0.00000033  0.33D-10  0.95D-10  6  1    43.20     4.32
   8      1.07808740    -0.22023163   -40.43350786    -0.00000003     0.00000011  0.28D-11  0.57D-11  6  2    47.30     4.32
   9      1.07808740    -0.22023164   -40.43350786    -0.00000000     0.00000002  0.32D-12  0.49D-12  6  3    51.37     4.32
  10      1.07808740    -0.22023163   -40.43350786     0.00000000     0.00000001  0.28D-13  0.50D-13  6  4    55.54     4.32
  11      1.07808739    -0.22023163   -40.43350786     0.00000000     0.00000001  0.22D-14  0.50D-14  6  5    59.67     4.32
  12      1.07808739    -0.22023163   -40.43350786     0.00000000     0.00000000  0.52D-16  0.59D-15  6  6    63.79     4.32

 Norm of t1 vector:      0.02947080      S-energy:     0.00000000      T1 diagnostic:  0.00736770
                                                                       D1 diagnostic:  0.01186474

 Total CPU time for triples:     40.94 sec


 RESULTS
 =======

  Reference energy                    -40.213276228148
  CCSD singlet pair energy             -0.166737183817
  CCSD triplet pair energy             -0.053494450707
  CCSD correlation energy              -0.220231634464

  Triples (T) contribution             -0.006423087003
  Total correlation energy             -0.226654721466

  CCSD total energy                   -40.433507862612
  CCSD[T] energy                      -40.440113525544
  CCSD-T energy                       -40.439863041599
 !CCSD(T) total energy                -40.439930949614

 Timing summary (sec):

 STEP                 CPU(USER)    SYS     CPU(TOT)    WALL
 Transformation         14.13      0.70     14.83     14.88
 CCSD iterations        49.68      2.15     51.83     51.90
 Triples                40.94      0.36     41.30     41.34

 Program statistics:

 Available memory in ccsd:              1999999916
 Min. memory needed in ccsd:               1865022
 Max. memory used in ccsd:                 2159652
 Max. memory used in cckext:               1451153 (12 integral passes)



 **********************************************************************************************************************************
 DATASETS  * FILE   NREC   LENGTH (MB)   RECORD NAMES
              1      19      222.33       500      610      700      900      950      970     1000      129      960     1100   
                                          VAR    BASINP    GEOM    SYMINP    ZMAT    AOBASIS   BASIS     P2S    ABASIS      S 
                                         1400     1410     1200     1210     1080     1600     1650     1700     1380   
                                           T        V       H0       H01     AOSYM     SMH    MOLCAS    OPER     JKOP   

              2       7       13.71       700     1000      520     2100      200     2101     2102   
                                         GEOM     BASIS   MCVARS     RHF    OPTIONS    RHF      RHF  

 PROGRAMS   *        TOTAL   CCSD(T)    HF-SCF       INT   CCSD(T)    HF-SCF       INT   CCSD(T)    HF-SCF       INT
 CPU TIMES  *       842.29    104.96     12.29      0.21    120.33     13.20      0.24    559.22     14.54     17.01
 REAL TIME  *       875.33 SEC
 DISK USED  *       570.36 MB (local),        7.87 GB (total)
 SF USED    *       504.31 MB
 GA USED    *         0.00 MB       (max)       0.00 MB       (current)
 **********************************************************************************************************************************
 Molecular orbitals read from record     2102.2  Type=RHF/CANONICAL (state 1.1)
 Occupation numbers read from record     2102.2  Type=RHF/RHF (state 1.1)
 Orbital energies read from record       2102.2  Type=RHF/CANONICAL (state 1.1)
 Redundancy group numbers read from rec  2102.2  Type=RHF/RHF (state 1.1)

 CCSD(T)/aug-cc-pVTZ energy=    -40.439930949614

         CCSD(T)          HF-SCF         CCSD(T)          HF-SCF         CCSD(T)          HF-SCF
    -40.43993095    -40.21327623    -76.34183103    -76.05838359   -116.78215212   -116.27124741
 **********************************************************************************************************************************
 Molpro calculation terminated
