
 Primary working directories    : /scratch/klimes/383094/molpro.PMU11PJHgC
 Secondary working directories  : /scratch/klimes/383094/molpro.PMU11PJHgC
 Wavefunction directory         : /scratch/klimes/383094/
 Main file repository           : /scratch/klimes/383094/molpro.PMU11PJHgC/

 id        : karlovklimes

 Nodes                      nprocs
 nc-04.cc.karlov.mff.cuni.cz    4

 Using customized tuning parameters: mindgm=1; mindgv=20; mindgc=4; mindgr=1; noblas=0; minvec=7
 default implementation of scratch files=sf  


 Variables initialized (930), CPU time= 0.01 sec
                                                                                 !gdirect
 memory,2000,m
 gthresh,orbital=1d-10,energy=1d-10,grid=1d-8
 
 symmetry,nosym
 angstrom
 geometry={
 O12        -3.033300000000      5.280000000000      1.506600000000
 H23        -3.438200000000      5.030900000000      0.655500000000
 H24        -2.124100000000      4.895600000000      1.489400000000
 C1        -3.277200000000      1.482500000000      1.271900000000
 H41        -2.464000000000      0.899600000000      1.651000000000
 H42        -3.160800000000      2.501000000000      1.578500000000
 H43        -4.201800000000      1.099200000000      1.650100000000
 H44        -3.268500000000      1.421000000000      0.203700000000
 }
 
 nkerna=1
 nkernb=1
 
 gf=0
 sing=1
 thrdum=1d-4
 gridthr=1d-8
 
 basis={
 set,orbital
 default,avtz
 set,jkfit
 default,avqz/jkfit
 set,mp2fit
 default,avqz/mp2fit
 set,ri
 default,avqz/optri
 set,tddft
 default,avqz/mp2fit
 }
 
 proc set_monomer1
 dummy,4,5,6,7,8
 endproc
 
 proc set_monomer2
 dummy,1,2,3
 endproc
 
                                                                                 !1234 energy
 {hf,accu=1.d-16}
 ccsd(t)
 
 set_monomer1
 {hf,accu=1.d-16}
 ccsd(t)
 
 set_monomer2
 {hf,accu=1.d-16}
 ccsd(t)
 
 Commands  initialized (760), CPU time= 0.02 sec, 617 directives.
 Default parameters read. Elapsed time= 0.20 sec

 Checking input...
 Passed
1


                                         ***  PROGRAM SYSTEM MOLPRO  ***
                                       Copyright, TTI GmbH Stuttgart, 2015
                                    Version 2019.1 linked Jan 14 2019 13:09:19


 **********************************************************************************************************************************
 LABEL *                                                                                 
  64 bit mpp version                                                                     DATE: 11-Mar-20          TIME: 12:52:30  
 **********************************************************************************************************************************

 SHA1:             d688ac825633d238f2093ded1675ba87ccd55965
 **********************************************************************************************************************************

 THRESHOLDS:

 ZERO    =  1.00D-12  ONEINT  =  1.00D-12  TWOINT  =  1.00D-11  PREFAC  =  1.00D-14  XXXXXX  =  1.00D-09  EORDER  =  1.00D-04
 ENERGY  =  1.00D-10  ETEST   =  0.00D+00  EDENS   =  0.00D+00  THRDEDEF=  1.00D-06  GRADIENT=  1.00D-02  STEP    =  1.00D-03
 ORBITAL =  1.00D-10  CIVEC   =  1.00D-05  COEFF   =  1.00D-04  PRINTCI =  5.00D-02  PUNCHCI =  9.90D+01  OPTGRAD =  3.00D-04
 OPTENERG=  1.00D-06  OPTSTEP =  3.00D-04  THRGRAD =  1.00D-10  COMPRESS=  1.00D-11  VARMIN  =  1.00D-07  VARMAX  =  1.00D-03
 THRDOUB =  0.00D+00  THRDIV  =  1.00D-05  THRRED  =  1.00D-07  THRPSP  =  1.00D+00  THRDC   =  1.00D-10  THRCS   =  1.00D-10
 THRNRM  =  1.00D-08  THREQ   =  0.00D+00  THRDE   =  1.00D+00  THRREF  =  1.00D-05  SPARFAC =  1.00D+00  THRDLP  =  1.00D-07
 THRDIA  =  1.00D-10  THRDLS  =  1.00D-07  THRGPS  =  0.00D+00  THRKEX  =  0.00D+00  THRDIS  =  2.00D-01  THRVAR  =  1.00D-10
 THRLOC  =  1.00D-06  THRGAP  =  1.00D-06  THRLOCT = -1.00D+00  THRGAPT = -1.00D+00  THRORB  =  1.00D-06  THRMLTP =  0.00D+00
 THRCPQCI=  1.00D-10  KEXTA   =  0.00D+00  THRCOARS=  0.00D+00  SYMTOL  =  1.00D-06  GRADTOL =  1.00D-06  THROVL  =  1.00D-08
 THRORTH =  1.00D-08  GRID    =  1.00D-08  GRIDMAX =  1.00D-03  DTMAX   =  0.00D+00  THROCCDE=  1.00D-01  THROCCDE=  1.00D-01
 THRPRINT=  2.50D-01


 Variable memory set to 2000000000 words,  buffer space 

 ZSYMEL=NOSYM
 ZUNIT=ANG


Geometry recognized as XYZ

 SETTING NKERNA         =         1.00000000                                  
 SETTING NKERNB         =         1.00000000                                  
 SETTING GF             =     0.00000000D+00                                  
 SETTING SING           =         1.00000000                                  
 SETTING THRDUM         =     1.00000000D-04                                  
 SETTING GRIDTHR        =     1.00000000D-08                                  
 SETTING BASIS          =    AVTZ


 Recomputing integrals since basis changed


 Using spherical harmonics

 Library entry O      S aug-cc-pVTZ          selected for orbital group  1
 Library entry O      P aug-cc-pVTZ          selected for orbital group  1
 Library entry O      D aug-cc-pVTZ          selected for orbital group  1
 Library entry O      F aug-cc-pVTZ          selected for orbital group  1
 Library entry H      S aug-cc-pVTZ          selected for orbital group  2
 Library entry H      P aug-cc-pVTZ          selected for orbital group  2
 Library entry H      D aug-cc-pVTZ          selected for orbital group  2
 Library entry C      S aug-cc-pVTZ          selected for orbital group  3
 Library entry C      P aug-cc-pVTZ          selected for orbital group  3
 Library entry C      D aug-cc-pVTZ          selected for orbital group  3
 Library entry C      F aug-cc-pVTZ          selected for orbital group  3


 PROGRAM * SEWARD (Integral evaluation for generally contracted gaussian basis sets)     Author: Roland Lindh, 1990

 Geometry written to block  1 of record 700


 Point group  C1  



 ATOMIC COORDINATES

 NR  ATOM    CHARGE       X              Y              Z

   1  O12     8.00   -5.732106254    9.977753938    2.847061379
   2  H23     1.00   -6.497256361    9.507023160    1.238715475
   3  H24     1.00   -4.013967261    9.251343215    2.814558090
   4  C1      6.00   -6.193010455    2.801518980    2.403542658
   5  H41     1.00   -4.656285171    1.699997622    3.119937832
   6  H42     1.00   -5.973046335    4.726205038    2.982932688
   7  H43     1.00   -7.940251230    2.077186956    3.118237078
   8  H44     1.00   -6.176569838    2.685300823    0.384937212

 Bond lengths in Bohr (Angstrom)

 1-2  1.842231989  1-3  1.865671621  4-5  2.021904040  4-6  2.022002335  4-7  2.021953343
     ( 0.974867186)     ( 0.987270905)     ( 1.069945541)     ( 1.069997556)     ( 1.069971630)

 4-8  2.022015060
     ( 1.070004290)

 Bond angles

  2-1-3  105.53314040   5-4-6  109.53398059   5-4-7  109.65604535   5-4-8  108.43490854

  6-4-7  109.49436728   6-4-8  109.86987750   7-4-8  109.83468330

 NUCLEAR CHARGE:                   20
 NUMBER OF PRIMITIVE AOS:         296
 NUMBER OF SYMMETRY AOS:          266
 NUMBER OF CONTRACTIONS:          230   (  230A   )
 NUMBER OF CORE ORBITALS:           2   (    2A   )
 NUMBER OF VALENCE ORBITALS:       14   (   14A   )


 NUCLEAR REPULSION ENERGY   36.75387538


 Basis set:  JKFIT                   
 Basis size:   740
 Attributes:
 Sphericals:   T
 Basis set:  MP2FIT                  
 Basis size:   816
 Attributes:
 Sphericals:   T
 Basis set:  RI                      
 Basis size:   556
 Attributes:
 Sphericals:   T
 Basis set:  TDDFT                   
 Basis size:   816
 Attributes:
 Sphericals:   T

 **********************************************************************************************************************************


 Eigenvalues of metric

         1 0.460E-04 0.760E-04 0.100E-03 0.103E-03 0.331E-03 0.387E-03 0.511E-03 0.667E-03


 Contracted 2-electron integrals neglected if value below      1.0D-14
 AO integral compression algorithm  1   Integral accuracy      1.0D-14

     2175.009 MB (compressed) written to integral file ( 67.8%)

     Node minimum: 500.171 MB, node maximum: 571.736 MB


 NUMBER OF SORTED TWO-ELECTRON INTEGRALS:   88219044.     BUFFER LENGTH:  32768
 NUMBER OF SEGMENTS:   6  SEGMENT LENGTH:   15998348      RECORD LENGTH: 524288

 Memory used in sort:      16.56 MW

 SORT1 READ   400769927. AND WROTE    82172604. INTEGRALS IN    236 RECORDS. CPU TIME:     9.46 SEC, REAL TIME:    11.35 SEC
 SORT2 READ   328722426. AND WROTE   352862895. INTEGRALS IN   8460 RECORDS. CPU TIME:     2.11 SEC, REAL TIME:     3.48 SEC

 Node minimum:    88205762.  Node maximum:    88225686. integrals

 OPERATOR DM      FOR CENTER  0  COORDINATES:    0.000000    0.000000    0.000000


 **********************************************************************************************************************************
 DATASETS  * FILE   NREC   LENGTH (MB)   RECORD NAMES
              1      18       32.04       500      610      700      900      950      970     1000      129      960     1100   
                                          VAR    BASINP    GEOM    SYMINP    ZMAT    AOBASIS   BASIS     P2S    ABASIS      S 
                                         1400     1410     1200     1210     1080     1600     1650     1700   
                                           T        V       H0       H01     AOSYM     SMH    MOLCAS    OPER   

 PROGRAMS   *        TOTAL       INT
 CPU TIMES  *        16.67     16.44
 REAL TIME  *        23.82 SEC
 DISK USED  *        32.49 MB (local),        6.19 GB (total)
 GA USED    *         0.00 MB       (max)       0.00 MB       (current)
 **********************************************************************************************************************************


 PROGRAM * RHF-SCF (CLOSED SHELL)       Authors: W. Meyer, H.-J. Werner


 NUMBER OF ELECTRONS:      10+   10-    SPACE SYMMETRY=1    SPIN SYMMETRY: Singlet 
 CONVERGENCE THRESHOLDS:    1.00E-08 (Density)    1.00E-11 (Energy)
 MAX. NUMBER OF ITERATIONS:       60
 INTERPOLATION TYPE:            DIIS
 INTERPOLATION STEPS:              2 (START)      1 (STEP)
 LEVEL SHIFTS:                  0.00 (CLOSED)  0.00 (OPEN) 



 Orbital guess generated from atomic densities. Full valence occupancy:   16

 Molecular orbital dump at record        2100.2

 Initial occupancy:  10

 ITERATION    DDIFF          GRAD             ENERGY        2-EL.EN.            DIPOLE MOMENTS         DIIS   ORB.
    1      0.000D+00      0.000D+00      -116.21330098    158.834731    0.49587   -0.60676   -0.83969    0    start
    2      0.000D+00      0.520D-02      -116.25683497    154.091989    0.26099   -0.35576   -0.45977    1    diag
    3      0.548D-02      0.304D-02      -116.26999473    156.079788    0.32031   -0.41688   -0.55563    2    diag
    4      0.182D-02      0.456D-03      -116.27064762    155.967068    0.31554   -0.40950   -0.54783    3    diag
    5      0.406D-03      0.134D-03      -116.27071568    155.961804    0.31488   -0.40953   -0.54712    4    diag
    6      0.147D-03      0.330D-04      -116.27071968    155.967642    0.31445   -0.40928   -0.54642    5    diag
    7      0.407D-04      0.666D-05      -116.27071993    155.966061    0.31442   -0.40934   -0.54641    6    diag
    8      0.113D-04      0.173D-05      -116.27071995    155.966221    0.31437   -0.40935   -0.54635    7    diag
    9      0.265D-05      0.376D-06      -116.27071995    155.966192    0.31435   -0.40935   -0.54633    8    diag
   10      0.813D-06      0.471D-07      -116.27071995    155.966194    0.31435   -0.40935   -0.54633    9    orth
   11      0.672D-07      0.135D-07      -116.27071995    155.966195    0.31435   -0.40935   -0.54633    9    diag
   12      0.263D-07      0.375D-08      -116.27071995    155.966195    0.31435   -0.40935   -0.54633    9    diag
   13      0.526D-08      0.968D-09      -116.27071995    155.966195    0.31435   -0.40935   -0.54633    0    orth

 Final occupancy:  10

 !RHF STATE  1.1 Energy              -116.270719950922
 Nuclear energy                        36.75387538
 One-electron energy                 -231.00769292
 Two-electron energy                   77.98309760
 Virial quotient                       -1.00113281
 !RHF STATE  1.1 Dipole moment          0.31435271    -0.40935024    -0.54633285
 Dipole moment /Debye                   0.79895257    -1.04039639    -1.38854864

 Orbital energies:

         1.1          2.1          3.1          4.1          5.1          6.1          7.1          8.1          9.1         10.1
    -20.571178   -11.199614    -1.341842    -0.953882    -0.707574    -0.580120    -0.555151    -0.553333    -0.551023    -0.507031

        11.1         12.1
      0.025095     0.041602


 HOMO     10.1    -0.507031 =     -13.7970eV
 LUMO     11.1     0.025095 =       0.6829eV
 LUMO-HOMO         0.532127 =      14.4799eV


 **********************************************************************************************************************************
 DATASETS  * FILE   NREC   LENGTH (MB)   RECORD NAMES
              1      18       32.04       500      610      700      900      950      970     1000      129      960     1100   
                                          VAR    BASINP    GEOM    SYMINP    ZMAT    AOBASIS   BASIS     P2S    ABASIS      S 
                                         1400     1410     1200     1210     1080     1600     1650     1700   
                                           T        V       H0       H01     AOSYM     SMH    MOLCAS    OPER   

              2       4        3.96       700     1000      520     2100   
                                         GEOM     BASIS   MCVARS     RHF  

 PROGRAMS   *        TOTAL    HF-SCF       INT
 CPU TIMES  *        31.01     14.33     16.44
 REAL TIME  *        40.09 SEC
 DISK USED  *        39.90 MB (local),        6.22 GB (total)
 SF USED    *         0.21 MB
 GA USED    *         0.00 MB       (max)       0.00 MB       (current)
 **********************************************************************************************************************************

 Basis set:  JKFIT                   
 Basis size:   740
 Attributes:
 Sphericals:   T
 Basis set:  MP2FIT                  
 Basis size:   816
 Attributes:
 Sphericals:   T
 Basis set:  RI                      
 Basis size:   556
 Attributes:
 Sphericals:   T
 Basis set:  TDDFT                   
 Basis size:   816
 Attributes:
 Sphericals:   T

 PROGRAM * CCSD (Closed-shell coupled cluster)     Authors: C. Hampel, H.-J. Werner, 1991, M. Deegan, P.J. Knowles, 1992


 Convergence thresholds:  THRVAR = 1.00D-08  THRDEN = 1.00D-10

 CCSD(T)     terms to be evaluated (factor= 1.000)


 Number of core orbitals:           2 (   2 )
 Number of closed-shell orbitals:   8 (   8 )
 Number of external orbitals:     220 ( 220 )

 Molecular orbitals read from record     2100.2  Type=RHF/CANONICAL (state 1.1)

 Number of N-1 electron functions:               8
 Number of N-2 electron functions:              36
 Number of singly external CSFs:              1760
 Number of doubly external CSFs:           1549680
 Total number of CSFs:                     1551441

 Length of J-op  integral file:               0.00 MB
 Length of K-op  integral file:               3.65 MB
 Length of 3-ext integral record:             0.00 MB

 Memory could be reduced to 116.39 Mwords without degradation in triples

 Integral transformation finished. Total CPU:  29.08 sec, npass=  1  Memory used:  59.35 MW

 Reference energy:                   -116.27071995

 MP2 singlet pair energy:              -0.31767812
 MP2 triplet pair energy:              -0.15417612
 MP2 correlation energy:               -0.47185424
 MP2 total energy:                   -116.74257419

 SCS-MP2 correlation energy:           -0.47714555   (PS=  1.200000  PT=  0.333333)
 SCS-MP2 total energy:               -116.74786550

 ITER.      SQ.NORM     CORR.ENERGY   TOTAL ENERGY   ENERGY CHANGE        DEN1      VAR(S)    VAR(P)  DIIS     TIME  TIME/IT
   1      1.13569320    -0.49448434  -116.76520429    -0.02263010    -0.01136099  0.14D-02  0.20D-02  1  1    44.82    15.86
   2      1.14479505    -0.49589735  -116.76661730    -0.00141301    -0.01040298  0.23D-04  0.25D-03  2  2    60.73    16.08
   3      1.14781720    -0.49602833  -116.76674828    -0.00013098    -0.00197014  0.15D-04  0.12D-04  3  3    76.58    16.13
   4      1.14862995    -0.49602853  -116.76674848    -0.00000020    -0.00036669  0.61D-06  0.12D-05  4  4    92.46    16.17
   5      1.14879331    -0.49602589  -116.76674584     0.00000264    -0.00005172  0.22D-06  0.80D-07  5  5   108.60    16.25
   6      1.14884308    -0.49602119  -116.76674114     0.00000470    -0.00001253  0.20D-07  0.58D-08  6  6   124.44    16.26
   7      1.14885210    -0.49602051  -116.76674046     0.00000068    -0.00000106  0.18D-08  0.11D-08  6  2   140.37    16.27
   8      1.14885432    -0.49602035  -116.76674030     0.00000017    -0.00000019  0.38D-09  0.12D-09  6  1   156.20    16.27
   9      1.14885514    -0.49602030  -116.76674025     0.00000005     0.00000017  0.30D-10  0.15D-10  6  3   172.06    16.28
  10      1.14885525    -0.49602029  -116.76674025     0.00000001     0.00000004  0.60D-11  0.34D-11  6  1   188.10    16.30
  11      1.14885533    -0.49602029  -116.76674024     0.00000000     0.00000002  0.67D-12  0.26D-12  6  4   204.01    16.30
  12      1.14885531    -0.49602029  -116.76674024    -0.00000000     0.00000001  0.13D-12  0.40D-13  6  5   220.03    16.31
  13      1.14885530    -0.49602029  -116.76674025    -0.00000000     0.00000000  0.19D-13  0.61D-14  6  6   235.86    16.31
  14      1.14885529    -0.49602029  -116.76674025    -0.00000000     0.00000000  0.26D-14  0.10D-14  6  2   251.83    16.31
  15      1.14885529    -0.49602029  -116.76674025    -0.00000000     0.00000000  0.34D-15  0.14D-15  6  3   267.81    16.32
  16      1.14885529    -0.49602029  -116.76674025    -0.00000000     0.00000000  0.60D-16  0.29D-16  6  4   283.58    16.32
  17      1.14885529    -0.49602029  -116.76674025    -0.00000000     0.00000000  0.10D-16  0.35D-17  6  1   299.57    16.32

 Norm of t1 vector:      0.05169829      S-energy:     0.00000000      T1 diagnostic:  0.00913905
                                                                       D1 diagnostic:  0.02271771


 Total CPU time for triples:    251.69 sec


 RESULTS
 =======

  Reference energy                   -116.270719950920
  CCSD singlet pair energy             -0.354706344846
  CCSD triplet pair energy             -0.141313950145
  CCSD correlation energy              -0.496020294937

  Triples (T) contribution             -0.015484636215
  Total correlation energy             -0.511504931151

  CCSD total energy                  -116.766740245857
  CCSD[T] energy                     -116.782754434498
  CCSD-T energy                      -116.781969717042
 !CCSD(T) total energy               -116.782224882072

 Timing summary (sec):

 STEP                 CPU(USER)    SYS     CPU(TOT)    WALL
 Transformation         29.29      1.55     30.84     30.95
 CCSD iterations       270.31      6.80    277.11    277.48
 Triples               251.69      1.54    253.23    253.56

 Program statistics:

 Available memory in ccsd:              1999999734
 Min. memory needed in ccsd:               4617529
 Max. memory used in ccsd:                 5944569
 Max. memory used in cckext:               4248553 (17 integral passes)



 **********************************************************************************************************************************
 DATASETS  * FILE   NREC   LENGTH (MB)   RECORD NAMES
              1      19      398.13       500      610      700      900      950      970     1000      129      960     1100   
                                          VAR    BASINP    GEOM    SYMINP    ZMAT    AOBASIS   BASIS     P2S    ABASIS      S 
                                         1400     1410     1200     1210     1080     1600     1650     1700     1380   
                                           T        V       H0       H01     AOSYM     SMH    MOLCAS    OPER     JKOP   

              2       4        3.96       700     1000      520     2100   
                                         GEOM     BASIS   MCVARS     RHF  

 PROGRAMS   *        TOTAL   CCSD(T)    HF-SCF       INT
 CPU TIMES  *       582.54    551.52     14.33     16.44
 REAL TIME  *       602.87 SEC
 DISK USED  *       570.36 MB (local),        7.84 GB (total)
 SF USED    *       504.31 MB
 GA USED    *         0.00 MB       (max)       0.00 MB       (current)
 **********************************************************************************************************************************

 Running procedure: SET_MONOMER1

 Dummy atoms: C1  H41  H42  H43  H44


 Recomputing one-electron integrals since nuclear charges changed


 PROGRAM * SEWARD (Integral evaluation for generally contracted gaussian basis sets)     Author: Roland Lindh, 1990

 Geometry written to block  1 of record 700


 Point group  C1  



 ATOMIC COORDINATES

 NR  ATOM    CHARGE       X              Y              Z

   1  O12     8.00   -5.732106254    9.977753938    2.847061379
   2  H23     1.00   -6.497256361    9.507023160    1.238715475
   3  H24     1.00   -4.013967261    9.251343215    2.814558090
   4  C1      0.00   -6.193010455    2.801518980    2.403542658
   5  H41     0.00   -4.656285171    1.699997622    3.119937832
   6  H42     0.00   -5.973046335    4.726205038    2.982932688
   7  H43     0.00   -7.940251230    2.077186956    3.118237078
   8  H44     0.00   -6.176569838    2.685300823    0.384937212

 Bond lengths in Bohr (Angstrom)

 1-2  1.842231989  1-3  1.865671621  4-5  2.021904040  4-6  2.022002335  4-7  2.021953343
     ( 0.974867186)     ( 0.987270905)     ( 1.069945541)     ( 1.069997556)     ( 1.069971630)

 4-8  2.022015060
     ( 1.070004290)

 Bond angles

  2-1-3  105.53314040   5-4-6  109.53398059   5-4-7  109.65604535   5-4-8  108.43490854

  6-4-7  109.49436728   6-4-8  109.86987750   7-4-8  109.83468330

 NUCLEAR CHARGE:                   10
 NUMBER OF PRIMITIVE AOS:         296
 NUMBER OF SYMMETRY AOS:          266
 NUMBER OF CONTRACTIONS:          230   (  230A   )
 NUMBER OF CORE ORBITALS:           1   (    1A   )
 NUMBER OF VALENCE ORBITALS:        6   (    6A   )

 MOLECULE CHANGED: INITIALIZING OCCUPATION AND DUMP RECORDS


 NUCLEAR REPULSION ENERGY    8.96929098

 Basis set:  JKFIT                   
 Basis size:   740
 Attributes:
 Sphericals:   T
 Basis set:  MP2FIT                  
 Basis size:   816
 Attributes:
 Sphericals:   T
 Basis set:  RI                      
 Basis size:   556
 Attributes:
 Sphericals:   T
 Basis set:  TDDFT                   
 Basis size:   816
 Attributes:
 Sphericals:   T

 Eigenvalues of metric

         1 0.460E-04 0.760E-04 0.100E-03 0.103E-03 0.331E-03 0.387E-03 0.511E-03 0.667E-03


 Contracted 2-electron integrals neglected if value below      1.0D-14

 OPERATOR DM      FOR CENTER  0  COORDINATES:    0.000000    0.000000    0.000000


 **********************************************************************************************************************************
 DATASETS  * FILE   NREC   LENGTH (MB)   RECORD NAMES
              1      18       32.04       500      610      700      900      950      970     1000      129      960     1100   
                                          VAR    BASINP    GEOM    SYMINP    ZMAT    AOBASIS   BASIS     P2S    ABASIS      S 
                                         1400     1410     1200     1210     1080     1600     1650     1700   
                                           T        V       H0       H01     AOSYM     SMH    MOLCAS    OPER   

              2       5        5.05       700     1000      520     2100      200   
                                         GEOM     BASIS   MCVARS     RHF    OPTIONS    

 PROGRAMS   *        TOTAL       INT   CCSD(T)    HF-SCF       INT
 CPU TIMES  *       582.79      0.25    551.52     14.33     16.44
 REAL TIME  *       603.68 SEC
 DISK USED  *       570.36 MB (local),        7.84 GB (total)
 SF USED    *       504.31 MB
 GA USED    *         0.00 MB       (max)       0.00 MB       (current)
 **********************************************************************************************************************************


 PROGRAM * RHF-SCF (CLOSED SHELL)       Authors: W. Meyer, H.-J. Werner


 NUMBER OF ELECTRONS:       5+    5-    SPACE SYMMETRY=1    SPIN SYMMETRY: Singlet 
 CONVERGENCE THRESHOLDS:    1.00E-08 (Density)    1.00E-11 (Energy)
 MAX. NUMBER OF ITERATIONS:       60
 INTERPOLATION TYPE:            DIIS
 INTERPOLATION STEPS:              2 (START)      1 (STEP)
 LEVEL SHIFTS:                  0.00 (CLOSED)  0.00 (OPEN) 



 Orbital guess generated from atomic densities. Full valence occupancy:    7

 Molecular orbital dump at record        2101.2

 Initial occupancy:   5

 ITERATION    DDIFF          GRAD             ENERGY        2-EL.EN.            DIPOLE MOMENTS         DIIS   ORB.
    1      0.000D+00      0.000D+00       -76.01970486     77.339336    0.49241   -0.61458   -0.83951    0    start
    2      0.000D+00      0.640D-02       -76.04631169     73.699366    0.28262   -0.35643   -0.48933    1    diag
    3      0.445D-02      0.409D-02       -76.05775698     75.310584    0.33391   -0.42033   -0.57653    2    diag
    4      0.162D-02      0.377D-03       -76.05794968     75.221107    0.33123   -0.41773   -0.57346    3    diag
    5      0.205D-03      0.105D-03       -76.05797013     75.235316    0.33019   -0.41673   -0.57230    4    diag
    6      0.649D-04      0.207D-04       -76.05797142     75.234412    0.32995   -0.41653   -0.57209    5    diag
    7      0.168D-04      0.410D-05       -76.05797148     75.234541    0.32987   -0.41645   -0.57201    6    diag
    8      0.441D-05      0.755D-06       -76.05797148     75.234526    0.32985   -0.41643   -0.57198    7    diag
    9      0.751D-06      0.977D-07       -76.05797148     75.234517    0.32985   -0.41643   -0.57198    8    diag
   10      0.992D-07      0.244D-07       -76.05797148     75.234520    0.32985   -0.41643   -0.57197    9    orth
   11      0.237D-07      0.454D-08       -76.05797148     75.234520    0.32985   -0.41643   -0.57197    9    diag
   12      0.488D-08      0.763D-09       -76.05797148     75.234520    0.32985   -0.41643   -0.57197    0    orth

 Final occupancy:   5

 !RHF STATE  1.1 Energy               -76.057971481492
 Nuclear energy                         8.96929098
 One-electron energy                 -122.64452222
 Two-electron energy                   37.61725976
 Virial quotient                       -1.00252748
 !RHF STATE  1.1 Dipole moment          0.32984756    -0.41643078    -0.57197488
 Dipole moment /Debye                   0.83833396    -1.05839215    -1.45371990

 Orbital energies:

         1.1          2.1          3.1          4.1          5.1          6.1          7.1
    -20.570796    -1.340919    -0.706812    -0.578348    -0.508126     0.018646     0.039285


 HOMO      5.1    -0.508126 =     -13.8268eV
 LUMO      6.1     0.018646 =       0.5074eV
 LUMO-HOMO         0.526772 =      14.3342eV


 **********************************************************************************************************************************
 DATASETS  * FILE   NREC   LENGTH (MB)   RECORD NAMES
              1      18       32.04       500      610      700      900      950      970     1000      129      960     1100   
                                          VAR    BASINP    GEOM    SYMINP    ZMAT    AOBASIS   BASIS     P2S    ABASIS      S 
                                         1400     1410     1200     1210     1080     1600     1650     1700   
                                           T        V       H0       H01     AOSYM     SMH    MOLCAS    OPER   

              2       6        9.09       700     1000      520     2100      200     2101   
                                         GEOM     BASIS   MCVARS     RHF    OPTIONS    RHF  

 PROGRAMS   *        TOTAL    HF-SCF       INT   CCSD(T)    HF-SCF       INT
 CPU TIMES  *       596.29     13.50      0.25    551.52     14.33     16.44
 REAL TIME  *       618.67 SEC
 DISK USED  *       570.36 MB (local),        7.84 GB (total)
 SF USED    *       504.31 MB
 GA USED    *         0.00 MB       (max)       0.00 MB       (current)
 **********************************************************************************************************************************

 Basis set:  JKFIT                   
 Basis size:   740
 Attributes:
 Sphericals:   T
 Basis set:  MP2FIT                  
 Basis size:   816
 Attributes:
 Sphericals:   T
 Basis set:  RI                      
 Basis size:   556
 Attributes:
 Sphericals:   T
 Basis set:  TDDFT                   
 Basis size:   816
 Attributes:
 Sphericals:   T

 PROGRAM * CCSD (Closed-shell coupled cluster)     Authors: C. Hampel, H.-J. Werner, 1991, M. Deegan, P.J. Knowles, 1992


 Convergence thresholds:  THRVAR = 1.00D-08  THRDEN = 1.00D-10

 CCSD(T)     terms to be evaluated (factor= 1.000)


 Number of core orbitals:           1 (   1 )
 Number of closed-shell orbitals:   4 (   4 )
 Number of external orbitals:     225 ( 225 )

 Molecular orbitals read from record     2101.2  Type=RHF/CANONICAL (state 1.1)

 Number of N-1 electron functions:               4
 Number of N-2 electron functions:              10
 Number of singly external CSFs:               900
 Number of doubly external CSFs:            405450
 Total number of CSFs:                      406351

 Length of J-op  integral file:               0.00 MB
 Length of K-op  integral file:               3.65 MB
 Length of 3-ext integral record:             0.00 MB

 Memory could be reduced to 75.63 Mwords without degradation in triples

 Integral transformation finished. Total CPU:  14.40 sec, npass=  1  Memory used:  32.52 MW

 Reference energy:                    -76.05797148

 MP2 singlet pair energy:              -0.17200391
 MP2 triplet pair energy:              -0.09834832
 MP2 correlation energy:               -0.27035222
 MP2 total energy:                    -76.32832371

 SCS-MP2 correlation energy:           -0.26759920   (PS=  1.200000  PT=  0.333333)
 SCS-MP2 total energy:                -76.32557068

 ITER.      SQ.NORM     CORR.ENERGY   TOTAL ENERGY   ENERGY CHANGE        DEN1      VAR(S)    VAR(P)  DIIS     TIME  TIME/IT
   1      1.06436758    -0.27445692   -76.33242840    -0.00410470     0.00169334  0.94D-03  0.10D-02  1  1    18.38     4.07
   2      1.06826121    -0.27476650   -76.33273798    -0.00030958    -0.00496385  0.12D-04  0.13D-03  2  2    22.40     4.18
   3      1.06974011    -0.27485267   -76.33282416    -0.00008617    -0.00095195  0.12D-04  0.60D-05  3  3    26.55     4.22
   4      1.07022211    -0.27484640   -76.33281788     0.00000628    -0.00022163  0.53D-06  0.75D-06  4  4    30.78     4.28
   5      1.07033200    -0.27484338   -76.33281486     0.00000302    -0.00003484  0.17D-06  0.50D-07  5  5    34.89     4.28
   6      1.07036956    -0.27483997   -76.33281145     0.00000341    -0.00000764  0.17D-07  0.40D-08  6  6    38.94     4.27
   7      1.07037724    -0.27483961   -76.33281109     0.00000036    -0.00000076  0.15D-08  0.83D-09  6  1    42.93     4.27
   8      1.07037914    -0.27483952   -76.33281100     0.00000009    -0.00000012  0.25D-09  0.97D-10  6  2    46.93     4.27
   9      1.07037972    -0.27483948   -76.33281096     0.00000004     0.00000020  0.21D-10  0.90D-11  6  3    51.05     4.27
  10      1.07037991    -0.27483946   -76.33281094     0.00000002    -0.00000002  0.29D-11  0.15D-11  6  4    55.17     4.27
  11      1.07037990    -0.27483947   -76.33281095    -0.00000001     0.00000002  0.65D-12  0.18D-12  6  5    59.25     4.27
  12      1.07037990    -0.27483947   -76.33281095     0.00000000     0.00000000  0.11D-12  0.34D-13  6  6    63.36     4.27
  13      1.07037989    -0.27483947   -76.33281095    -0.00000000     0.00000000  0.17D-13  0.61D-14  6  1    67.42     4.27
  14      1.07037989    -0.27483947   -76.33281095    -0.00000000     0.00000000  0.15D-14  0.74D-15  6  2    71.45     4.27
  15      1.07037989    -0.27483947   -76.33281095    -0.00000000     0.00000000  0.17D-15  0.13D-15  6  3    75.51     4.27
  16      1.07037989    -0.27483947   -76.33281095    -0.00000000     0.00000000  0.33D-16  0.19D-16  6  4    79.67     4.27

 Norm of t1 vector:      0.04140568      S-energy:    -0.00000000      T1 diagnostic:  0.01035142
                                                                       D1 diagnostic:  0.02200373


 Total CPU time for triples:     40.00 sec


 RESULTS
 =======

  Reference energy                    -76.057971481493
  CCSD singlet pair energy             -0.187865735884
  CCSD triplet pair energy             -0.086973733765
  CCSD correlation energy              -0.274839469711

  Triples (T) contribution             -0.008876327581
  Total correlation energy             -0.283715797293

  CCSD total energy                   -76.332810951204
  CCSD[T] energy                      -76.342027023322
  CCSD-T energy                       -76.341504479097
 !CCSD(T) total energy                -76.341687278785

 Timing summary (sec):

 STEP                 CPU(USER)    SYS     CPU(TOT)    WALL
 Transformation         14.47      0.58     15.05     15.06
 CCSD iterations        65.23      3.03     68.26     68.37
 Triples                40.00      0.28     40.28     40.34

 Program statistics:

 Available memory in ccsd:              1999999921
 Min. memory needed in ccsd:               1865022
 Max. memory used in ccsd:                 2159652
 Max. memory used in cckext:               1451153 (16 integral passes)



 **********************************************************************************************************************************
 DATASETS  * FILE   NREC   LENGTH (MB)   RECORD NAMES
              1      19      222.33       500      610      700      900      950      970     1000      129      960     1100   
                                          VAR    BASINP    GEOM    SYMINP    ZMAT    AOBASIS   BASIS     P2S    ABASIS      S 
                                         1400     1410     1200     1210     1080     1600     1650     1700     1380   
                                           T        V       H0       H01     AOSYM     SMH    MOLCAS    OPER     JKOP   

              2       6        9.09       700     1000      520     2100      200     2101   
                                         GEOM     BASIS   MCVARS     RHF    OPTIONS    RHF  

 PROGRAMS   *        TOTAL   CCSD(T)    HF-SCF       INT   CCSD(T)    HF-SCF       INT
 CPU TIMES  *       716.22    119.93     13.50      0.25    551.52     14.33     16.44
 REAL TIME  *       743.17 SEC
 DISK USED  *       570.36 MB (local),        7.84 GB (total)
 SF USED    *       504.31 MB
 GA USED    *         0.00 MB       (max)       0.00 MB       (current)
 **********************************************************************************************************************************

 Running procedure: SET_MONOMER2

 Dummy atoms: O12  H23  H24


 Recomputing one-electron integrals since nuclear charges changed


 PROGRAM * SEWARD (Integral evaluation for generally contracted gaussian basis sets)     Author: Roland Lindh, 1990

 Geometry written to block  1 of record 700


 Point group  C1  



 ATOMIC COORDINATES

 NR  ATOM    CHARGE       X              Y              Z

   1  O12     0.00   -5.732106254    9.977753938    2.847061379
   2  H23     0.00   -6.497256361    9.507023160    1.238715475
   3  H24     0.00   -4.013967261    9.251343215    2.814558090
   4  C1      6.00   -6.193010455    2.801518980    2.403542658
   5  H41     1.00   -4.656285171    1.699997622    3.119937832
   6  H42     1.00   -5.973046335    4.726205038    2.982932688
   7  H43     1.00   -7.940251230    2.077186956    3.118237078
   8  H44     1.00   -6.176569838    2.685300823    0.384937212

 Bond lengths in Bohr (Angstrom)

 1-2  1.842231989  1-3  1.865671621  4-5  2.021904040  4-6  2.022002335  4-7  2.021953343
     ( 0.974867186)     ( 0.987270905)     ( 1.069945541)     ( 1.069997556)     ( 1.069971630)

 4-8  2.022015060
     ( 1.070004290)

 Bond angles

  2-1-3  105.53314040   5-4-6  109.53398059   5-4-7  109.65604535   5-4-8  108.43490854

  6-4-7  109.49436728   6-4-8  109.86987750   7-4-8  109.83468330

 NUCLEAR CHARGE:                   10
 NUMBER OF PRIMITIVE AOS:         296
 NUMBER OF SYMMETRY AOS:          266
 NUMBER OF CONTRACTIONS:          230   (  230A   )
 NUMBER OF CORE ORBITALS:           1   (    1A   )
 NUMBER OF VALENCE ORBITALS:        8   (    8A   )

 MOLECULE CHANGED: INITIALIZING OCCUPATION AND DUMP RECORDS


 NUCLEAR REPULSION ENERGY   13.68681606

 Basis set:  JKFIT                   
 Basis size:   740
 Attributes:
 Sphericals:   T
 Basis set:  MP2FIT                  
 Basis size:   816
 Attributes:
 Sphericals:   T
 Basis set:  RI                      
 Basis size:   556
 Attributes:
 Sphericals:   T
 Basis set:  TDDFT                   
 Basis size:   816
 Attributes:
 Sphericals:   T

 Eigenvalues of metric

         1 0.460E-04 0.760E-04 0.100E-03 0.103E-03 0.331E-03 0.387E-03 0.511E-03 0.667E-03


 Contracted 2-electron integrals neglected if value below      1.0D-14

 OPERATOR DM      FOR CENTER  0  COORDINATES:    0.000000    0.000000    0.000000


 **********************************************************************************************************************************
 DATASETS  * FILE   NREC   LENGTH (MB)   RECORD NAMES
              1      18       32.04       500      610      700      900      950      970     1000      129      960     1100   
                                          VAR    BASINP    GEOM    SYMINP    ZMAT    AOBASIS   BASIS     P2S    ABASIS      S 
                                         1400     1410     1200     1210     1080     1600     1650     1700   
                                           T        V       H0       H01     AOSYM     SMH    MOLCAS    OPER   

              2       6        9.09       700     1000      520     2100      200     2101   
                                         GEOM     BASIS   MCVARS     RHF    OPTIONS    RHF  

 PROGRAMS   *        TOTAL       INT   CCSD(T)    HF-SCF       INT   CCSD(T)    HF-SCF       INT
 CPU TIMES  *       716.47      0.24    119.93     13.50      0.25    551.52     14.33     16.44
 REAL TIME  *       743.94 SEC
 DISK USED  *       570.36 MB (local),        7.84 GB (total)
 SF USED    *       504.31 MB
 GA USED    *         0.00 MB       (max)       0.00 MB       (current)
 **********************************************************************************************************************************


 PROGRAM * RHF-SCF (CLOSED SHELL)       Authors: W. Meyer, H.-J. Werner


 NUMBER OF ELECTRONS:       5+    5-    SPACE SYMMETRY=1    SPIN SYMMETRY: Singlet 
 CONVERGENCE THRESHOLDS:    1.00E-08 (Density)    1.00E-11 (Energy)
 MAX. NUMBER OF ITERATIONS:       60
 INTERPOLATION TYPE:            DIIS
 INTERPOLATION STEPS:              2 (START)      1 (STEP)
 LEVEL SHIFTS:                  0.00 (CLOSED)  0.00 (OPEN) 



 Orbital guess generated from atomic densities. Full valence occupancy:    9

 Molecular orbital dump at record        2102.2

 Initial occupancy:   5

 ITERATION    DDIFF          GRAD             ENERGY        2-EL.EN.            DIPOLE MOMENTS         DIIS   ORB.
    1      0.000D+00      0.000D+00       -40.19359074     53.494061    0.00411   -0.00274   -0.00131    0    start
    2      0.000D+00      0.353D-02       -40.21070873     52.213689    0.00129   -0.00084   -0.00038    1    diag
    3      0.325D-02      0.137D-02       -40.21295728     52.664867    0.00183   -0.00120   -0.00056    2    diag
    4      0.912D-03      0.342D-03       -40.21327275     52.609846    0.00163   -0.00107   -0.00049    3    diag
    5      0.304D-03      0.444D-04       -40.21327815     52.612182    0.00160   -0.00105   -0.00048    4    diag
    6      0.825D-04      0.345D-05       -40.21327819     52.612280    0.00160   -0.00105   -0.00048    5    diag
    7      0.690D-05      0.264D-06       -40.21327819     52.612246    0.00160   -0.00105   -0.00048    6    diag
    8      0.101D-05      0.222D-07       -40.21327819     52.612246    0.00160   -0.00105   -0.00048    7    diag
    9      0.187D-06      0.289D-08       -40.21327819     52.612246    0.00159   -0.00105   -0.00048    8    diag
   10      0.104D-07      0.807D-09       -40.21327819     52.612246    0.00159   -0.00105   -0.00048    9    orth
   11      0.125D-08      0.107D-09       -40.21327819     52.612246    0.00159   -0.00105   -0.00048    0    orth

 Final occupancy:   5

 !RHF STATE  1.1 Energy               -40.213278188037
 Nuclear energy                        13.68681606
 One-electron energy                  -80.20621740
 Two-electron energy                   26.30612315
 Virial quotient                       -0.99869734
 !RHF STATE  1.1 Dipole moment          0.00159497    -0.00105273    -0.00048122
 Dipole moment /Debye                   0.00405375    -0.00267559    -0.00122307

 Orbital energies:

         1.1          2.1          3.1          4.1          5.1          6.1          7.1
    -11.197209    -0.950742    -0.551695    -0.549760    -0.547579     0.027109     0.042864


 HOMO      5.1    -0.547579 =     -14.9004eV
 LUMO      6.1     0.027109 =       0.7377eV
 LUMO-HOMO         0.574689 =      15.6381eV


 **********************************************************************************************************************************
 DATASETS  * FILE   NREC   LENGTH (MB)   RECORD NAMES
              1      18       32.04       500      610      700      900      950      970     1000      129      960     1100   
                                          VAR    BASINP    GEOM    SYMINP    ZMAT    AOBASIS   BASIS     P2S    ABASIS      S 
                                         1400     1410     1200     1210     1080     1600     1650     1700   
                                           T        V       H0       H01     AOSYM     SMH    MOLCAS    OPER   

              2       7       13.71       700     1000      520     2100      200     2101     2102   
                                         GEOM     BASIS   MCVARS     RHF    OPTIONS    RHF      RHF  

 PROGRAMS   *        TOTAL    HF-SCF       INT   CCSD(T)    HF-SCF       INT   CCSD(T)    HF-SCF       INT
 CPU TIMES  *       728.71     12.24      0.24    119.93     13.50      0.25    551.52     14.33     16.44
 REAL TIME  *       757.78 SEC
 DISK USED  *       570.36 MB (local),        7.84 GB (total)
 SF USED    *       504.31 MB
 GA USED    *         0.00 MB       (max)       0.00 MB       (current)
 **********************************************************************************************************************************

 Basis set:  JKFIT                   
 Basis size:   740
 Attributes:
 Sphericals:   T
 Basis set:  MP2FIT                  
 Basis size:   816
 Attributes:
 Sphericals:   T
 Basis set:  RI                      
 Basis size:   556
 Attributes:
 Sphericals:   T
 Basis set:  TDDFT                   
 Basis size:   816
 Attributes:
 Sphericals:   T

 PROGRAM * CCSD (Closed-shell coupled cluster)     Authors: C. Hampel, H.-J. Werner, 1991, M. Deegan, P.J. Knowles, 1992


 Convergence thresholds:  THRVAR = 1.00D-08  THRDEN = 1.00D-10

 CCSD(T)     terms to be evaluated (factor= 1.000)


 Number of core orbitals:           1 (   1 )
 Number of closed-shell orbitals:   4 (   4 )
 Number of external orbitals:     225 ( 225 )

 Molecular orbitals read from record     2102.2  Type=RHF/CANONICAL (state 1.1)

 Number of N-1 electron functions:               4
 Number of N-2 electron functions:              10
 Number of singly external CSFs:               900
 Number of doubly external CSFs:            405450
 Total number of CSFs:                      406351

 Length of J-op  integral file:               0.00 MB
 Length of K-op  integral file:               3.65 MB
 Length of 3-ext integral record:             0.00 MB

 Memory could be reduced to 75.63 Mwords without degradation in triples

 Integral transformation finished. Total CPU:  14.40 sec, npass=  1  Memory used:  32.52 MW

 Reference energy:                    -40.21327819

 MP2 singlet pair energy:              -0.14547535
 MP2 triplet pair energy:              -0.05506737
 MP2 correlation energy:               -0.20054272
 MP2 total energy:                    -40.41382091

 SCS-MP2 correlation energy:           -0.20883456   (PS=  1.200000  PT=  0.333333)
 SCS-MP2 total energy:                -40.42211274

 ITER.      SQ.NORM     CORR.ENERGY   TOTAL ENERGY   ENERGY CHANGE        DEN1      VAR(S)    VAR(P)  DIIS     TIME  TIME/IT
   1      1.07101075    -0.21908541   -40.43236360    -0.01854270    -0.01308925  0.46D-03  0.10D-02  1  1    18.40     4.11
   2      1.07650324    -0.22018672   -40.43346491    -0.00110131    -0.00567721  0.13D-04  0.71D-04  2  2    22.48     4.21
   3      1.07773236    -0.22023997   -40.43351815    -0.00005324    -0.00078895  0.16D-05  0.48D-05  3  3    26.56     4.23
   4      1.07803655    -0.22024898   -40.43352717    -0.00000901    -0.00012824  0.92D-07  0.22D-06  4  4    30.66     4.25
   5      1.07808276    -0.22024792   -40.43352611     0.00000106    -0.00001886  0.58D-08  0.16D-07  5  5    34.70     4.26
   6      1.07808770    -0.22024713   -40.43352532     0.00000079    -0.00000160  0.48D-09  0.12D-08  6  6    38.86     4.26
   7      1.07808842    -0.22024697   -40.43352516     0.00000016    -0.00000033  0.34D-10  0.97D-10  6  1    42.93     4.26
   8      1.07808835    -0.22024702   -40.43352521    -0.00000005     0.00000021  0.34D-11  0.60D-11  6  3    47.03     4.27
   9      1.07808845    -0.22024701   -40.43352520     0.00000001    -0.00000006  0.35D-12  0.45D-12  6  2    51.10     4.27
  10      1.07808846    -0.22024701   -40.43352519     0.00000000    -0.00000000  0.32D-13  0.45D-13  6  4    55.15     4.27
  11      1.07808846    -0.22024701   -40.43352519     0.00000000     0.00000000  0.26D-14  0.50D-14  6  5    59.30     4.27
  12      1.07808845    -0.22024701   -40.43352519     0.00000000     0.00000000  0.64D-16  0.59D-15  6  6    63.34     4.28
  13      1.07808845    -0.22024701   -40.43352519    -0.00000000     0.00000000  0.72D-17  0.57D-16  6  1    67.45     4.27

 Norm of t1 vector:      0.02947491      S-energy:     0.00000000      T1 diagnostic:  0.00736873
                                                                       D1 diagnostic:  0.01186534

 Total CPU time for triples:     40.23 sec


 RESULTS
 =======

  Reference energy                    -40.213278188038
  CCSD singlet pair energy             -0.166750532865
  CCSD triplet pair energy             -0.053496472997
  CCSD correlation energy              -0.220247005779

  Triples (T) contribution             -0.006424487480
  Total correlation energy             -0.226671493260

  CCSD total energy                   -40.433525193817
  CCSD[T] energy                      -40.440132268500
  CCSD-T energy                       -40.439881791110
 !CCSD(T) total energy                -40.439949681298

 Timing summary (sec):

 STEP                 CPU(USER)    SYS     CPU(TOT)    WALL
 Transformation         14.46      0.60     15.06     15.08
 CCSD iterations        53.01      2.53     55.54     55.61
 Triples                40.23      0.25     40.48     40.54

 Program statistics:

 Available memory in ccsd:              1999999916
 Min. memory needed in ccsd:               1865022
 Max. memory used in ccsd:                 2159652
 Max. memory used in cckext:               1451153 (13 integral passes)



 **********************************************************************************************************************************
 DATASETS  * FILE   NREC   LENGTH (MB)   RECORD NAMES
              1      19      222.33       500      610      700      900      950      970     1000      129      960     1100   
                                          VAR    BASINP    GEOM    SYMINP    ZMAT    AOBASIS   BASIS     P2S    ABASIS      S 
                                         1400     1410     1200     1210     1080     1600     1650     1700     1380   
                                           T        V       H0       H01     AOSYM     SMH    MOLCAS    OPER     JKOP   

              2       7       13.71       700     1000      520     2100      200     2101     2102   
                                         GEOM     BASIS   MCVARS     RHF    OPTIONS    RHF      RHF  

 PROGRAMS   *        TOTAL   CCSD(T)    HF-SCF       INT   CCSD(T)    HF-SCF       INT   CCSD(T)    HF-SCF       INT
 CPU TIMES  *       836.63    107.92     12.24      0.24    119.93     13.50      0.25    551.52     14.33     16.44
 REAL TIME  *       869.76 SEC
 DISK USED  *       570.36 MB (local),        7.84 GB (total)
 SF USED    *       504.31 MB
 GA USED    *         0.00 MB       (max)       0.00 MB       (current)
 **********************************************************************************************************************************
 Molecular orbitals read from record     2102.2  Type=RHF/CANONICAL (state 1.1)
 Occupation numbers read from record     2102.2  Type=RHF/RHF (state 1.1)
 Orbital energies read from record       2102.2  Type=RHF/CANONICAL (state 1.1)
 Redundancy group numbers read from rec  2102.2  Type=RHF/RHF (state 1.1)

 CCSD(T)/aug-cc-pVTZ energy=    -40.439949681298

         CCSD(T)          HF-SCF         CCSD(T)          HF-SCF         CCSD(T)          HF-SCF
    -40.43994968    -40.21327819    -76.34168728    -76.05797148   -116.78222488   -116.27071995
 **********************************************************************************************************************************
 Molpro calculation terminated
