
 Primary working directories    : /scratch/klimes/383095/molpro.N5HsGUYA27
 Secondary working directories  : /scratch/klimes/383095/molpro.N5HsGUYA27
 Wavefunction directory         : /scratch/klimes/383095/
 Main file repository           : /scratch/klimes/383095/molpro.N5HsGUYA27/

 id        : karlovklimes

 Nodes                      nprocs
 nc-05.cc.karlov.mff.cuni.cz    4

 Using customized tuning parameters: mindgm=1; mindgv=20; mindgc=4; mindgr=1; noblas=0; minvec=7
 default implementation of scratch files=sf  


 Variables initialized (930), CPU time= 0.01 sec
                                                                                 !gdirect
 memory,2000,m
 gthresh,orbital=1d-10,energy=1d-10,grid=1d-8
 
 symmetry,nosym
 angstrom
 geometry={
 O13        -4.053700000000      0.094100000000      4.862800000000
 H25        -3.635600000000      1.001800000000      4.895500000000
 H26        -4.213700000000     -0.141300000000      5.785400000000
 C1        -3.277200000000      1.482500000000      1.271900000000
 H41        -2.464000000000      0.899600000000      1.651000000000
 H42        -3.160800000000      2.501000000000      1.578500000000
 H43        -4.201800000000      1.099200000000      1.650100000000
 H44        -3.268500000000      1.421000000000      0.203700000000
 }
 
 nkerna=1
 nkernb=1
 
 gf=0
 sing=1
 thrdum=1d-4
 gridthr=1d-8
 
 basis={
 set,orbital
 default,avtz
 set,jkfit
 default,avqz/jkfit
 set,mp2fit
 default,avqz/mp2fit
 set,ri
 default,avqz/optri
 set,tddft
 default,avqz/mp2fit
 }
 
 proc set_monomer1
 dummy,4,5,6,7,8
 endproc
 
 proc set_monomer2
 dummy,1,2,3
 endproc
 
                                                                                 !1234 energy
 {hf,accu=1.d-16}
 ccsd(t)
 
 set_monomer1
 {hf,accu=1.d-16}
 ccsd(t)
 
 set_monomer2
 {hf,accu=1.d-16}
 ccsd(t)
 
 Commands  initialized (760), CPU time= 0.02 sec, 617 directives.
 Default parameters read. Elapsed time= 0.24 sec

 Checking input...
 Passed
1


                                         ***  PROGRAM SYSTEM MOLPRO  ***
                                       Copyright, TTI GmbH Stuttgart, 2015
                                    Version 2019.1 linked Jan 14 2019 13:09:19


 **********************************************************************************************************************************
 LABEL *                                                                                 
  64 bit mpp version                                                                     DATE: 11-Mar-20          TIME: 12:52:30  
 **********************************************************************************************************************************

 SHA1:             d688ac825633d238f2093ded1675ba87ccd55965
 **********************************************************************************************************************************

 THRESHOLDS:

 ZERO    =  1.00D-12  ONEINT  =  1.00D-12  TWOINT  =  1.00D-11  PREFAC  =  1.00D-14  XXXXXX  =  1.00D-09  EORDER  =  1.00D-04
 ENERGY  =  1.00D-10  ETEST   =  0.00D+00  EDENS   =  0.00D+00  THRDEDEF=  1.00D-06  GRADIENT=  1.00D-02  STEP    =  1.00D-03
 ORBITAL =  1.00D-10  CIVEC   =  1.00D-05  COEFF   =  1.00D-04  PRINTCI =  5.00D-02  PUNCHCI =  9.90D+01  OPTGRAD =  3.00D-04
 OPTENERG=  1.00D-06  OPTSTEP =  3.00D-04  THRGRAD =  1.00D-10  COMPRESS=  1.00D-11  VARMIN  =  1.00D-07  VARMAX  =  1.00D-03
 THRDOUB =  0.00D+00  THRDIV  =  1.00D-05  THRRED  =  1.00D-07  THRPSP  =  1.00D+00  THRDC   =  1.00D-10  THRCS   =  1.00D-10
 THRNRM  =  1.00D-08  THREQ   =  0.00D+00  THRDE   =  1.00D+00  THRREF  =  1.00D-05  SPARFAC =  1.00D+00  THRDLP  =  1.00D-07
 THRDIA  =  1.00D-10  THRDLS  =  1.00D-07  THRGPS  =  0.00D+00  THRKEX  =  0.00D+00  THRDIS  =  2.00D-01  THRVAR  =  1.00D-10
 THRLOC  =  1.00D-06  THRGAP  =  1.00D-06  THRLOCT = -1.00D+00  THRGAPT = -1.00D+00  THRORB  =  1.00D-06  THRMLTP =  0.00D+00
 THRCPQCI=  1.00D-10  KEXTA   =  0.00D+00  THRCOARS=  0.00D+00  SYMTOL  =  1.00D-06  GRADTOL =  1.00D-06  THROVL  =  1.00D-08
 THRORTH =  1.00D-08  GRID    =  1.00D-08  GRIDMAX =  1.00D-03  DTMAX   =  0.00D+00  THROCCDE=  1.00D-01  THROCCDE=  1.00D-01
 THRPRINT=  2.50D-01


 Variable memory set to 2000000000 words,  buffer space 

 ZSYMEL=NOSYM
 ZUNIT=ANG


Geometry recognized as XYZ

 SETTING NKERNA         =         1.00000000                                  
 SETTING NKERNB         =         1.00000000                                  
 SETTING GF             =     0.00000000D+00                                  
 SETTING SING           =         1.00000000                                  
 SETTING THRDUM         =     1.00000000D-04                                  
 SETTING GRIDTHR        =     1.00000000D-08                                  
 SETTING BASIS          =    AVTZ


 Recomputing integrals since basis changed


 Using spherical harmonics

 Library entry O      S aug-cc-pVTZ          selected for orbital group  1
 Library entry O      P aug-cc-pVTZ          selected for orbital group  1
 Library entry O      D aug-cc-pVTZ          selected for orbital group  1
 Library entry O      F aug-cc-pVTZ          selected for orbital group  1
 Library entry H      S aug-cc-pVTZ          selected for orbital group  2
 Library entry H      P aug-cc-pVTZ          selected for orbital group  2
 Library entry H      D aug-cc-pVTZ          selected for orbital group  2
 Library entry C      S aug-cc-pVTZ          selected for orbital group  3
 Library entry C      P aug-cc-pVTZ          selected for orbital group  3
 Library entry C      D aug-cc-pVTZ          selected for orbital group  3
 Library entry C      F aug-cc-pVTZ          selected for orbital group  3


 PROGRAM * SEWARD (Integral evaluation for generally contracted gaussian basis sets)     Author: Roland Lindh, 1990

 Geometry written to block  1 of record 700


 Point group  C1  



 ATOMIC COORDINATES

 NR  ATOM    CHARGE       X              Y              Z

   1  O13     8.00   -7.660382791    0.177823228    9.189360199
   2  H25     1.00   -6.870288298    1.893127632    9.251154243
   3  H26     1.00   -7.962738971   -0.267018301   10.932821521
   4  C1      6.00   -6.193010455    2.801518980    2.403542658
   5  H41     1.00   -4.656285171    1.699997622    3.119937832
   6  H42     1.00   -5.973046335    4.726205038    2.982932688
   7  H43     1.00   -7.940251230    2.077186956    3.118237078
   8  H44     1.00   -6.176569838    2.685300823    0.384937212

 Bond lengths in Bohr (Angstrom)

 1-2  1.889533542  1-3  1.824543951  4-5  2.021904040  4-6  2.022002335  4-7  2.021953343
     ( 0.999898090)     ( 0.965507079)     ( 1.069945541)     ( 1.069997556)     ( 1.069971630)

 4-8  2.022015060
     ( 1.070004290)

 Bond angles

  2-1-3  105.03277623   5-4-6  109.53398059   5-4-7  109.65604535   5-4-8  108.43490854

  6-4-7  109.49436728   6-4-8  109.86987750   7-4-8  109.83468330

 NUCLEAR CHARGE:                   20
 NUMBER OF PRIMITIVE AOS:         296
 NUMBER OF SYMMETRY AOS:          266
 NUMBER OF CONTRACTIONS:          230   (  230A   )
 NUMBER OF CORE ORBITALS:           2   (    2A   )
 NUMBER OF VALENCE ORBITALS:       14   (   14A   )


 NUCLEAR REPULSION ENERGY   35.91495842


 Basis set:  JKFIT                   
 Basis size:   740
 Attributes:
 Sphericals:   T
 Basis set:  MP2FIT                  
 Basis size:   816
 Attributes:
 Sphericals:   T
 Basis set:  RI                      
 Basis size:   556
 Attributes:
 Sphericals:   T
 Basis set:  TDDFT                   
 Basis size:   816
 Attributes:
 Sphericals:   T

 **********************************************************************************************************************************


 Eigenvalues of metric

         1 0.580E-04 0.702E-04 0.986E-04 0.106E-03 0.331E-03 0.362E-03 0.646E-03 0.769E-03


 Contracted 2-electron integrals neglected if value below      1.0D-14
 AO integral compression algorithm  1   Integral accuracy      1.0D-14

     2039.480 MB (compressed) written to integral file ( 63.6%)

     Node minimum: 492.569 MB, node maximum: 524.812 MB


 NUMBER OF SORTED TWO-ELECTRON INTEGRALS:   88219044.     BUFFER LENGTH:  32768
 NUMBER OF SEGMENTS:   6  SEGMENT LENGTH:   15998348      RECORD LENGTH: 524288

 Memory used in sort:      16.56 MW

 SORT1 READ   400769927. AND WROTE    79636381. INTEGRALS IN    231 RECORDS. CPU TIME:     8.06 SEC, REAL TIME:     9.15 SEC
 SORT2 READ   318386130. AND WROTE   352862895. INTEGRALS IN   7516 RECORDS. CPU TIME:     1.93 SEC, REAL TIME:     2.79 SEC

 Node minimum:    88205762.  Node maximum:    88225686. integrals

 OPERATOR DM      FOR CENTER  0  COORDINATES:    0.000000    0.000000    0.000000


 **********************************************************************************************************************************
 DATASETS  * FILE   NREC   LENGTH (MB)   RECORD NAMES
              1      18       32.04       500      610      700      900      950      970     1000      129      960     1100   
                                          VAR    BASINP    GEOM    SYMINP    ZMAT    AOBASIS   BASIS     P2S    ABASIS      S 
                                         1400     1410     1200     1210     1080     1600     1650     1700   
                                           T        V       H0       H01     AOSYM     SMH    MOLCAS    OPER   

 PROGRAMS   *        TOTAL       INT
 CPU TIMES  *        14.88     14.66
 REAL TIME  *        20.35 SEC
 DISK USED  *        32.49 MB (local),        5.95 GB (total)
 GA USED    *         0.00 MB       (max)       0.00 MB       (current)
 **********************************************************************************************************************************


 PROGRAM * RHF-SCF (CLOSED SHELL)       Authors: W. Meyer, H.-J. Werner


 NUMBER OF ELECTRONS:      10+   10-    SPACE SYMMETRY=1    SPIN SYMMETRY: Singlet 
 CONVERGENCE THRESHOLDS:    1.00E-08 (Density)    1.00E-11 (Energy)
 MAX. NUMBER OF ITERATIONS:       60
 INTERPOLATION TYPE:            DIIS
 INTERPOLATION STEPS:              2 (START)      1 (STEP)
 LEVEL SHIFTS:                  0.00 (CLOSED)  0.00 (OPEN) 



 Orbital guess generated from atomic densities. Full valence occupancy:   16

 Molecular orbital dump at record        2100.2

 Initial occupancy:  10

 ITERATION    DDIFF          GRAD             ENERGY        2-EL.EN.            DIPOLE MOMENTS         DIIS   ORB.
    1      0.000D+00      0.000D+00      -116.21248433    157.529830    0.25820    0.65644    0.91852    0    start
    2      0.000D+00      0.523D-02      -116.25625279    152.509054    0.12516    0.33252    0.54757    1    diag
    3      0.550D-02      0.309D-02      -116.26984655    154.583472    0.15720    0.41300    0.64374    2    diag
    4      0.183D-02      0.453D-03      -116.27049812    154.471607    0.15389    0.40535    0.63609    3    diag
    5      0.405D-03      0.133D-03      -116.27056571    154.465973    0.15319    0.40431    0.63643    4    diag
    6      0.141D-03      0.326D-04      -116.27056955    154.471828    0.15286    0.40358    0.63599    5    diag
    7      0.386D-04      0.642D-05      -116.27056979    154.470296    0.15281    0.40353    0.63604    6    diag
    8      0.105D-04      0.165D-05      -116.27056981    154.470444    0.15278    0.40346    0.63601    7    diag
    9      0.229D-05      0.365D-06      -116.27056981    154.470418    0.15277    0.40344    0.63600    8    diag
   10      0.730D-06      0.417D-07      -116.27056981    154.470420    0.15277    0.40344    0.63600    9    orth
   11      0.578D-07      0.104D-07      -116.27056981    154.470421    0.15277    0.40344    0.63600    9    diag
   12      0.224D-07      0.262D-08      -116.27056981    154.470421    0.15277    0.40344    0.63600    9    diag
   13      0.363D-08      0.695D-09      -116.27056981    154.470421    0.15277    0.40344    0.63600    0    orth

 Final occupancy:  10

 !RHF STATE  1.1 Energy              -116.270569807067
 Nuclear energy                        35.91495842
 One-electron energy                 -229.42073875
 Two-electron energy                   77.23521052
 Virial quotient                       -1.00121472
 !RHF STATE  1.1 Dipole moment          0.15277362     0.40344228     0.63599692
 Dipole moment /Debye                   0.38828637     1.02538082     1.61643704

 Orbital energies:

         1.1          2.1          3.1          4.1          5.1          6.1          7.1          8.1          9.1         10.1
    -20.571194   -11.191899    -1.340678    -0.945656    -0.705109    -0.579119    -0.547003    -0.544092    -0.542312    -0.508097

        11.1         12.1
      0.026918     0.039489


 HOMO     10.1    -0.508097 =     -13.8260eV
 LUMO     11.1     0.026918 =       0.7325eV
 LUMO-HOMO         0.535015 =      14.5585eV


 **********************************************************************************************************************************
 DATASETS  * FILE   NREC   LENGTH (MB)   RECORD NAMES
              1      18       32.04       500      610      700      900      950      970     1000      129      960     1100   
                                          VAR    BASINP    GEOM    SYMINP    ZMAT    AOBASIS   BASIS     P2S    ABASIS      S 
                                         1400     1410     1200     1210     1080     1600     1650     1700   
                                           T        V       H0       H01     AOSYM     SMH    MOLCAS    OPER   

              2       4        3.96       700     1000      520     2100   
                                         GEOM     BASIS   MCVARS     RHF  

 PROGRAMS   *        TOTAL    HF-SCF       INT
 CPU TIMES  *        29.17     14.29     14.66
 REAL TIME  *        35.69 SEC
 DISK USED  *        39.90 MB (local),        5.98 GB (total)
 SF USED    *         0.21 MB
 GA USED    *         0.00 MB       (max)       0.00 MB       (current)
 **********************************************************************************************************************************

 Basis set:  JKFIT                   
 Basis size:   740
 Attributes:
 Sphericals:   T
 Basis set:  MP2FIT                  
 Basis size:   816
 Attributes:
 Sphericals:   T
 Basis set:  RI                      
 Basis size:   556
 Attributes:
 Sphericals:   T
 Basis set:  TDDFT                   
 Basis size:   816
 Attributes:
 Sphericals:   T

 PROGRAM * CCSD (Closed-shell coupled cluster)     Authors: C. Hampel, H.-J. Werner, 1991, M. Deegan, P.J. Knowles, 1992


 Convergence thresholds:  THRVAR = 1.00D-08  THRDEN = 1.00D-10

 CCSD(T)     terms to be evaluated (factor= 1.000)


 Number of core orbitals:           2 (   2 )
 Number of closed-shell orbitals:   8 (   8 )
 Number of external orbitals:     220 ( 220 )

 Molecular orbitals read from record     2100.2  Type=RHF/CANONICAL (state 1.1)

 Number of N-1 electron functions:               8
 Number of N-2 electron functions:              36
 Number of singly external CSFs:              1760
 Number of doubly external CSFs:           1549680
 Total number of CSFs:                     1551441

 Length of J-op  integral file:               0.00 MB
 Length of K-op  integral file:               3.65 MB
 Length of 3-ext integral record:             0.00 MB

 Memory could be reduced to 116.39 Mwords without degradation in triples

 Integral transformation finished. Total CPU:  25.22 sec, npass=  1  Memory used:  59.35 MW

 Reference energy:                   -116.27056981

 MP2 singlet pair energy:              -0.31760191
 MP2 triplet pair energy:              -0.15386702
 MP2 correlation energy:               -0.47146893
 MP2 total energy:                   -116.74203874

 SCS-MP2 correlation energy:           -0.47686177   (PS=  1.200000  PT=  0.333333)
 SCS-MP2 total energy:               -116.74743158

 ITER.      SQ.NORM     CORR.ENERGY   TOTAL ENERGY   ENERGY CHANGE        DEN1      VAR(S)    VAR(P)  DIIS     TIME  TIME/IT
   1      1.13570807    -0.49406162  -116.76463142    -0.02259268    -0.01131227  0.14D-02  0.21D-02  1  1    39.76    14.51
   2      1.14481618    -0.49547726  -116.76604706    -0.00141564    -0.01040731  0.23D-04  0.25D-03  2  2    54.40    14.67
   3      1.14785409    -0.49561254  -116.76618235    -0.00013529    -0.00198694  0.14D-04  0.12D-04  3  3    68.99    14.73
   4      1.14867339    -0.49561429  -116.76618410    -0.00000174    -0.00036737  0.60D-06  0.11D-05  4  4    83.72    14.79
   5      1.14883234    -0.49561148  -116.76618129     0.00000281    -0.00005047  0.20D-06  0.77D-07  5  5    98.39    14.82
   6      1.14888088    -0.49560680  -116.76617661     0.00000468    -0.00001206  0.17D-07  0.49D-08  6  6   113.01    14.83
   7      1.14888921    -0.49560624  -116.76617604     0.00000057    -0.00000078  0.12D-08  0.78D-09  6  2   127.58    14.84
   8      1.14889096    -0.49560610  -116.76617590     0.00000014     0.00000000  0.22D-09  0.78D-10  6  1   142.29    14.85
   9      1.14889169    -0.49560604  -116.76617585     0.00000006     0.00000001  0.18D-10  0.11D-10  6  3   156.95    14.86
  10      1.14889169    -0.49560604  -116.76617585    -0.00000000     0.00000007  0.45D-11  0.26D-11  6  1   171.62    14.87
  11      1.14889172    -0.49560604  -116.76617585     0.00000000     0.00000003  0.49D-12  0.17D-12  6  5   186.25    14.87
  12      1.14889174    -0.49560604  -116.76617585     0.00000000    -0.00000000  0.96D-13  0.31D-13  6  4   200.85    14.87
  13      1.14889173    -0.49560604  -116.76617585    -0.00000000    -0.00000000  0.13D-13  0.51D-14  6  2   215.45    14.87
  14      1.14889174    -0.49560604  -116.76617585     0.00000000    -0.00000000  0.13D-14  0.78D-15  6  6   230.05    14.87
  15      1.14889174    -0.49560604  -116.76617585     0.00000000     0.00000000  0.18D-15  0.10D-15  6  3   244.71    14.87
  16      1.14889174    -0.49560604  -116.76617585    -0.00000000     0.00000000  0.22D-16  0.16D-16  6  1   259.59    14.89

 Norm of t1 vector:      0.05141122      S-energy:     0.00000000      T1 diagnostic:  0.00908831
                                                                       D1 diagnostic:  0.02236662


 Total CPU time for triples:    228.84 sec


 RESULTS
 =======

  Reference energy                   -116.270569807064
  CCSD singlet pair energy             -0.354720800430
  CCSD triplet pair energy             -0.140885239867
  CCSD correlation energy              -0.495606040205

  Triples (T) contribution             -0.015396501161
  Total correlation energy             -0.511002541366

  CCSD total energy                  -116.766175847269
  CCSD[T] energy                     -116.782100406079
  CCSD-T energy                      -116.781318401297
 !CCSD(T) total energy               -116.781572348430

 Timing summary (sec):

 STEP                 CPU(USER)    SYS     CPU(TOT)    WALL
 Transformation         25.42      1.12     26.54     26.74
 CCSD iterations       234.19      3.60    237.79    238.28
 Triples               228.84      1.22    230.06    230.54

 Program statistics:

 Available memory in ccsd:              1999999734
 Min. memory needed in ccsd:               4617529
 Max. memory used in ccsd:                 5944569
 Max. memory used in cckext:               4248553 (16 integral passes)



 **********************************************************************************************************************************
 DATASETS  * FILE   NREC   LENGTH (MB)   RECORD NAMES
              1      19      398.13       500      610      700      900      950      970     1000      129      960     1100   
                                          VAR    BASINP    GEOM    SYMINP    ZMAT    AOBASIS   BASIS     P2S    ABASIS      S 
                                         1400     1410     1200     1210     1080     1600     1650     1700     1380   
                                           T        V       H0       H01     AOSYM     SMH    MOLCAS    OPER     JKOP   

              2       4        3.96       700     1000      520     2100   
                                         GEOM     BASIS   MCVARS     RHF  

 PROGRAMS   *        TOTAL   CCSD(T)    HF-SCF       INT
 CPU TIMES  *       517.86    488.68     14.29     14.66
 REAL TIME  *       532.05 SEC
 DISK USED  *       570.36 MB (local),        7.59 GB (total)
 SF USED    *       504.31 MB
 GA USED    *         0.00 MB       (max)       0.00 MB       (current)
 **********************************************************************************************************************************

 Running procedure: SET_MONOMER1

 Dummy atoms: C1  H41  H42  H43  H44


 Recomputing one-electron integrals since nuclear charges changed


 PROGRAM * SEWARD (Integral evaluation for generally contracted gaussian basis sets)     Author: Roland Lindh, 1990

 Geometry written to block  1 of record 700


 Point group  C1  



 ATOMIC COORDINATES

 NR  ATOM    CHARGE       X              Y              Z

   1  O13     8.00   -7.660382791    0.177823228    9.189360199
   2  H25     1.00   -6.870288298    1.893127632    9.251154243
   3  H26     1.00   -7.962738971   -0.267018301   10.932821521
   4  C1      0.00   -6.193010455    2.801518980    2.403542658
   5  H41     0.00   -4.656285171    1.699997622    3.119937832
   6  H42     0.00   -5.973046335    4.726205038    2.982932688
   7  H43     0.00   -7.940251230    2.077186956    3.118237078
   8  H44     0.00   -6.176569838    2.685300823    0.384937212

 Bond lengths in Bohr (Angstrom)

 1-2  1.889533542  1-3  1.824543951  4-5  2.021904040  4-6  2.022002335  4-7  2.021953343
     ( 0.999898090)     ( 0.965507079)     ( 1.069945541)     ( 1.069997556)     ( 1.069971630)

 4-8  2.022015060
     ( 1.070004290)

 Bond angles

  2-1-3  105.03277623   5-4-6  109.53398059   5-4-7  109.65604535   5-4-8  108.43490854

  6-4-7  109.49436728   6-4-8  109.86987750   7-4-8  109.83468330

 NUCLEAR CHARGE:                   10
 NUMBER OF PRIMITIVE AOS:         296
 NUMBER OF SYMMETRY AOS:          266
 NUMBER OF CONTRACTIONS:          230   (  230A   )
 NUMBER OF CORE ORBITALS:           1   (    1A   )
 NUMBER OF VALENCE ORBITALS:        6   (    6A   )

 MOLECULE CHANGED: INITIALIZING OCCUPATION AND DUMP RECORDS


 NUCLEAR REPULSION ENERGY    8.95777847

 Basis set:  JKFIT                   
 Basis size:   740
 Attributes:
 Sphericals:   T
 Basis set:  MP2FIT                  
 Basis size:   816
 Attributes:
 Sphericals:   T
 Basis set:  RI                      
 Basis size:   556
 Attributes:
 Sphericals:   T
 Basis set:  TDDFT                   
 Basis size:   816
 Attributes:
 Sphericals:   T

 Eigenvalues of metric

         1 0.580E-04 0.702E-04 0.986E-04 0.106E-03 0.331E-03 0.362E-03 0.646E-03 0.769E-03


 Contracted 2-electron integrals neglected if value below      1.0D-14

 OPERATOR DM      FOR CENTER  0  COORDINATES:    0.000000    0.000000    0.000000


 **********************************************************************************************************************************
 DATASETS  * FILE   NREC   LENGTH (MB)   RECORD NAMES
              1      18       32.04       500      610      700      900      950      970     1000      129      960     1100   
                                          VAR    BASINP    GEOM    SYMINP    ZMAT    AOBASIS   BASIS     P2S    ABASIS      S 
                                         1400     1410     1200     1210     1080     1600     1650     1700   
                                           T        V       H0       H01     AOSYM     SMH    MOLCAS    OPER   

              2       5        5.05       700     1000      520     2100      200   
                                         GEOM     BASIS   MCVARS     RHF    OPTIONS    

 PROGRAMS   *        TOTAL       INT   CCSD(T)    HF-SCF       INT
 CPU TIMES  *       518.09      0.22    488.68     14.29     14.66
 REAL TIME  *       532.81 SEC
 DISK USED  *       570.36 MB (local),        7.60 GB (total)
 SF USED    *       504.31 MB
 GA USED    *         0.00 MB       (max)       0.00 MB       (current)
 **********************************************************************************************************************************


 PROGRAM * RHF-SCF (CLOSED SHELL)       Authors: W. Meyer, H.-J. Werner


 NUMBER OF ELECTRONS:       5+    5-    SPACE SYMMETRY=1    SPIN SYMMETRY: Singlet 
 CONVERGENCE THRESHOLDS:    1.00E-08 (Density)    1.00E-11 (Energy)
 MAX. NUMBER OF ITERATIONS:       60
 INTERPOLATION TYPE:            DIIS
 INTERPOLATION STEPS:              2 (START)      1 (STEP)
 LEVEL SHIFTS:                  0.00 (CLOSED)  0.00 (OPEN) 



 Orbital guess generated from atomic densities. Full valence occupancy:    7

 Molecular orbital dump at record        2101.2

 Initial occupancy:   5

 ITERATION    DDIFF          GRAD             ENERGY        2-EL.EN.            DIPOLE MOMENTS         DIIS   ORB.
    1      0.000D+00      0.000D+00       -76.01879603     77.321444    0.25443    0.66008    0.91936    0    start
    2      0.000D+00      0.640D-02       -76.04549068     73.671019    0.14326    0.37415    0.53804    1    diag
    3      0.443D-02      0.411D-02       -76.05704145     75.288658    0.17005    0.44355    0.63413    2    diag
    4      0.161D-02      0.378D-03       -76.05723658     75.199075    0.16819    0.43922    0.63146    3    diag
    5      0.207D-03      0.107D-03       -76.05725768     75.213447    0.16746    0.43752    0.63050    4    diag
    6      0.662D-04      0.211D-04       -76.05725904     75.212512    0.16727    0.43709    0.63036    5    diag
    7      0.169D-04      0.422D-05       -76.05725911     75.212641    0.16721    0.43696    0.63030    6    diag
    8      0.442D-05      0.764D-06       -76.05725911     75.212625    0.16720    0.43693    0.63027    7    diag
    9      0.718D-06      0.997D-07       -76.05725911     75.212615    0.16720    0.43693    0.63027    8    diag
   10      0.847D-07      0.260D-07       -76.05725911     75.212618    0.16720    0.43693    0.63027    9    orth
   11      0.216D-07      0.600D-08       -76.05725911     75.212618    0.16720    0.43693    0.63027    9    diag
   12      0.593D-08      0.117D-08       -76.05725911     75.212618    0.16720    0.43693    0.63027    0    orth

 Final occupancy:   5

 !RHF STATE  1.1 Energy               -76.057259107176
 Nuclear energy                         8.95777847
 One-electron energy                 -122.62134664
 Two-electron energy                   37.60630907
 Virial quotient                       -1.00256457
 !RHF STATE  1.1 Dipole moment          0.16719995     0.43692758     0.63026673
 Dipole moment /Debye                   0.42495205     1.11048641     1.60187333

 Orbital energies:

         1.1          2.1          3.1          4.1          5.1          6.1          7.1
    -20.571318    -1.340746    -0.705168    -0.578949    -0.508184     0.022975     0.035764


 HOMO      5.1    -0.508184 =     -13.8284eV
 LUMO      6.1     0.022975 =       0.6252eV
 LUMO-HOMO         0.531159 =      14.4536eV


 **********************************************************************************************************************************
 DATASETS  * FILE   NREC   LENGTH (MB)   RECORD NAMES
              1      18       32.04       500      610      700      900      950      970     1000      129      960     1100   
                                          VAR    BASINP    GEOM    SYMINP    ZMAT    AOBASIS   BASIS     P2S    ABASIS      S 
                                         1400     1410     1200     1210     1080     1600     1650     1700   
                                           T        V       H0       H01     AOSYM     SMH    MOLCAS    OPER   

              2       6        9.09       700     1000      520     2100      200     2101   
                                         GEOM     BASIS   MCVARS     RHF    OPTIONS    RHF  

 PROGRAMS   *        TOTAL    HF-SCF       INT   CCSD(T)    HF-SCF       INT
 CPU TIMES  *       531.53     13.44      0.22    488.68     14.29     14.66
 REAL TIME  *       547.02 SEC
 DISK USED  *       570.36 MB (local),        7.60 GB (total)
 SF USED    *       504.31 MB
 GA USED    *         0.00 MB       (max)       0.00 MB       (current)
 **********************************************************************************************************************************

 Basis set:  JKFIT                   
 Basis size:   740
 Attributes:
 Sphericals:   T
 Basis set:  MP2FIT                  
 Basis size:   816
 Attributes:
 Sphericals:   T
 Basis set:  RI                      
 Basis size:   556
 Attributes:
 Sphericals:   T
 Basis set:  TDDFT                   
 Basis size:   816
 Attributes:
 Sphericals:   T

 PROGRAM * CCSD (Closed-shell coupled cluster)     Authors: C. Hampel, H.-J. Werner, 1991, M. Deegan, P.J. Knowles, 1992


 Convergence thresholds:  THRVAR = 1.00D-08  THRDEN = 1.00D-10

 CCSD(T)     terms to be evaluated (factor= 1.000)


 Number of core orbitals:           1 (   1 )
 Number of closed-shell orbitals:   4 (   4 )
 Number of external orbitals:     225 ( 225 )

 Molecular orbitals read from record     2101.2  Type=RHF/CANONICAL (state 1.1)

 Number of N-1 electron functions:               4
 Number of N-2 electron functions:              10
 Number of singly external CSFs:               900
 Number of doubly external CSFs:            405450
 Total number of CSFs:                      406351

 Length of J-op  integral file:               0.00 MB
 Length of K-op  integral file:               3.65 MB
 Length of 3-ext integral record:             0.00 MB

 Memory could be reduced to 75.63 Mwords without degradation in triples

 Integral transformation finished. Total CPU:  12.79 sec, npass=  1  Memory used:  32.52 MW

 Reference energy:                    -76.05725911

 MP2 singlet pair energy:              -0.17202905
 MP2 triplet pair energy:              -0.09839272
 MP2 correlation energy:               -0.27042177
 MP2 total energy:                    -76.32768088

 SCS-MP2 correlation energy:           -0.26765700   (PS=  1.200000  PT=  0.333333)
 SCS-MP2 total energy:                -76.32491610

 ITER.      SQ.NORM     CORR.ENERGY   TOTAL ENERGY   ENERGY CHANGE        DEN1      VAR(S)    VAR(P)  DIIS     TIME  TIME/IT
   1      1.06450347    -0.27451286   -76.33177197    -0.00409109     0.00172885  0.95D-03  0.10D-02  1  1    16.61     3.86
   2      1.06842178    -0.27482587   -76.33208498    -0.00031301    -0.00498153  0.12D-04  0.13D-03  2  2    20.49     3.93
   3      1.06992117    -0.27491397   -76.33217307    -0.00008810    -0.00095929  0.12D-04  0.60D-05  3  3    24.38     3.95
   4      1.07041388    -0.27490759   -76.33216670     0.00000637    -0.00022537  0.50D-06  0.72D-06  4  4    28.25     3.96
   5      1.07052183    -0.27490465   -76.33216376     0.00000294    -0.00003339  0.16D-06  0.45D-07  5  5    32.09     3.97
   6      1.07055973    -0.27490103   -76.33216014     0.00000362    -0.00000783  0.12D-07  0.30D-08  6  6    35.96     3.98
   7      1.07056646    -0.27490078   -76.33215989     0.00000025    -0.00000075  0.96D-09  0.53D-09  6  1    39.86     3.98
   8      1.07056761    -0.27490074   -76.33215985     0.00000004     0.00000032  0.15D-09  0.60D-10  6  2    43.73     3.99
   9      1.07056815    -0.27490069   -76.33215980     0.00000005     0.00000002  0.13D-10  0.65D-11  6  3    47.59     3.99
  10      1.07056825    -0.27490069   -76.33215979     0.00000001     0.00000001  0.26D-11  0.90D-12  6  4    51.48     3.99
  11      1.07056821    -0.27490069   -76.33215980    -0.00000001     0.00000003  0.50D-12  0.17D-12  6  6    55.32     3.99
  12      1.07056821    -0.27490069   -76.33215980    -0.00000000     0.00000001  0.72D-13  0.24D-13  6  5    59.18     3.99
  13      1.07056820    -0.27490069   -76.33215980    -0.00000000     0.00000000  0.95D-14  0.35D-14  6  1    63.05     3.99
  14      1.07056820    -0.27490069   -76.33215980    -0.00000000     0.00000000  0.11D-14  0.68D-15  6  2    66.89     3.99
  15      1.07056819    -0.27490069   -76.33215980     0.00000000    -0.00000000  0.94D-16  0.73D-16  6  3    70.67     3.99
  16      1.07056819    -0.27490069   -76.33215980    -0.00000000    -0.00000000  0.13D-16  0.94D-17  6  4    74.47     3.99

 Norm of t1 vector:      0.04163205      S-energy:    -0.00000000      T1 diagnostic:  0.01040801
                                                                       D1 diagnostic:  0.02215297


 Total CPU time for triples:     36.01 sec


 RESULTS
 =======

  Reference energy                    -76.057259107177
  CCSD singlet pair energy             -0.187924602254
  CCSD triplet pair energy             -0.086976091001
  CCSD correlation energy              -0.274900693277

  Triples (T) contribution             -0.008888110846
  Total correlation energy             -0.283788804123

  CCSD total energy                   -76.332159800454
  CCSD[T] energy                      -76.341389593270
  CCSD-T energy                       -76.340863943875
 !CCSD(T) total energy                -76.341047911300

 Timing summary (sec):

 STEP                 CPU(USER)    SYS     CPU(TOT)    WALL
 Transformation         12.85      0.42     13.27     13.30
 CCSD iterations        61.63      2.16     63.79     63.92
 Triples                36.01      0.21     36.22     36.28

 Program statistics:

 Available memory in ccsd:              1999999921
 Min. memory needed in ccsd:               1865022
 Max. memory used in ccsd:                 2159652
 Max. memory used in cckext:               1451153 (16 integral passes)



 **********************************************************************************************************************************
 DATASETS  * FILE   NREC   LENGTH (MB)   RECORD NAMES
              1      19      222.33       500      610      700      900      950      970     1000      129      960     1100   
                                          VAR    BASINP    GEOM    SYMINP    ZMAT    AOBASIS   BASIS     P2S    ABASIS      S 
                                         1400     1410     1200     1210     1080     1600     1650     1700     1380   
                                           T        V       H0       H01     AOSYM     SMH    MOLCAS    OPER     JKOP   

              2       6        9.09       700     1000      520     2100      200     2101   
                                         GEOM     BASIS   MCVARS     RHF    OPTIONS    RHF  

 PROGRAMS   *        TOTAL   CCSD(T)    HF-SCF       INT   CCSD(T)    HF-SCF       INT
 CPU TIMES  *       642.25    110.71     13.44      0.22    488.68     14.29     14.66
 REAL TIME  *       661.22 SEC
 DISK USED  *       570.36 MB (local),        7.60 GB (total)
 SF USED    *       504.31 MB
 GA USED    *         0.00 MB       (max)       0.00 MB       (current)
 **********************************************************************************************************************************

 Running procedure: SET_MONOMER2

 Dummy atoms: O13  H25  H26


 Recomputing one-electron integrals since nuclear charges changed


 PROGRAM * SEWARD (Integral evaluation for generally contracted gaussian basis sets)     Author: Roland Lindh, 1990

 Geometry written to block  1 of record 700


 Point group  C1  



 ATOMIC COORDINATES

 NR  ATOM    CHARGE       X              Y              Z

   1  O13     0.00   -7.660382791    0.177823228    9.189360199
   2  H25     0.00   -6.870288298    1.893127632    9.251154243
   3  H26     0.00   -7.962738971   -0.267018301   10.932821521
   4  C1      6.00   -6.193010455    2.801518980    2.403542658
   5  H41     1.00   -4.656285171    1.699997622    3.119937832
   6  H42     1.00   -5.973046335    4.726205038    2.982932688
   7  H43     1.00   -7.940251230    2.077186956    3.118237078
   8  H44     1.00   -6.176569838    2.685300823    0.384937212

 Bond lengths in Bohr (Angstrom)

 1-2  1.889533542  1-3  1.824543951  4-5  2.021904040  4-6  2.022002335  4-7  2.021953343
     ( 0.999898090)     ( 0.965507079)     ( 1.069945541)     ( 1.069997556)     ( 1.069971630)

 4-8  2.022015060
     ( 1.070004290)

 Bond angles

  2-1-3  105.03277623   5-4-6  109.53398059   5-4-7  109.65604535   5-4-8  108.43490854

  6-4-7  109.49436728   6-4-8  109.86987750   7-4-8  109.83468330

 NUCLEAR CHARGE:                   10
 NUMBER OF PRIMITIVE AOS:         296
 NUMBER OF SYMMETRY AOS:          266
 NUMBER OF CONTRACTIONS:          230   (  230A   )
 NUMBER OF CORE ORBITALS:           1   (    1A   )
 NUMBER OF VALENCE ORBITALS:        8   (    8A   )

 MOLECULE CHANGED: INITIALIZING OCCUPATION AND DUMP RECORDS


 NUCLEAR REPULSION ENERGY   13.68681606

 Basis set:  JKFIT                   
 Basis size:   740
 Attributes:
 Sphericals:   T
 Basis set:  MP2FIT                  
 Basis size:   816
 Attributes:
 Sphericals:   T
 Basis set:  RI                      
 Basis size:   556
 Attributes:
 Sphericals:   T
 Basis set:  TDDFT                   
 Basis size:   816
 Attributes:
 Sphericals:   T

 Eigenvalues of metric

         1 0.580E-04 0.702E-04 0.986E-04 0.106E-03 0.331E-03 0.362E-03 0.646E-03 0.769E-03


 Contracted 2-electron integrals neglected if value below      1.0D-14

 OPERATOR DM      FOR CENTER  0  COORDINATES:    0.000000    0.000000    0.000000


 **********************************************************************************************************************************
 DATASETS  * FILE   NREC   LENGTH (MB)   RECORD NAMES
              1      18       32.04       500      610      700      900      950      970     1000      129      960     1100   
                                          VAR    BASINP    GEOM    SYMINP    ZMAT    AOBASIS   BASIS     P2S    ABASIS      S 
                                         1400     1410     1200     1210     1080     1600     1650     1700   
                                           T        V       H0       H01     AOSYM     SMH    MOLCAS    OPER   

              2       6        9.09       700     1000      520     2100      200     2101   
                                         GEOM     BASIS   MCVARS     RHF    OPTIONS    RHF  

 PROGRAMS   *        TOTAL       INT   CCSD(T)    HF-SCF       INT   CCSD(T)    HF-SCF       INT
 CPU TIMES  *       642.50      0.22    110.71     13.44      0.22    488.68     14.29     14.66
 REAL TIME  *       661.94 SEC
 DISK USED  *       570.36 MB (local),        7.60 GB (total)
 SF USED    *       504.31 MB
 GA USED    *         0.00 MB       (max)       0.00 MB       (current)
 **********************************************************************************************************************************


 PROGRAM * RHF-SCF (CLOSED SHELL)       Authors: W. Meyer, H.-J. Werner


 NUMBER OF ELECTRONS:       5+    5-    SPACE SYMMETRY=1    SPIN SYMMETRY: Singlet 
 CONVERGENCE THRESHOLDS:    1.00E-08 (Density)    1.00E-11 (Energy)
 MAX. NUMBER OF ITERATIONS:       60
 INTERPOLATION TYPE:            DIIS
 INTERPOLATION STEPS:              2 (START)      1 (STEP)
 LEVEL SHIFTS:                  0.00 (CLOSED)  0.00 (OPEN) 



 Orbital guess generated from atomic densities. Full valence occupancy:    9

 Molecular orbital dump at record        2102.2

 Initial occupancy:   5

 ITERATION    DDIFF          GRAD             ENERGY        2-EL.EN.            DIPOLE MOMENTS         DIIS   ORB.
    1      0.000D+00      0.000D+00       -40.19358811     53.494045    0.00411   -0.00275   -0.00132    0    start
    2      0.000D+00      0.353D-02       -40.21070545     52.213684    0.00130   -0.00086   -0.00040    1    diag
    3      0.324D-02      0.137D-02       -40.21295391     52.664857    0.00183   -0.00122   -0.00056    2    diag
    4      0.912D-03      0.342D-03       -40.21326937     52.609830    0.00163   -0.00108   -0.00049    3    diag
    5      0.300D-03      0.444D-04       -40.21327476     52.612168    0.00160   -0.00106   -0.00048    4    diag
    6      0.754D-04      0.344D-05       -40.21327480     52.612266    0.00160   -0.00106   -0.00048    5    diag
    7      0.645D-05      0.264D-06       -40.21327480     52.612232    0.00160   -0.00106   -0.00048    6    diag
    8      0.957D-06      0.221D-07       -40.21327480     52.612232    0.00160   -0.00106   -0.00048    7    diag
    9      0.190D-06      0.286D-08       -40.21327480     52.612232    0.00160   -0.00106   -0.00048    8    diag
   10      0.119D-07      0.799D-09       -40.21327480     52.612232    0.00160   -0.00106   -0.00048    9    orth
   11      0.115D-08      0.106D-09       -40.21327480     52.612232    0.00160   -0.00106   -0.00048    0    orth

 Final occupancy:   5

 !RHF STATE  1.1 Energy               -40.213274800358
 Nuclear energy                        13.68681606
 One-electron energy                  -80.20620695
 Two-electron energy                   26.30611610
 Virial quotient                       -0.99870126
 !RHF STATE  1.1 Dipole moment          0.00159582    -0.00106223    -0.00048276
 Dipole moment /Debye                   0.00405590    -0.00269974    -0.00122697

 Orbital energies:

         1.1          2.1          3.1          4.1          5.1          6.1          7.1
    -11.197209    -0.950742    -0.551695    -0.549760    -0.547581     0.026358     0.039148


 HOMO      5.1    -0.547581 =     -14.9004eV
 LUMO      6.1     0.026358 =       0.7172eV
 LUMO-HOMO         0.573939 =      15.6177eV


 **********************************************************************************************************************************
 DATASETS  * FILE   NREC   LENGTH (MB)   RECORD NAMES
              1      18       32.04       500      610      700      900      950      970     1000      129      960     1100   
                                          VAR    BASINP    GEOM    SYMINP    ZMAT    AOBASIS   BASIS     P2S    ABASIS      S 
                                         1400     1410     1200     1210     1080     1600     1650     1700   
                                           T        V       H0       H01     AOSYM     SMH    MOLCAS    OPER   

              2       7       13.71       700     1000      520     2100      200     2101     2102   
                                         GEOM     BASIS   MCVARS     RHF    OPTIONS    RHF      RHF  

 PROGRAMS   *        TOTAL    HF-SCF       INT   CCSD(T)    HF-SCF       INT   CCSD(T)    HF-SCF       INT
 CPU TIMES  *       654.48     11.99      0.22    110.71     13.44      0.22    488.68     14.29     14.66
 REAL TIME  *       675.07 SEC
 DISK USED  *       570.36 MB (local),        7.60 GB (total)
 SF USED    *       504.31 MB
 GA USED    *         0.00 MB       (max)       0.00 MB       (current)
 **********************************************************************************************************************************

 Basis set:  JKFIT                   
 Basis size:   740
 Attributes:
 Sphericals:   T
 Basis set:  MP2FIT                  
 Basis size:   816
 Attributes:
 Sphericals:   T
 Basis set:  RI                      
 Basis size:   556
 Attributes:
 Sphericals:   T
 Basis set:  TDDFT                   
 Basis size:   816
 Attributes:
 Sphericals:   T

 PROGRAM * CCSD (Closed-shell coupled cluster)     Authors: C. Hampel, H.-J. Werner, 1991, M. Deegan, P.J. Knowles, 1992


 Convergence thresholds:  THRVAR = 1.00D-08  THRDEN = 1.00D-10

 CCSD(T)     terms to be evaluated (factor= 1.000)


 Number of core orbitals:           1 (   1 )
 Number of closed-shell orbitals:   4 (   4 )
 Number of external orbitals:     225 ( 225 )

 Molecular orbitals read from record     2102.2  Type=RHF/CANONICAL (state 1.1)

 Number of N-1 electron functions:               4
 Number of N-2 electron functions:              10
 Number of singly external CSFs:               900
 Number of doubly external CSFs:            405450
 Total number of CSFs:                      406351

 Length of J-op  integral file:               0.00 MB
 Length of K-op  integral file:               3.65 MB
 Length of 3-ext integral record:             0.00 MB

 Memory could be reduced to 75.63 Mwords without degradation in triples

 Integral transformation finished. Total CPU:  12.96 sec, npass=  1  Memory used:  32.52 MW

 Reference energy:                    -40.21327480

 MP2 singlet pair energy:              -0.14544401
 MP2 triplet pair energy:              -0.05506329
 MP2 correlation energy:               -0.20050730
 MP2 total energy:                    -40.41378210

 SCS-MP2 correlation energy:           -0.20879442   (PS=  1.200000  PT=  0.333333)
 SCS-MP2 total energy:                -40.42206922

 ITER.      SQ.NORM     CORR.ENERGY   TOTAL ENERGY   ENERGY CHANGE        DEN1      VAR(S)    VAR(P)  DIIS     TIME  TIME/IT
   1      1.07100974    -0.21905697   -40.43233178    -0.01854967    -0.01309630  0.46D-03  0.10D-02  1  1    16.76     3.90
   2      1.07650309    -0.22015810   -40.43343290    -0.00110113    -0.00567815  0.13D-04  0.71D-04  2  2    20.65     3.96
   3      1.07773140    -0.22021144   -40.43348624    -0.00005334    -0.00078799  0.16D-05  0.48D-05  3  3    24.55     3.98
   4      1.07803540    -0.22022045   -40.43349525    -0.00000900    -0.00012814  0.92D-07  0.22D-06  4  4    28.42     3.99
   5      1.07808159    -0.22021938   -40.43349418     0.00000107    -0.00001886  0.57D-08  0.16D-07  5  5    32.31     4.00
   6      1.07808642    -0.22021858   -40.43349338     0.00000079    -0.00000156  0.45D-09  0.11D-08  6  6    36.14     4.00
   7      1.07808713    -0.22021844   -40.43349324     0.00000015    -0.00000032  0.32D-10  0.89D-10  6  1    39.97     4.00
   8      1.07808716    -0.22021847   -40.43349327    -0.00000004     0.00000012  0.26D-11  0.50D-11  6  2    43.84     4.00
   9      1.07808717    -0.22021847   -40.43349327    -0.00000000     0.00000002  0.28D-12  0.46D-12  6  3    47.72     4.01
  10      1.07808717    -0.22021847   -40.43349327     0.00000000     0.00000001  0.26D-13  0.48D-13  6  4    51.59     4.01
  11      1.07808716    -0.22021847   -40.43349327     0.00000000     0.00000001  0.22D-14  0.48D-14  6  5    55.53     4.01
  12      1.07808716    -0.22021847   -40.43349327     0.00000000     0.00000000  0.48D-16  0.57D-15  6  6    59.38     4.01
  13      1.07808715    -0.22021847   -40.43349327    -0.00000000     0.00000000  0.74D-17  0.60D-16  6  1    63.24     4.01
  14      1.07808715    -0.22021847   -40.43349327    -0.00000000     0.00000000  0.14D-17  0.76D-17  6  2    67.13     4.01

 Norm of t1 vector:      0.02946839      S-energy:     0.00000000      T1 diagnostic:  0.00736710
                                                                       D1 diagnostic:  0.01186374

 Total CPU time for triples:     36.01 sec


 RESULTS
 =======

  Reference energy                    -40.213274800358
  CCSD singlet pair energy             -0.166725487784
  CCSD triplet pair energy             -0.053492982873
  CCSD correlation energy              -0.220218470633

  Triples (T) contribution             -0.006422228734
  Total correlation energy             -0.226640699367

  CCSD total energy                   -40.433493270990
  CCSD[T] energy                      -40.440098052111
  CCSD-T energy                       -40.439847590387
 !CCSD(T) total energy                -40.439915499725

 Timing summary (sec):

 STEP                 CPU(USER)    SYS     CPU(TOT)    WALL
 Transformation         13.01      0.59     13.60     13.63
 CCSD iterations        54.14      1.93     56.07     56.18
 Triples                36.01      0.25     36.26     36.39

 Program statistics:

 Available memory in ccsd:              1999999916
 Min. memory needed in ccsd:               1865022
 Max. memory used in ccsd:                 2159652
 Max. memory used in cckext:               1451153 (14 integral passes)



 **********************************************************************************************************************************
 DATASETS  * FILE   NREC   LENGTH (MB)   RECORD NAMES
              1      19      222.33       500      610      700      900      950      970     1000      129      960     1100   
                                          VAR    BASINP    GEOM    SYMINP    ZMAT    AOBASIS   BASIS     P2S    ABASIS      S 
                                         1400     1410     1200     1210     1080     1600     1650     1700     1380   
                                           T        V       H0       H01     AOSYM     SMH    MOLCAS    OPER     JKOP   

              2       7       13.71       700     1000      520     2100      200     2101     2102   
                                         GEOM     BASIS   MCVARS     RHF    OPTIONS    RHF      RHF  

 PROGRAMS   *        TOTAL   CCSD(T)    HF-SCF       INT   CCSD(T)    HF-SCF       INT   CCSD(T)    HF-SCF       INT
 CPU TIMES  *       757.86    103.38     11.99      0.22    110.71     13.44      0.22    488.68     14.29     14.66
 REAL TIME  *       781.99 SEC
 DISK USED  *       570.36 MB (local),        7.60 GB (total)
 SF USED    *       504.31 MB
 GA USED    *         0.00 MB       (max)       0.00 MB       (current)
 **********************************************************************************************************************************
 Molecular orbitals read from record     2102.2  Type=RHF/CANONICAL (state 1.1)
 Occupation numbers read from record     2102.2  Type=RHF/RHF (state 1.1)
 Orbital energies read from record       2102.2  Type=RHF/CANONICAL (state 1.1)
 Redundancy group numbers read from rec  2102.2  Type=RHF/RHF (state 1.1)

 CCSD(T)/aug-cc-pVTZ energy=    -40.439915499725

         CCSD(T)          HF-SCF         CCSD(T)          HF-SCF         CCSD(T)          HF-SCF
    -40.43991550    -40.21327480    -76.34104791    -76.05725911   -116.78157235   -116.27056981
 **********************************************************************************************************************************
 Molpro calculation terminated
