
 Primary working directories    : /scratch/klimes/383096/molpro.t2EiwHRiLr
 Secondary working directories  : /scratch/klimes/383096/molpro.t2EiwHRiLr
 Wavefunction directory         : /scratch/klimes/383096/
 Main file repository           : /scratch/klimes/383096/molpro.t2EiwHRiLr/

 id        : karlovklimes

 Nodes                      nprocs
 nc-05.cc.karlov.mff.cuni.cz    4

 Using customized tuning parameters: mindgm=1; mindgv=20; mindgc=4; mindgr=1; noblas=0; minvec=7
 default implementation of scratch files=sf  


 Variables initialized (930), CPU time= 0.00 sec
                                                                                 !gdirect
 memory,2000,m
 gthresh,orbital=1d-10,energy=1d-10,grid=1d-8
 
 symmetry,nosym
 angstrom
 geometry={
 O14        -4.369600000000      4.555200000000     -0.937800000000
 H27        -4.635300000000      5.332600000000     -1.445500000000
 H28        -5.213600000000      4.102600000000     -0.695700000000
 C1        -3.277200000000      1.482500000000      1.271900000000
 H41        -2.464000000000      0.899600000000      1.651000000000
 H42        -3.160800000000      2.501000000000      1.578500000000
 H43        -4.201800000000      1.099200000000      1.650100000000
 H44        -3.268500000000      1.421000000000      0.203700000000
 }
 
 nkerna=1
 nkernb=1
 
 gf=0
 sing=1
 thrdum=1d-4
 gridthr=1d-8
 
 basis={
 set,orbital
 default,avtz
 set,jkfit
 default,avqz/jkfit
 set,mp2fit
 default,avqz/mp2fit
 set,ri
 default,avqz/optri
 set,tddft
 default,avqz/mp2fit
 }
 
 proc set_monomer1
 dummy,4,5,6,7,8
 endproc
 
 proc set_monomer2
 dummy,1,2,3
 endproc
 
                                                                                 !1234 energy
 {hf,accu=1.d-16}
 ccsd(t)
 
 set_monomer1
 {hf,accu=1.d-16}
 ccsd(t)
 
 set_monomer2
 {hf,accu=1.d-16}
 ccsd(t)
 
 Commands  initialized (760), CPU time= 0.01 sec, 617 directives.
 Default parameters read. Elapsed time= 0.25 sec

 Checking input...
 Passed
1


                                         ***  PROGRAM SYSTEM MOLPRO  ***
                                       Copyright, TTI GmbH Stuttgart, 2015
                                    Version 2019.1 linked Jan 14 2019 13:09:19


 **********************************************************************************************************************************
 LABEL *                                                                                 
  64 bit mpp version                                                                     DATE: 11-Mar-20          TIME: 12:52:30  
 **********************************************************************************************************************************

 SHA1:             d688ac825633d238f2093ded1675ba87ccd55965
 **********************************************************************************************************************************

 THRESHOLDS:

 ZERO    =  1.00D-12  ONEINT  =  1.00D-12  TWOINT  =  1.00D-11  PREFAC  =  1.00D-14  XXXXXX  =  1.00D-09  EORDER  =  1.00D-04
 ENERGY  =  1.00D-10  ETEST   =  0.00D+00  EDENS   =  0.00D+00  THRDEDEF=  1.00D-06  GRADIENT=  1.00D-02  STEP    =  1.00D-03
 ORBITAL =  1.00D-10  CIVEC   =  1.00D-05  COEFF   =  1.00D-04  PRINTCI =  5.00D-02  PUNCHCI =  9.90D+01  OPTGRAD =  3.00D-04
 OPTENERG=  1.00D-06  OPTSTEP =  3.00D-04  THRGRAD =  1.00D-10  COMPRESS=  1.00D-11  VARMIN  =  1.00D-07  VARMAX  =  1.00D-03
 THRDOUB =  0.00D+00  THRDIV  =  1.00D-05  THRRED  =  1.00D-07  THRPSP  =  1.00D+00  THRDC   =  1.00D-10  THRCS   =  1.00D-10
 THRNRM  =  1.00D-08  THREQ   =  0.00D+00  THRDE   =  1.00D+00  THRREF  =  1.00D-05  SPARFAC =  1.00D+00  THRDLP  =  1.00D-07
 THRDIA  =  1.00D-10  THRDLS  =  1.00D-07  THRGPS  =  0.00D+00  THRKEX  =  0.00D+00  THRDIS  =  2.00D-01  THRVAR  =  1.00D-10
 THRLOC  =  1.00D-06  THRGAP  =  1.00D-06  THRLOCT = -1.00D+00  THRGAPT = -1.00D+00  THRORB  =  1.00D-06  THRMLTP =  0.00D+00
 THRCPQCI=  1.00D-10  KEXTA   =  0.00D+00  THRCOARS=  0.00D+00  SYMTOL  =  1.00D-06  GRADTOL =  1.00D-06  THROVL  =  1.00D-08
 THRORTH =  1.00D-08  GRID    =  1.00D-08  GRIDMAX =  1.00D-03  DTMAX   =  0.00D+00  THROCCDE=  1.00D-01  THROCCDE=  1.00D-01
 THRPRINT=  2.50D-01


 Variable memory set to 2000000000 words,  buffer space 

 ZSYMEL=NOSYM
 ZUNIT=ANG


Geometry recognized as XYZ

 SETTING NKERNA         =         1.00000000                                  
 SETTING NKERNB         =         1.00000000                                  
 SETTING GF             =     0.00000000D+00                                  
 SETTING SING           =         1.00000000                                  
 SETTING THRDUM         =     1.00000000D-04                                  
 SETTING GRIDTHR        =     1.00000000D-08                                  
 SETTING BASIS          =    AVTZ


 Recomputing integrals since basis changed


 Using spherical harmonics

 Library entry O      S aug-cc-pVTZ          selected for orbital group  1
 Library entry O      P aug-cc-pVTZ          selected for orbital group  1
 Library entry O      D aug-cc-pVTZ          selected for orbital group  1
 Library entry O      F aug-cc-pVTZ          selected for orbital group  1
 Library entry H      S aug-cc-pVTZ          selected for orbital group  2
 Library entry H      P aug-cc-pVTZ          selected for orbital group  2
 Library entry H      D aug-cc-pVTZ          selected for orbital group  2
 Library entry C      S aug-cc-pVTZ          selected for orbital group  3
 Library entry C      P aug-cc-pVTZ          selected for orbital group  3
 Library entry C      D aug-cc-pVTZ          selected for orbital group  3
 Library entry C      F aug-cc-pVTZ          selected for orbital group  3


 PROGRAM * SEWARD (Integral evaluation for generally contracted gaussian basis sets)     Author: Roland Lindh, 1990

 Geometry written to block  1 of record 700


 Point group  C1  



 ATOMIC COORDINATES

 NR  ATOM    CHARGE       X              Y              Z

   1  O14     8.00   -8.257347274    8.608080443   -1.772185160
   2  H27     1.00   -8.759447505   10.077153532   -2.731599113
   3  H28     1.00   -9.852276123    7.752790399   -1.314682465
   4  C1      6.00   -6.193010455    2.801518980    2.403542658
   5  H41     1.00   -4.656285171    1.699997622    3.119937832
   6  H42     1.00   -5.973046335    4.726205038    2.982932688
   7  H43     1.00   -7.940251230    2.077186956    3.118237078
   8  H44     1.00   -6.176569838    2.685300823    0.384937212

 Bond lengths in Bohr (Angstrom)

 1-2  1.825035758  1-3  1.866715781  4-5  2.021904040  4-6  2.022002335  4-7  2.021953343
     ( 0.965767332)     ( 0.987823451)     ( 1.069945541)     ( 1.069997556)     ( 1.069971630)

 4-8  2.022015060
     ( 1.070004290)

 Bond angles

  2-1-3  105.22390814   5-4-6  109.53398059   5-4-7  109.65604535   5-4-8  108.43490854

  6-4-7  109.49436728   6-4-8  109.86987750   7-4-8  109.83468330

 NUCLEAR CHARGE:                   20
 NUMBER OF PRIMITIVE AOS:         296
 NUMBER OF SYMMETRY AOS:          266
 NUMBER OF CONTRACTIONS:          230   (  230A   )
 NUMBER OF CORE ORBITALS:           2   (    2A   )
 NUMBER OF VALENCE ORBITALS:       14   (   14A   )


 NUCLEAR REPULSION ENERGY   35.88393783


 Basis set:  JKFIT                   
 Basis size:   740
 Attributes:
 Sphericals:   T
 Basis set:  MP2FIT                  
 Basis size:   816
 Attributes:
 Sphericals:   T
 Basis set:  RI                      
 Basis size:   556
 Attributes:
 Sphericals:   T
 Basis set:  TDDFT                   
 Basis size:   816
 Attributes:
 Sphericals:   T

 **********************************************************************************************************************************


 Eigenvalues of metric

         1 0.697E-04 0.704E-04 0.990E-04 0.106E-03 0.329E-03 0.357E-03 0.697E-03 0.787E-03


 Contracted 2-electron integrals neglected if value below      1.0D-14
 AO integral compression algorithm  1   Integral accuracy      1.0D-14

     2109.473 MB (compressed) written to integral file ( 65.8%)

     Node minimum: 483.656 MB, node maximum: 553.648 MB


 NUMBER OF SORTED TWO-ELECTRON INTEGRALS:   88219044.     BUFFER LENGTH:  32768
 NUMBER OF SEGMENTS:   6  SEGMENT LENGTH:   15998348      RECORD LENGTH: 524288

 Memory used in sort:      16.56 MW

 SORT1 READ   400769927. AND WROTE    79972028. INTEGRALS IN    232 RECORDS. CPU TIME:     8.09 SEC, REAL TIME:     9.03 SEC
 SORT2 READ   320224926. AND WROTE   352862895. INTEGRALS IN   8008 RECORDS. CPU TIME:     1.98 SEC, REAL TIME:     2.76 SEC

 Node minimum:    88205762.  Node maximum:    88225686. integrals

 OPERATOR DM      FOR CENTER  0  COORDINATES:    0.000000    0.000000    0.000000


 **********************************************************************************************************************************
 DATASETS  * FILE   NREC   LENGTH (MB)   RECORD NAMES
              1      18       32.04       500      610      700      900      950      970     1000      129      960     1100   
                                          VAR    BASINP    GEOM    SYMINP    ZMAT    AOBASIS   BASIS     P2S    ABASIS      S 
                                         1400     1410     1200     1210     1080     1600     1650     1700   
                                           T        V       H0       H01     AOSYM     SMH    MOLCAS    OPER   

 PROGRAMS   *        TOTAL       INT
 CPU TIMES  *        14.76     14.56
 REAL TIME  *        20.17 SEC
 DISK USED  *        32.49 MB (local),        6.04 GB (total)
 GA USED    *         0.00 MB       (max)       0.00 MB       (current)
 **********************************************************************************************************************************


 PROGRAM * RHF-SCF (CLOSED SHELL)       Authors: W. Meyer, H.-J. Werner


 NUMBER OF ELECTRONS:      10+   10-    SPACE SYMMETRY=1    SPIN SYMMETRY: Singlet 
 CONVERGENCE THRESHOLDS:    1.00E-08 (Density)    1.00E-11 (Energy)
 MAX. NUMBER OF ITERATIONS:       60
 INTERPOLATION TYPE:            DIIS
 INTERPOLATION STEPS:              2 (START)      1 (STEP)
 LEVEL SHIFTS:                  0.00 (CLOSED)  0.00 (OPEN) 



 Orbital guess generated from atomic densities. Full valence occupancy:   16

 Molecular orbital dump at record        2100.2

 Initial occupancy:  10

 ITERATION    DDIFF          GRAD             ENERGY        2-EL.EN.            DIPOLE MOMENTS         DIIS   ORB.
    1      0.000D+00      0.000D+00      -116.21379232    157.486117   -1.07382    0.30749   -0.25606    0    start
    2      0.000D+00      0.523D-02      -116.25756211    152.465918   -0.60279    0.22086   -0.17496    1    diag
    3      0.549D-02      0.307D-02      -116.27096726    154.531508   -0.72199    0.24541   -0.19656    2    diag
    4      0.182D-02      0.451D-03      -116.27161163    154.419515   -0.71164    0.24337   -0.19456    3    diag
    5      0.398D-03      0.132D-03      -116.27167751    154.413903   -0.71113    0.24410   -0.19489    4    diag
    6      0.140D-03      0.322D-04      -116.27168121    154.419694   -0.71031    0.24409   -0.19483    5    diag
    7      0.384D-04      0.620D-05      -116.27168142    154.418189   -0.71031    0.24413   -0.19485    6    diag
    8      0.103D-04      0.156D-05      -116.27168144    154.418324   -0.71024    0.24413   -0.19485    7    diag
    9      0.210D-05      0.353D-06      -116.27168144    154.418299   -0.71022    0.24413   -0.19484    8    diag
   10      0.707D-06      0.406D-07      -116.27168144    154.418300   -0.71021    0.24413   -0.19484    9    orth
   11      0.569D-07      0.992D-08      -116.27168144    154.418301   -0.71021    0.24413   -0.19484    9    diag
   12      0.223D-07      0.254D-08      -116.27168144    154.418301   -0.71021    0.24413   -0.19484    9    diag
   13      0.386D-08      0.677D-09      -116.27168144    154.418301   -0.71021    0.24413   -0.19484    0    orth

 Final occupancy:  10

 !RHF STATE  1.1 Energy              -116.271681441406
 Nuclear energy                        35.88393783
 One-electron energy                 -229.36476992
 Two-electron energy                   77.20915065
 Virial quotient                       -1.00105054
 !RHF STATE  1.1 Dipole moment         -0.71021365     0.24412948    -0.19484444
 Dipole moment /Debye                  -1.80506482     0.62047460    -0.49521273

 Orbital energies:

         1.1          2.1          3.1          4.1          5.1          6.1          7.1          8.1          9.1         10.1
    -20.570249   -11.190203    -1.343384    -0.943902    -0.708650    -0.580060    -0.545192    -0.542636    -0.540368    -0.508590

        11.1         12.1
      0.027187     0.039816


 HOMO     10.1    -0.508590 =     -13.8394eV
 LUMO     11.1     0.027187 =       0.7398eV
 LUMO-HOMO         0.535777 =      14.5792eV


 **********************************************************************************************************************************
 DATASETS  * FILE   NREC   LENGTH (MB)   RECORD NAMES
              1      18       32.04       500      610      700      900      950      970     1000      129      960     1100   
                                          VAR    BASINP    GEOM    SYMINP    ZMAT    AOBASIS   BASIS     P2S    ABASIS      S 
                                         1400     1410     1200     1210     1080     1600     1650     1700   
                                           T        V       H0       H01     AOSYM     SMH    MOLCAS    OPER   

              2       4        3.96       700     1000      520     2100   
                                         GEOM     BASIS   MCVARS     RHF  

 PROGRAMS   *        TOTAL    HF-SCF       INT
 CPU TIMES  *        28.61     13.85     14.56
 REAL TIME  *        35.16 SEC
 DISK USED  *        39.90 MB (local),        6.07 GB (total)
 SF USED    *         0.21 MB
 GA USED    *         0.00 MB       (max)       0.00 MB       (current)
 **********************************************************************************************************************************

 Basis set:  JKFIT                   
 Basis size:   740
 Attributes:
 Sphericals:   T
 Basis set:  MP2FIT                  
 Basis size:   816
 Attributes:
 Sphericals:   T
 Basis set:  RI                      
 Basis size:   556
 Attributes:
 Sphericals:   T
 Basis set:  TDDFT                   
 Basis size:   816
 Attributes:
 Sphericals:   T

 PROGRAM * CCSD (Closed-shell coupled cluster)     Authors: C. Hampel, H.-J. Werner, 1991, M. Deegan, P.J. Knowles, 1992


 Convergence thresholds:  THRVAR = 1.00D-08  THRDEN = 1.00D-10

 CCSD(T)     terms to be evaluated (factor= 1.000)


 Number of core orbitals:           2 (   2 )
 Number of closed-shell orbitals:   8 (   8 )
 Number of external orbitals:     220 ( 220 )

 Molecular orbitals read from record     2100.2  Type=RHF/CANONICAL (state 1.1)

 Number of N-1 electron functions:               8
 Number of N-2 electron functions:              36
 Number of singly external CSFs:              1760
 Number of doubly external CSFs:           1549680
 Total number of CSFs:                     1551441

 Length of J-op  integral file:               0.00 MB
 Length of K-op  integral file:               3.65 MB
 Length of 3-ext integral record:             0.00 MB

 Memory could be reduced to 116.39 Mwords without degradation in triples

 Integral transformation finished. Total CPU:  26.42 sec, npass=  1  Memory used:  59.35 MW

 Reference energy:                   -116.27168144

 MP2 singlet pair energy:              -0.31726952
 MP2 triplet pair energy:              -0.15367888
 MP2 correlation energy:               -0.47094840
 MP2 total energy:                   -116.74262984

 SCS-MP2 correlation energy:           -0.47634584   (PS=  1.200000  PT=  0.333333)
 SCS-MP2 total energy:               -116.74802728

 ITER.      SQ.NORM     CORR.ENERGY   TOTAL ENERGY   ENERGY CHANGE        DEN1      VAR(S)    VAR(P)  DIIS     TIME  TIME/IT
   1      1.13530460    -0.49360571  -116.76528715    -0.02265731    -0.01145121  0.14D-02  0.20D-02  1  1    40.67    14.22
   2      1.14434272    -0.49501710  -116.76669854    -0.00141139    -0.01035134  0.23D-04  0.24D-03  2  2    55.62    14.70
   3      1.14733933    -0.49514951  -116.76683095    -0.00013241    -0.00196801  0.14D-04  0.11D-04  3  3    69.97    14.67
   4      1.14814471    -0.49515103  -116.76683247    -0.00000152    -0.00036215  0.58D-06  0.11D-05  4  4    84.27    14.66
   5      1.14830018    -0.49514825  -116.76682969     0.00000278    -0.00004950  0.19D-06  0.75D-07  5  5    98.67    14.64
   6      1.14834735    -0.49514368  -116.76682512     0.00000457    -0.00001170  0.16D-07  0.47D-08  6  6   113.15    14.65
   7      1.14835534    -0.49514312  -116.76682456     0.00000055    -0.00000071  0.12D-08  0.75D-09  6  2   127.63    14.65
   8      1.14835704    -0.49514299  -116.76682443     0.00000014     0.00000000  0.21D-09  0.73D-10  6  1   142.08    14.65
   9      1.14835774    -0.49514293  -116.76682437     0.00000006     0.00000000  0.17D-10  0.10D-10  6  3   156.53    14.65
  10      1.14835775    -0.49514293  -116.76682437    -0.00000000     0.00000007  0.41D-11  0.24D-11  6  1   170.97    14.65
  11      1.14835778    -0.49514293  -116.76682437     0.00000000     0.00000003  0.43D-12  0.16D-12  6  5   185.42    14.65
  12      1.14835779    -0.49514293  -116.76682437     0.00000000    -0.00000000  0.84D-13  0.28D-13  6  4   199.77    14.65
  13      1.14835779    -0.49514293  -116.76682437    -0.00000000    -0.00000000  0.12D-13  0.45D-14  6  2   214.15    14.64
  14      1.14835779    -0.49514293  -116.76682437     0.00000000    -0.00000000  0.12D-14  0.70D-15  6  6   228.56    14.64
  15      1.14835779    -0.49514293  -116.76682437     0.00000000     0.00000000  0.17D-15  0.92D-16  6  3   242.96    14.64
  16      1.14835779    -0.49514293  -116.76682437    -0.00000000     0.00000000  0.19D-16  0.14D-16  6  1   257.41    14.65

 Norm of t1 vector:      0.05105042      S-energy:     0.00000000      T1 diagnostic:  0.00902452
                                                                       D1 diagnostic:  0.02211893


 Total CPU time for triples:    218.21 sec


 RESULTS
 =======

  Reference energy                   -116.271681441405
  CCSD singlet pair energy             -0.354318719959
  CCSD triplet pair energy             -0.140824211072
  CCSD correlation energy              -0.495142930948

  Triples (T) contribution             -0.015329862293
  Total correlation energy             -0.510472793240

  CCSD total energy                  -116.766824372352
  CCSD[T] energy                     -116.782676621364
  CCSD-T energy                      -116.781903358586
 !CCSD(T) total energy               -116.782154234645

 Timing summary (sec):

 STEP                 CPU(USER)    SYS     CPU(TOT)    WALL
 Transformation         26.60      1.14     27.74     28.30
 CCSD iterations       230.83      3.25    234.08    234.40
 Triples               218.21      1.10    219.31    219.76

 Program statistics:

 Available memory in ccsd:              1999999734
 Min. memory needed in ccsd:               4617529
 Max. memory used in ccsd:                 5944569
 Max. memory used in cckext:               4248553 (16 integral passes)



 **********************************************************************************************************************************
 DATASETS  * FILE   NREC   LENGTH (MB)   RECORD NAMES
              1      19      398.13       500      610      700      900      950      970     1000      129      960     1100   
                                          VAR    BASINP    GEOM    SYMINP    ZMAT    AOBASIS   BASIS     P2S    ABASIS      S 
                                         1400     1410     1200     1210     1080     1600     1650     1700     1380   
                                           T        V       H0       H01     AOSYM     SMH    MOLCAS    OPER     JKOP   

              2       4        3.96       700     1000      520     2100   
                                         GEOM     BASIS   MCVARS     RHF  

 PROGRAMS   *        TOTAL   CCSD(T)    HF-SCF       INT
 CPU TIMES  *       504.48    475.87     13.85     14.56
 REAL TIME  *       518.47 SEC
 DISK USED  *       570.36 MB (local),        7.69 GB (total)
 SF USED    *       504.31 MB
 GA USED    *         0.00 MB       (max)       0.00 MB       (current)
 **********************************************************************************************************************************

 Running procedure: SET_MONOMER1

 Dummy atoms: C1  H41  H42  H43  H44


 Recomputing one-electron integrals since nuclear charges changed


 PROGRAM * SEWARD (Integral evaluation for generally contracted gaussian basis sets)     Author: Roland Lindh, 1990

 Geometry written to block  1 of record 700


 Point group  C1  



 ATOMIC COORDINATES

 NR  ATOM    CHARGE       X              Y              Z

   1  O14     8.00   -8.257347274    8.608080443   -1.772185160
   2  H27     1.00   -8.759447505   10.077153532   -2.731599113
   3  H28     1.00   -9.852276123    7.752790399   -1.314682465
   4  C1      0.00   -6.193010455    2.801518980    2.403542658
   5  H41     0.00   -4.656285171    1.699997622    3.119937832
   6  H42     0.00   -5.973046335    4.726205038    2.982932688
   7  H43     0.00   -7.940251230    2.077186956    3.118237078
   8  H44     0.00   -6.176569838    2.685300823    0.384937212

 Bond lengths in Bohr (Angstrom)

 1-2  1.825035758  1-3  1.866715781  4-5  2.021904040  4-6  2.022002335  4-7  2.021953343
     ( 0.965767332)     ( 0.987823451)     ( 1.069945541)     ( 1.069997556)     ( 1.069971630)

 4-8  2.022015060
     ( 1.070004290)

 Bond angles

  2-1-3  105.22390814   5-4-6  109.53398059   5-4-7  109.65604535   5-4-8  108.43490854

  6-4-7  109.49436728   6-4-8  109.86987750   7-4-8  109.83468330

 NUCLEAR CHARGE:                   10
 NUMBER OF PRIMITIVE AOS:         296
 NUMBER OF SYMMETRY AOS:          266
 NUMBER OF CONTRACTIONS:          230   (  230A   )
 NUMBER OF CORE ORBITALS:           1   (    1A   )
 NUMBER OF VALENCE ORBITALS:        6   (    6A   )

 MOLECULE CHANGED: INITIALIZING OCCUPATION AND DUMP RECORDS


 NUCLEAR REPULSION ENERGY    9.00998347

 Basis set:  JKFIT                   
 Basis size:   740
 Attributes:
 Sphericals:   T
 Basis set:  MP2FIT                  
 Basis size:   816
 Attributes:
 Sphericals:   T
 Basis set:  RI                      
 Basis size:   556
 Attributes:
 Sphericals:   T
 Basis set:  TDDFT                   
 Basis size:   816
 Attributes:
 Sphericals:   T

 Eigenvalues of metric

         1 0.697E-04 0.704E-04 0.990E-04 0.106E-03 0.329E-03 0.357E-03 0.697E-03 0.787E-03


 Contracted 2-electron integrals neglected if value below      1.0D-14

 OPERATOR DM      FOR CENTER  0  COORDINATES:    0.000000    0.000000    0.000000


 **********************************************************************************************************************************
 DATASETS  * FILE   NREC   LENGTH (MB)   RECORD NAMES
              1      18       32.04       500      610      700      900      950      970     1000      129      960     1100   
                                          VAR    BASINP    GEOM    SYMINP    ZMAT    AOBASIS   BASIS     P2S    ABASIS      S 
                                         1400     1410     1200     1210     1080     1600     1650     1700   
                                           T        V       H0       H01     AOSYM     SMH    MOLCAS    OPER   

              2       5        5.05       700     1000      520     2100      200   
                                         GEOM     BASIS   MCVARS     RHF    OPTIONS    

 PROGRAMS   *        TOTAL       INT   CCSD(T)    HF-SCF       INT
 CPU TIMES  *       504.71      0.22    475.87     13.85     14.56
 REAL TIME  *       519.21 SEC
 DISK USED  *       570.36 MB (local),        7.69 GB (total)
 SF USED    *       504.31 MB
 GA USED    *         0.00 MB       (max)       0.00 MB       (current)
 **********************************************************************************************************************************


 PROGRAM * RHF-SCF (CLOSED SHELL)       Authors: W. Meyer, H.-J. Werner


 NUMBER OF ELECTRONS:       5+    5-    SPACE SYMMETRY=1    SPIN SYMMETRY: Singlet 
 CONVERGENCE THRESHOLDS:    1.00E-08 (Density)    1.00E-11 (Energy)
 MAX. NUMBER OF ITERATIONS:       60
 INTERPOLATION TYPE:            DIIS
 INTERPOLATION STEPS:              2 (START)      1 (STEP)
 LEVEL SHIFTS:                  0.00 (CLOSED)  0.00 (OPEN) 



 Orbital guess generated from atomic densities. Full valence occupancy:    7

 Molecular orbital dump at record        2101.2

 Initial occupancy:   5

 ITERATION    DDIFF          GRAD             ENERGY        2-EL.EN.            DIPOLE MOMENTS         DIIS   ORB.
    1      0.000D+00      0.000D+00       -76.02021489     77.394228   -1.07797    0.30890   -0.25381    0    start
    2      0.000D+00      0.640D-02       -76.04687127     73.768137   -0.62531    0.18533   -0.15113    1    diag
    3      0.443D-02      0.407D-02       -76.05820883     75.370564   -0.73698    0.21712   -0.17729    2    diag
    4      0.160D-02      0.376D-03       -76.05839962     75.281219   -0.73226    0.21698   -0.17695    3    diag
    5      0.205D-03      0.104D-03       -76.05841960     75.295321   -0.73046    0.21695   -0.17684    4    diag
    6      0.634D-04      0.204D-04       -76.05842084     75.294450   -0.73010    0.21701   -0.17685    5    diag
    7      0.157D-04      0.403D-05       -76.05842089     75.294577   -0.72996    0.21701   -0.17685    6    diag
    8      0.409D-05      0.744D-06       -76.05842090     75.294561   -0.72993    0.21701   -0.17684    7    diag
    9      0.693D-06      0.949D-07       -76.05842090     75.294552   -0.72992    0.21701   -0.17684    8    diag
   10      0.842D-07      0.238D-07       -76.05842090     75.294556   -0.72992    0.21701   -0.17684    9    orth
   11      0.219D-07      0.495D-08       -76.05842090     75.294555   -0.72992    0.21701   -0.17684    9    diag
   12      0.532D-08      0.932D-09       -76.05842090     75.294555   -0.72992    0.21701   -0.17684    0    orth

 Final occupancy:   5

 !RHF STATE  1.1 Energy               -76.058420895923
 Nuclear energy                         9.00998347
 One-electron energy                 -122.71568198
 Two-electron energy                   37.64727762
 Virial quotient                       -1.00231307
 !RHF STATE  1.1 Dipole moment         -0.72992068     0.21700805    -0.17684063
 Dipole moment /Debye                  -1.85515180     0.55154331    -0.44945462

 Orbital energies:

         1.1          2.1          3.1          4.1          5.1          6.1          7.1
    -20.570260    -1.343343    -0.708611    -0.579777    -0.508573     0.023642     0.036024


 HOMO      5.1    -0.508573 =     -13.8390eV
 LUMO      6.1     0.023642 =       0.6433eV
 LUMO-HOMO         0.532214 =      14.4823eV


 **********************************************************************************************************************************
 DATASETS  * FILE   NREC   LENGTH (MB)   RECORD NAMES
              1      18       32.04       500      610      700      900      950      970     1000      129      960     1100   
                                          VAR    BASINP    GEOM    SYMINP    ZMAT    AOBASIS   BASIS     P2S    ABASIS      S 
                                         1400     1410     1200     1210     1080     1600     1650     1700   
                                           T        V       H0       H01     AOSYM     SMH    MOLCAS    OPER   

              2       6        9.09       700     1000      520     2100      200     2101   
                                         GEOM     BASIS   MCVARS     RHF    OPTIONS    RHF  

 PROGRAMS   *        TOTAL    HF-SCF       INT   CCSD(T)    HF-SCF       INT
 CPU TIMES  *       517.43     12.72      0.22    475.87     13.85     14.56
 REAL TIME  *       533.36 SEC
 DISK USED  *       570.36 MB (local),        7.69 GB (total)
 SF USED    *       504.31 MB
 GA USED    *         0.00 MB       (max)       0.00 MB       (current)
 **********************************************************************************************************************************

 Basis set:  JKFIT                   
 Basis size:   740
 Attributes:
 Sphericals:   T
 Basis set:  MP2FIT                  
 Basis size:   816
 Attributes:
 Sphericals:   T
 Basis set:  RI                      
 Basis size:   556
 Attributes:
 Sphericals:   T
 Basis set:  TDDFT                   
 Basis size:   816
 Attributes:
 Sphericals:   T

 PROGRAM * CCSD (Closed-shell coupled cluster)     Authors: C. Hampel, H.-J. Werner, 1991, M. Deegan, P.J. Knowles, 1992


 Convergence thresholds:  THRVAR = 1.00D-08  THRDEN = 1.00D-10

 CCSD(T)     terms to be evaluated (factor= 1.000)


 Number of core orbitals:           1 (   1 )
 Number of closed-shell orbitals:   4 (   4 )
 Number of external orbitals:     225 ( 225 )

 Molecular orbitals read from record     2101.2  Type=RHF/CANONICAL (state 1.1)

 Number of N-1 electron functions:               4
 Number of N-2 electron functions:              10
 Number of singly external CSFs:               900
 Number of doubly external CSFs:            405450
 Total number of CSFs:                      406351

 Length of J-op  integral file:               0.00 MB
 Length of K-op  integral file:               3.65 MB
 Length of 3-ext integral record:             0.00 MB

 Memory could be reduced to 75.63 Mwords without degradation in triples

 Integral transformation finished. Total CPU:  12.16 sec, npass=  1  Memory used:  32.52 MW

 Reference energy:                    -76.05842090

 MP2 singlet pair energy:              -0.17170059
 MP2 triplet pair energy:              -0.09822827
 MP2 correlation energy:               -0.26992886
 MP2 total energy:                    -76.32834975

 SCS-MP2 correlation energy:           -0.26716052   (PS=  1.200000  PT=  0.333333)
 SCS-MP2 total energy:                -76.32558142

 ITER.      SQ.NORM     CORR.ENERGY   TOTAL ENERGY   ENERGY CHANGE        DEN1      VAR(S)    VAR(P)  DIIS     TIME  TIME/IT
   1      1.06410444    -0.27407907   -76.33249996    -0.00415021     0.00159441  0.93D-03  0.10D-02  1  1    15.84     3.87
   2      1.06795513    -0.27438778   -76.33280867    -0.00030871    -0.00492718  0.12D-04  0.13D-03  2  2    19.82     3.99
   3      1.06941026    -0.27447233   -76.33289322    -0.00008455    -0.00093743  0.11D-04  0.58D-05  3  3    23.59     3.96
   4      1.06988787    -0.27446577   -76.33288667     0.00000655    -0.00021946  0.49D-06  0.69D-06  4  4    27.43     3.96
   5      1.06999255    -0.27446283   -76.33288373     0.00000295    -0.00003247  0.16D-06  0.43D-07  5  5    31.30     3.96
   6      1.07002934    -0.27445928   -76.33288018     0.00000354    -0.00000759  0.12D-07  0.28D-08  6  6    35.09     3.96
   7      1.07003590    -0.27445903   -76.33287993     0.00000025    -0.00000073  0.91D-09  0.50D-09  6  1    38.93     3.96
   8      1.07003702    -0.27445900   -76.33287989     0.00000003     0.00000031  0.14D-09  0.56D-10  6  2    42.80     3.96
   9      1.07003754    -0.27445895   -76.33287984     0.00000005     0.00000002  0.12D-10  0.60D-11  6  3    46.67     3.96
  10      1.07003764    -0.27445894   -76.33287984     0.00000001     0.00000001  0.24D-11  0.81D-12  6  4    50.60     3.97
  11      1.07003760    -0.27445895   -76.33287984    -0.00000001     0.00000003  0.44D-12  0.15D-12  6  6    54.44     3.96
  12      1.07003760    -0.27445895   -76.33287984    -0.00000000     0.00000001  0.65D-13  0.21D-13  6  5    58.16     3.96
  13      1.07003759    -0.27445895   -76.33287985    -0.00000000     0.00000000  0.87D-14  0.32D-14  6  1    61.97     3.96
  14      1.07003759    -0.27445895   -76.33287985    -0.00000000     0.00000000  0.10D-14  0.61D-15  6  2    65.77     3.96
  15      1.07003758    -0.27445895   -76.33287985     0.00000000    -0.00000000  0.90D-16  0.67D-16  6  3    69.60     3.95
  16      1.07003758    -0.27445895   -76.33287985    -0.00000000    -0.00000000  0.12D-16  0.86D-17  6  4    73.41     3.95

 Norm of t1 vector:      0.04120599      S-energy:    -0.00000000      T1 diagnostic:  0.01030150
                                                                       D1 diagnostic:  0.02190714


 Total CPU time for triples:     34.12 sec


 RESULTS
 =======

  Reference energy                    -76.058420895924
  CCSD singlet pair energy             -0.187520106995
  CCSD triplet pair energy             -0.086938842520
  CCSD correlation energy              -0.274458949530

  Triples (T) contribution             -0.008825334439
  Total correlation energy             -0.283284283969

  CCSD total energy                   -76.332879845453
  CCSD[T] energy                      -76.342041312730
  CCSD-T energy                       -76.341524209943
 !CCSD(T) total energy                -76.341705179893

 Timing summary (sec):

 STEP                 CPU(USER)    SYS     CPU(TOT)    WALL
 Transformation         12.23      0.36     12.59     12.60
 CCSD iterations        61.20      1.88     63.08     63.27
 Triples                34.12      0.24     34.36     34.46

 Program statistics:

 Available memory in ccsd:              1999999921
 Min. memory needed in ccsd:               1865022
 Max. memory used in ccsd:                 2159652
 Max. memory used in cckext:               1451153 (16 integral passes)



 **********************************************************************************************************************************
 DATASETS  * FILE   NREC   LENGTH (MB)   RECORD NAMES
              1      19      222.33       500      610      700      900      950      970     1000      129      960     1100   
                                          VAR    BASINP    GEOM    SYMINP    ZMAT    AOBASIS   BASIS     P2S    ABASIS      S 
                                         1400     1410     1200     1210     1080     1600     1650     1700     1380   
                                           T        V       H0       H01     AOSYM     SMH    MOLCAS    OPER     JKOP   

              2       6        9.09       700     1000      520     2100      200     2101   
                                         GEOM     BASIS   MCVARS     RHF    OPTIONS    RHF  

 PROGRAMS   *        TOTAL   CCSD(T)    HF-SCF       INT   CCSD(T)    HF-SCF       INT
 CPU TIMES  *       625.22    107.79     12.72      0.22    475.87     13.85     14.56
 REAL TIME  *       644.41 SEC
 DISK USED  *       570.36 MB (local),        7.69 GB (total)
 SF USED    *       504.31 MB
 GA USED    *         0.00 MB       (max)       0.00 MB       (current)
 **********************************************************************************************************************************

 Running procedure: SET_MONOMER2

 Dummy atoms: O14  H27  H28


 Recomputing one-electron integrals since nuclear charges changed


 PROGRAM * SEWARD (Integral evaluation for generally contracted gaussian basis sets)     Author: Roland Lindh, 1990

 Geometry written to block  1 of record 700


 Point group  C1  



 ATOMIC COORDINATES

 NR  ATOM    CHARGE       X              Y              Z

   1  O14     0.00   -8.257347274    8.608080443   -1.772185160
   2  H27     0.00   -8.759447505   10.077153532   -2.731599113
   3  H28     0.00   -9.852276123    7.752790399   -1.314682465
   4  C1      6.00   -6.193010455    2.801518980    2.403542658
   5  H41     1.00   -4.656285171    1.699997622    3.119937832
   6  H42     1.00   -5.973046335    4.726205038    2.982932688
   7  H43     1.00   -7.940251230    2.077186956    3.118237078
   8  H44     1.00   -6.176569838    2.685300823    0.384937212

 Bond lengths in Bohr (Angstrom)

 1-2  1.825035758  1-3  1.866715781  4-5  2.021904040  4-6  2.022002335  4-7  2.021953343
     ( 0.965767332)     ( 0.987823451)     ( 1.069945541)     ( 1.069997556)     ( 1.069971630)

 4-8  2.022015060
     ( 1.070004290)

 Bond angles

  2-1-3  105.22390814   5-4-6  109.53398059   5-4-7  109.65604535   5-4-8  108.43490854

  6-4-7  109.49436728   6-4-8  109.86987750   7-4-8  109.83468330

 NUCLEAR CHARGE:                   10
 NUMBER OF PRIMITIVE AOS:         296
 NUMBER OF SYMMETRY AOS:          266
 NUMBER OF CONTRACTIONS:          230   (  230A   )
 NUMBER OF CORE ORBITALS:           1   (    1A   )
 NUMBER OF VALENCE ORBITALS:        8   (    8A   )

 MOLECULE CHANGED: INITIALIZING OCCUPATION AND DUMP RECORDS


 NUCLEAR REPULSION ENERGY   13.68681606

 Basis set:  JKFIT                   
 Basis size:   740
 Attributes:
 Sphericals:   T
 Basis set:  MP2FIT                  
 Basis size:   816
 Attributes:
 Sphericals:   T
 Basis set:  RI                      
 Basis size:   556
 Attributes:
 Sphericals:   T
 Basis set:  TDDFT                   
 Basis size:   816
 Attributes:
 Sphericals:   T

 Eigenvalues of metric

         1 0.697E-04 0.704E-04 0.990E-04 0.106E-03 0.329E-03 0.357E-03 0.697E-03 0.787E-03


 Contracted 2-electron integrals neglected if value below      1.0D-14

 OPERATOR DM      FOR CENTER  0  COORDINATES:    0.000000    0.000000    0.000000


 **********************************************************************************************************************************
 DATASETS  * FILE   NREC   LENGTH (MB)   RECORD NAMES
              1      18       32.04       500      610      700      900      950      970     1000      129      960     1100   
                                          VAR    BASINP    GEOM    SYMINP    ZMAT    AOBASIS   BASIS     P2S    ABASIS      S 
                                         1400     1410     1200     1210     1080     1600     1650     1700   
                                           T        V       H0       H01     AOSYM     SMH    MOLCAS    OPER   

              2       6        9.09       700     1000      520     2100      200     2101   
                                         GEOM     BASIS   MCVARS     RHF    OPTIONS    RHF  

 PROGRAMS   *        TOTAL       INT   CCSD(T)    HF-SCF       INT   CCSD(T)    HF-SCF       INT
 CPU TIMES  *       625.47      0.23    107.79     12.72      0.22    475.87     13.85     14.56
 REAL TIME  *       645.12 SEC
 DISK USED  *       570.36 MB (local),        7.69 GB (total)
 SF USED    *       504.31 MB
 GA USED    *         0.00 MB       (max)       0.00 MB       (current)
 **********************************************************************************************************************************


 PROGRAM * RHF-SCF (CLOSED SHELL)       Authors: W. Meyer, H.-J. Werner


 NUMBER OF ELECTRONS:       5+    5-    SPACE SYMMETRY=1    SPIN SYMMETRY: Singlet 
 CONVERGENCE THRESHOLDS:    1.00E-08 (Density)    1.00E-11 (Energy)
 MAX. NUMBER OF ITERATIONS:       60
 INTERPOLATION TYPE:            DIIS
 INTERPOLATION STEPS:              2 (START)      1 (STEP)
 LEVEL SHIFTS:                  0.00 (CLOSED)  0.00 (OPEN) 



 Orbital guess generated from atomic densities. Full valence occupancy:    9

 Molecular orbital dump at record        2102.2

 Initial occupancy:   5

 ITERATION    DDIFF          GRAD             ENERGY        2-EL.EN.            DIPOLE MOMENTS         DIIS   ORB.
    1      0.000D+00      0.000D+00       -40.19358678     53.494040    0.00411   -0.00277   -0.00129    0    start
    2      0.000D+00      0.353D-02       -40.21070388     52.213685    0.00128   -0.00089   -0.00037    1    diag
    3      0.323D-02      0.137D-02       -40.21295228     52.664855    0.00181   -0.00125   -0.00054    2    diag
    4      0.906D-03      0.342D-03       -40.21326772     52.609828    0.00161   -0.00111   -0.00048    3    diag
    5      0.296D-03      0.444D-04       -40.21327312     52.612167    0.00158   -0.00110   -0.00047    4    diag
    6      0.779D-04      0.344D-05       -40.21327315     52.612264    0.00158   -0.00110   -0.00047    5    diag
    7      0.658D-05      0.264D-06       -40.21327316     52.612230    0.00158   -0.00109   -0.00047    6    diag
    8      0.978D-06      0.221D-07       -40.21327316     52.612230    0.00158   -0.00109   -0.00047    7    diag
    9      0.190D-06      0.287D-08       -40.21327316     52.612230    0.00158   -0.00109   -0.00047    8    diag
   10      0.113D-07      0.804D-09       -40.21327316     52.612230    0.00158   -0.00109   -0.00047    9    orth
   11      0.118D-08      0.107D-09       -40.21327316     52.612230    0.00158   -0.00109   -0.00047    0    orth

 Final occupancy:   5

 !RHF STATE  1.1 Energy               -40.213273155125
 Nuclear energy                        13.68681606
 One-electron energy                  -80.20620437
 Two-electron energy                   26.30611516
 Virial quotient                       -0.99870149
 !RHF STATE  1.1 Dipole moment          0.00157849    -0.00109404    -0.00046555
 Dipole moment /Debye                   0.00401186    -0.00278059    -0.00118324

 Orbital energies:

         1.1          2.1          3.1          4.1          5.1          6.1          7.1
    -11.197208    -0.950742    -0.551696    -0.549760    -0.547581     0.026374     0.039385


 HOMO      5.1    -0.547581 =     -14.9004eV
 LUMO      6.1     0.026374 =       0.7177eV
 LUMO-HOMO         0.573956 =      15.6181eV


 **********************************************************************************************************************************
 DATASETS  * FILE   NREC   LENGTH (MB)   RECORD NAMES
              1      18       32.04       500      610      700      900      950      970     1000      129      960     1100   
                                          VAR    BASINP    GEOM    SYMINP    ZMAT    AOBASIS   BASIS     P2S    ABASIS      S 
                                         1400     1410     1200     1210     1080     1600     1650     1700   
                                           T        V       H0       H01     AOSYM     SMH    MOLCAS    OPER   

              2       7       13.71       700     1000      520     2100      200     2101     2102   
                                         GEOM     BASIS   MCVARS     RHF    OPTIONS    RHF      RHF  

 PROGRAMS   *        TOTAL    HF-SCF       INT   CCSD(T)    HF-SCF       INT   CCSD(T)    HF-SCF       INT
 CPU TIMES  *       637.53     12.05      0.23    107.79     12.72      0.22    475.87     13.85     14.56
 REAL TIME  *       658.09 SEC
 DISK USED  *       570.36 MB (local),        7.69 GB (total)
 SF USED    *       504.31 MB
 GA USED    *         0.00 MB       (max)       0.00 MB       (current)
 **********************************************************************************************************************************

 Basis set:  JKFIT                   
 Basis size:   740
 Attributes:
 Sphericals:   T
 Basis set:  MP2FIT                  
 Basis size:   816
 Attributes:
 Sphericals:   T
 Basis set:  RI                      
 Basis size:   556
 Attributes:
 Sphericals:   T
 Basis set:  TDDFT                   
 Basis size:   816
 Attributes:
 Sphericals:   T

 PROGRAM * CCSD (Closed-shell coupled cluster)     Authors: C. Hampel, H.-J. Werner, 1991, M. Deegan, P.J. Knowles, 1992


 Convergence thresholds:  THRVAR = 1.00D-08  THRDEN = 1.00D-10

 CCSD(T)     terms to be evaluated (factor= 1.000)


 Number of core orbitals:           1 (   1 )
 Number of closed-shell orbitals:   4 (   4 )
 Number of external orbitals:     225 ( 225 )

 Molecular orbitals read from record     2102.2  Type=RHF/CANONICAL (state 1.1)

 Number of N-1 electron functions:               4
 Number of N-2 electron functions:              10
 Number of singly external CSFs:               900
 Number of doubly external CSFs:            405450
 Total number of CSFs:                      406351

 Length of J-op  integral file:               0.00 MB
 Length of K-op  integral file:               3.65 MB
 Length of 3-ext integral record:             0.00 MB

 Memory could be reduced to 75.63 Mwords without degradation in triples

 Integral transformation finished. Total CPU:  12.19 sec, npass=  1  Memory used:  32.52 MW

 Reference energy:                    -40.21327316

 MP2 singlet pair energy:              -0.14544177
 MP2 triplet pair energy:              -0.05506310
 MP2 correlation energy:               -0.20050486
 MP2 total energy:                    -40.41377802

 SCS-MP2 correlation energy:           -0.20879160   (PS=  1.200000  PT=  0.333333)
 SCS-MP2 total energy:                -40.42206476

 ITER.      SQ.NORM     CORR.ENERGY   TOTAL ENERGY   ENERGY CHANGE        DEN1      VAR(S)    VAR(P)  DIIS     TIME  TIME/IT
   1      1.07100972    -0.21905477   -40.43232793    -0.01854991    -0.01309668  0.46D-03  0.10D-02  1  1    16.01     3.87
   2      1.07650313    -0.22015587   -40.43342903    -0.00110110    -0.00567812  0.13D-04  0.71D-04  2  2    20.04     4.00
   3      1.07773136    -0.22020922   -40.43348238    -0.00005335    -0.00078787  0.16D-05  0.48D-05  3  3    23.89     3.98
   4      1.07803536    -0.22021823   -40.43349138    -0.00000900    -0.00012814  0.92D-07  0.22D-06  4  4    27.75     3.97
   5      1.07808155    -0.22021716   -40.43349031     0.00000107    -0.00001887  0.57D-08  0.16D-07  5  5    31.56     3.96
   6      1.07808638    -0.22021636   -40.43348952     0.00000079    -0.00000155  0.45D-09  0.11D-08  6  6    35.41     3.96
   7      1.07808708    -0.22021621   -40.43348937     0.00000015    -0.00000032  0.31D-10  0.88D-10  6  1    39.24     3.95
   8      1.07808711    -0.22021625   -40.43348940    -0.00000004     0.00000012  0.26D-11  0.48D-11  6  2    43.10     3.95
   9      1.07808712    -0.22021625   -40.43348941    -0.00000000     0.00000002  0.28D-12  0.45D-12  6  3    46.87     3.95
  10      1.07808710    -0.22021625   -40.43348941     0.00000000     0.00000002  0.58D-13  0.71D-13  6  2    50.68     3.95
  11      1.07808710    -0.22021625   -40.43348940     0.00000000     0.00000001  0.35D-14  0.35D-14  6  4    54.62     3.96
  12      1.07808710    -0.22021625   -40.43348940     0.00000000     0.00000000  0.22D-15  0.32D-15  6  6    58.47     3.96
  13      1.07808710    -0.22021625   -40.43348940     0.00000000     0.00000000  0.17D-16  0.20D-16  6  5    62.30     3.96
  14      1.07808710    -0.22021625   -40.43348940     0.00000000     0.00000000  0.20D-17  0.21D-17  6  1    66.16     3.96

 Norm of t1 vector:      0.02946818      S-energy:    -0.00000000      T1 diagnostic:  0.00736705
                                                                       D1 diagnostic:  0.01186404

 Total CPU time for triples:     34.35 sec


 RESULTS
 =======

  Reference energy                    -40.213273155125
  CCSD singlet pair energy             -0.166723389757
  CCSD triplet pair energy             -0.053492859554
  CCSD correlation energy              -0.220216249327

  Triples (T) contribution             -0.006422170984
  Total correlation energy             -0.226638420310

  CCSD total energy                   -40.433489404451
  CCSD[T] energy                      -40.440094118526
  CCSD-T energy                       -40.439843668997
 !CCSD(T) total energy                -40.439911575435

 Timing summary (sec):

 STEP                 CPU(USER)    SYS     CPU(TOT)    WALL
 Transformation         12.23      0.43     12.66     12.67
 CCSD iterations        53.95      1.44     55.39     55.47
 Triples                34.35      0.14     34.49     34.57

 Program statistics:

 Available memory in ccsd:              1999999916
 Min. memory needed in ccsd:               1865022
 Max. memory used in ccsd:                 2159652
 Max. memory used in cckext:               1451153 (14 integral passes)



 **********************************************************************************************************************************
 DATASETS  * FILE   NREC   LENGTH (MB)   RECORD NAMES
              1      19      222.33       500      610      700      900      950      970     1000      129      960     1100   
                                          VAR    BASINP    GEOM    SYMINP    ZMAT    AOBASIS   BASIS     P2S    ABASIS      S 
                                         1400     1410     1200     1210     1080     1600     1650     1700     1380   
                                           T        V       H0       H01     AOSYM     SMH    MOLCAS    OPER     JKOP   

              2       7       13.71       700     1000      520     2100      200     2101     2102   
                                         GEOM     BASIS   MCVARS     RHF    OPTIONS    RHF      RHF  

 PROGRAMS   *        TOTAL   CCSD(T)    HF-SCF       INT   CCSD(T)    HF-SCF       INT   CCSD(T)    HF-SCF       INT
 CPU TIMES  *       738.29    100.75     12.05      0.23    107.79     12.72      0.22    475.87     13.85     14.56
 REAL TIME  *       761.51 SEC
 DISK USED  *       570.36 MB (local),        7.69 GB (total)
 SF USED    *       504.31 MB
 GA USED    *         0.00 MB       (max)       0.00 MB       (current)
 **********************************************************************************************************************************
 Molecular orbitals read from record     2102.2  Type=RHF/CANONICAL (state 1.1)
 Occupation numbers read from record     2102.2  Type=RHF/RHF (state 1.1)
 Orbital energies read from record       2102.2  Type=RHF/CANONICAL (state 1.1)
 Redundancy group numbers read from rec  2102.2  Type=RHF/RHF (state 1.1)

 CCSD(T)/aug-cc-pVTZ energy=    -40.439911575435

         CCSD(T)          HF-SCF         CCSD(T)          HF-SCF         CCSD(T)          HF-SCF
    -40.43991158    -40.21327316    -76.34170518    -76.05842090   -116.78215423   -116.27168144
 **********************************************************************************************************************************
 Molpro calculation terminated
