
 Primary working directories    : /scratch/klimes/383097/molpro.9R891HIBrO
 Secondary working directories  : /scratch/klimes/383097/molpro.9R891HIBrO
 Wavefunction directory         : /scratch/klimes/383097/
 Main file repository           : /scratch/klimes/383097/molpro.9R891HIBrO/

 id        : karlovklimes

 Nodes                      nprocs
 nc-05.cc.karlov.mff.cuni.cz    4

 Using customized tuning parameters: mindgm=1; mindgv=20; mindgc=4; mindgr=1; noblas=0; minvec=7
 default implementation of scratch files=sf  


 Variables initialized (930), CPU time= 0.01 sec
                                                                                 !gdirect
 memory,2000,m
 gthresh,orbital=1d-10,energy=1d-10,grid=1d-8
 
 symmetry,nosym
 angstrom
 geometry={
 O15        -6.012300000000     -1.326900000000      0.948000000000
 H29        -5.145500000000     -1.802000000000      0.952300000000
 H30        -6.682100000000     -2.019400000000      0.881700000000
 C1        -3.277200000000      1.482500000000      1.271900000000
 H41        -2.464000000000      0.899600000000      1.651000000000
 H42        -3.160800000000      2.501000000000      1.578500000000
 H43        -4.201800000000      1.099200000000      1.650100000000
 H44        -3.268500000000      1.421000000000      0.203700000000
 }
 
 nkerna=1
 nkernb=1
 
 gf=0
 sing=1
 thrdum=1d-4
 gridthr=1d-8
 
 basis={
 set,orbital
 default,avtz
 set,jkfit
 default,avqz/jkfit
 set,mp2fit
 default,avqz/mp2fit
 set,ri
 default,avqz/optri
 set,tddft
 default,avqz/mp2fit
 }
 
 proc set_monomer1
 dummy,4,5,6,7,8
 endproc
 
 proc set_monomer2
 dummy,1,2,3
 endproc
 
                                                                                 !1234 energy
 {hf,accu=1.d-16}
 ccsd(t)
 
 set_monomer1
 {hf,accu=1.d-16}
 ccsd(t)
 
 set_monomer2
 {hf,accu=1.d-16}
 ccsd(t)
 
 Commands  initialized (760), CPU time= 0.01 sec, 617 directives.
 Default parameters read. Elapsed time= 0.23 sec

 Checking input...
 Passed
1


                                         ***  PROGRAM SYSTEM MOLPRO  ***
                                       Copyright, TTI GmbH Stuttgart, 2015
                                    Version 2019.1 linked Jan 14 2019 13:09:19


 **********************************************************************************************************************************
 LABEL *                                                                                 
  64 bit mpp version                                                                     DATE: 11-Mar-20          TIME: 12:52:30  
 **********************************************************************************************************************************

 SHA1:             d688ac825633d238f2093ded1675ba87ccd55965
 **********************************************************************************************************************************

 THRESHOLDS:

 ZERO    =  1.00D-12  ONEINT  =  1.00D-12  TWOINT  =  1.00D-11  PREFAC  =  1.00D-14  XXXXXX  =  1.00D-09  EORDER  =  1.00D-04
 ENERGY  =  1.00D-10  ETEST   =  0.00D+00  EDENS   =  0.00D+00  THRDEDEF=  1.00D-06  GRADIENT=  1.00D-02  STEP    =  1.00D-03
 ORBITAL =  1.00D-10  CIVEC   =  1.00D-05  COEFF   =  1.00D-04  PRINTCI =  5.00D-02  PUNCHCI =  9.90D+01  OPTGRAD =  3.00D-04
 OPTENERG=  1.00D-06  OPTSTEP =  3.00D-04  THRGRAD =  1.00D-10  COMPRESS=  1.00D-11  VARMIN  =  1.00D-07  VARMAX  =  1.00D-03
 THRDOUB =  0.00D+00  THRDIV  =  1.00D-05  THRRED  =  1.00D-07  THRPSP  =  1.00D+00  THRDC   =  1.00D-10  THRCS   =  1.00D-10
 THRNRM  =  1.00D-08  THREQ   =  0.00D+00  THRDE   =  1.00D+00  THRREF  =  1.00D-05  SPARFAC =  1.00D+00  THRDLP  =  1.00D-07
 THRDIA  =  1.00D-10  THRDLS  =  1.00D-07  THRGPS  =  0.00D+00  THRKEX  =  0.00D+00  THRDIS  =  2.00D-01  THRVAR  =  1.00D-10
 THRLOC  =  1.00D-06  THRGAP  =  1.00D-06  THRLOCT = -1.00D+00  THRGAPT = -1.00D+00  THRORB  =  1.00D-06  THRMLTP =  0.00D+00
 THRCPQCI=  1.00D-10  KEXTA   =  0.00D+00  THRCOARS=  0.00D+00  SYMTOL  =  1.00D-06  GRADTOL =  1.00D-06  THROVL  =  1.00D-08
 THRORTH =  1.00D-08  GRID    =  1.00D-08  GRIDMAX =  1.00D-03  DTMAX   =  0.00D+00  THROCCDE=  1.00D-01  THROCCDE=  1.00D-01
 THRPRINT=  2.50D-01


 Variable memory set to 2000000000 words,  buffer space 

 ZSYMEL=NOSYM
 ZUNIT=ANG


Geometry recognized as XYZ

 SETTING NKERNA         =         1.00000000                                  
 SETTING NKERNB         =         1.00000000                                  
 SETTING GF             =     0.00000000D+00                                  
 SETTING SING           =         1.00000000                                  
 SETTING THRDUM         =     1.00000000D-04                                  
 SETTING GRIDTHR        =     1.00000000D-08                                  
 SETTING BASIS          =    AVTZ


 Recomputing integrals since basis changed


 Using spherical harmonics

 Library entry O      S aug-cc-pVTZ          selected for orbital group  1
 Library entry O      P aug-cc-pVTZ          selected for orbital group  1
 Library entry O      D aug-cc-pVTZ          selected for orbital group  1
 Library entry O      F aug-cc-pVTZ          selected for orbital group  1
 Library entry H      S aug-cc-pVTZ          selected for orbital group  2
 Library entry H      P aug-cc-pVTZ          selected for orbital group  2
 Library entry H      D aug-cc-pVTZ          selected for orbital group  2
 Library entry C      S aug-cc-pVTZ          selected for orbital group  3
 Library entry C      P aug-cc-pVTZ          selected for orbital group  3
 Library entry C      D aug-cc-pVTZ          selected for orbital group  3
 Library entry C      F aug-cc-pVTZ          selected for orbital group  3


 PROGRAM * SEWARD (Integral evaluation for generally contracted gaussian basis sets)     Author: Roland Lindh, 1990

 Geometry written to block  1 of record 700


 Point group  C1  



 ATOMIC COORDINATES

 NR  ATOM    CHARGE       X              Y              Z

   1  O15     8.00  -11.361600379   -2.507477595    1.791460366
   2  H29     1.00   -9.723585774   -3.405286476    1.799586188
   3  H30     1.00  -12.627338937   -3.816112936    1.666171524
   4  C1      6.00   -6.193010455    2.801518980    2.403542658
   5  H41     1.00   -4.656285171    1.699997622    3.119937832
   6  H42     1.00   -5.973046335    4.726205038    2.982932688
   7  H43     1.00   -7.940251230    2.077186956    3.118237078
   8  H44     1.00   -6.176569838    2.685300823    0.384937212

 Bond lengths in Bohr (Angstrom)

 1-2  1.867945037  1-3  1.824915847  4-5  2.021904040  4-6  2.022002335  4-7  2.021953343
     ( 0.988473945)     ( 0.965703878)     ( 1.069945541)     ( 1.069997556)     ( 1.069971630)

 4-8  2.022015060
     ( 1.070004290)

 Bond angles

  2-1-3  105.29843553   5-4-6  109.53398059   5-4-7  109.65604535   5-4-8  108.43490854

  6-4-7  109.49436728   6-4-8  109.86987750   7-4-8  109.83468330

 NUCLEAR CHARGE:                   20
 NUMBER OF PRIMITIVE AOS:         296
 NUMBER OF SYMMETRY AOS:          266
 NUMBER OF CONTRACTIONS:          230   (  230A   )
 NUMBER OF CORE ORBITALS:           2   (    2A   )
 NUMBER OF VALENCE ORBITALS:       14   (   14A   )


 NUCLEAR REPULSION ENERGY   35.93228190


 Basis set:  JKFIT                   
 Basis size:   740
 Attributes:
 Sphericals:   T
 Basis set:  MP2FIT                  
 Basis size:   816
 Attributes:
 Sphericals:   T
 Basis set:  RI                      
 Basis size:   556
 Attributes:
 Sphericals:   T
 Basis set:  TDDFT                   
 Basis size:   816
 Attributes:
 Sphericals:   T

 **********************************************************************************************************************************


 Eigenvalues of metric

         1 0.641E-04 0.753E-04 0.898E-04 0.106E-03 0.332E-03 0.352E-03 0.677E-03 0.751E-03


 Contracted 2-electron integrals neglected if value below      1.0D-14
 AO integral compression algorithm  1   Integral accuracy      1.0D-14

     2068.578 MB (compressed) written to integral file ( 64.5%)

     Node minimum: 497.287 MB, node maximum: 553.386 MB


 NUMBER OF SORTED TWO-ELECTRON INTEGRALS:   88219044.     BUFFER LENGTH:  32768
 NUMBER OF SEGMENTS:   6  SEGMENT LENGTH:   15998348      RECORD LENGTH: 524288

 Memory used in sort:      16.56 MW

 SORT1 READ   400769927. AND WROTE    79836727. INTEGRALS IN    231 RECORDS. CPU TIME:     7.59 SEC, REAL TIME:     8.66 SEC
 SORT2 READ   319161774. AND WROTE   352862895. INTEGRALS IN   7588 RECORDS. CPU TIME:     1.93 SEC, REAL TIME:     2.76 SEC

 Node minimum:    88205762.  Node maximum:    88225686. integrals

 OPERATOR DM      FOR CENTER  0  COORDINATES:    0.000000    0.000000    0.000000


 **********************************************************************************************************************************
 DATASETS  * FILE   NREC   LENGTH (MB)   RECORD NAMES
              1      18       32.04       500      610      700      900      950      970     1000      129      960     1100   
                                          VAR    BASINP    GEOM    SYMINP    ZMAT    AOBASIS   BASIS     P2S    ABASIS      S 
                                         1400     1410     1200     1210     1080     1600     1650     1700   
                                           T        V       H0       H01     AOSYM     SMH    MOLCAS    OPER   

 PROGRAMS   *        TOTAL       INT
 CPU TIMES  *        14.19     13.97
 REAL TIME  *        19.75 SEC
 DISK USED  *        32.49 MB (local),        5.98 GB (total)
 GA USED    *         0.00 MB       (max)       0.00 MB       (current)
 **********************************************************************************************************************************


 PROGRAM * RHF-SCF (CLOSED SHELL)       Authors: W. Meyer, H.-J. Werner


 NUMBER OF ELECTRONS:      10+   10-    SPACE SYMMETRY=1    SPIN SYMMETRY: Singlet 
 CONVERGENCE THRESHOLDS:    1.00E-08 (Density)    1.00E-11 (Energy)
 MAX. NUMBER OF ITERATIONS:       60
 INTERPOLATION TYPE:            DIIS
 INTERPOLATION STEPS:              2 (START)      1 (STEP)
 LEVEL SHIFTS:                  0.00 (CLOSED)  0.00 (OPEN) 



 Orbital guess generated from atomic densities. Full valence occupancy:   16

 Molecular orbital dump at record        2100.2

 Initial occupancy:  10

 ITERATION    DDIFF          GRAD             ENERGY        2-EL.EN.            DIPOLE MOMENTS         DIIS   ORB.
    1      0.000D+00      0.000D+00      -116.21408751    157.565239    0.19979   -1.13528   -0.06156    0    start
    2      0.000D+00      0.522D-02      -116.25770903    152.564085    0.05586   -0.66845   -0.03883    1    diag
    3      0.549D-02      0.306D-02      -116.27102908    154.622125    0.08892   -0.78740   -0.04393    2    diag
    4      0.182D-02      0.451D-03      -116.27167336    154.510078    0.08591   -0.77693   -0.04307    3    diag
    5      0.400D-03      0.132D-03      -116.27173929    154.504592    0.08474   -0.77662   -0.04294    4    diag
    6      0.143D-03      0.322D-04      -116.27174300    154.510373    0.08435   -0.77586   -0.04284    5    diag
    7      0.393D-04      0.620D-05      -116.27174322    154.508887    0.08430   -0.77585   -0.04282    6    diag
    8      0.108D-04      0.155D-05      -116.27174323    154.509023    0.08426   -0.77578   -0.04281    7    diag
    9      0.231D-05      0.352D-06      -116.27174324    154.508998    0.08426   -0.77576   -0.04281    8    diag
   10      0.744D-06      0.410D-07      -116.27174324    154.508999    0.08426   -0.77576   -0.04281    9    orth
   11      0.614D-07      0.995D-08      -116.27174324    154.509000    0.08426   -0.77576   -0.04281    9    diag
   12      0.226D-07      0.252D-08      -116.27174324    154.509000    0.08426   -0.77576   -0.04281    9    diag
   13      0.394D-08      0.673D-09      -116.27174324    154.509000    0.08426   -0.77576   -0.04281    0    orth

 Final occupancy:  10

 !RHF STATE  1.1 Energy              -116.271743235316
 Nuclear energy                        35.93228190
 One-electron energy                 -229.45852517
 Two-electron energy                   77.25450004
 Virial quotient                       -1.00105500
 !RHF STATE  1.1 Dipole moment          0.08425664    -0.77575735    -0.04280976
 Dipole moment /Debye                   0.21414500    -1.97164938    -0.10880442

 Orbital energies:

         1.1          2.1          3.1          4.1          5.1          6.1          7.1          8.1          9.1         10.1
    -20.570772   -11.189897    -1.343761    -0.943779    -0.709236    -0.580759    -0.544931    -0.541487    -0.541029    -0.509109

        11.1         12.1
      0.026604     0.040133


 HOMO     10.1    -0.509109 =     -13.8536eV
 LUMO     11.1     0.026604 =       0.7239eV
 LUMO-HOMO         0.535714 =      14.5775eV


 **********************************************************************************************************************************
 DATASETS  * FILE   NREC   LENGTH (MB)   RECORD NAMES
              1      18       32.04       500      610      700      900      950      970     1000      129      960     1100   
                                          VAR    BASINP    GEOM    SYMINP    ZMAT    AOBASIS   BASIS     P2S    ABASIS      S 
                                         1400     1410     1200     1210     1080     1600     1650     1700   
                                           T        V       H0       H01     AOSYM     SMH    MOLCAS    OPER   

              2       4        3.96       700     1000      520     2100   
                                         GEOM     BASIS   MCVARS     RHF  

 PROGRAMS   *        TOTAL    HF-SCF       INT
 CPU TIMES  *        28.33     14.14     13.97
 REAL TIME  *        35.00 SEC
 DISK USED  *        39.90 MB (local),        6.01 GB (total)
 SF USED    *         0.21 MB
 GA USED    *         0.00 MB       (max)       0.00 MB       (current)
 **********************************************************************************************************************************

 Basis set:  JKFIT                   
 Basis size:   740
 Attributes:
 Sphericals:   T
 Basis set:  MP2FIT                  
 Basis size:   816
 Attributes:
 Sphericals:   T
 Basis set:  RI                      
 Basis size:   556
 Attributes:
 Sphericals:   T
 Basis set:  TDDFT                   
 Basis size:   816
 Attributes:
 Sphericals:   T

 PROGRAM * CCSD (Closed-shell coupled cluster)     Authors: C. Hampel, H.-J. Werner, 1991, M. Deegan, P.J. Knowles, 1992


 Convergence thresholds:  THRVAR = 1.00D-08  THRDEN = 1.00D-10

 CCSD(T)     terms to be evaluated (factor= 1.000)


 Number of core orbitals:           2 (   2 )
 Number of closed-shell orbitals:   8 (   8 )
 Number of external orbitals:     220 ( 220 )

 Molecular orbitals read from record     2100.2  Type=RHF/CANONICAL (state 1.1)

 Number of N-1 electron functions:               8
 Number of N-2 electron functions:              36
 Number of singly external CSFs:              1760
 Number of doubly external CSFs:           1549680
 Total number of CSFs:                     1551441

 Length of J-op  integral file:               0.00 MB
 Length of K-op  integral file:               3.65 MB
 Length of 3-ext integral record:             0.00 MB

 Memory could be reduced to 116.39 Mwords without degradation in triples

 Integral transformation finished. Total CPU:  25.82 sec, npass=  1  Memory used:  59.35 MW

 Reference energy:                   -116.27174324

 MP2 singlet pair energy:              -0.31729868
 MP2 triplet pair energy:              -0.15374595
 MP2 correlation energy:               -0.47104463
 MP2 total energy:                   -116.74278787

 SCS-MP2 correlation energy:           -0.47642256   (PS=  1.200000  PT=  0.333333)
 SCS-MP2 total energy:               -116.74816580

 ITER.      SQ.NORM     CORR.ENERGY   TOTAL ENERGY   ENERGY CHANGE        DEN1      VAR(S)    VAR(P)  DIIS     TIME  TIME/IT
   1      1.13532629    -0.49369305  -116.76543629    -0.02264842    -0.01144260  0.14D-02  0.20D-02  1  1    40.13    14.24
   2      1.14435108    -0.49510212  -116.76684536    -0.00140907    -0.01033804  0.23D-04  0.24D-03  2  2    54.45    14.41
   3      1.14735415    -0.49523410  -116.76697733    -0.00013198    -0.00197791  0.14D-04  0.11D-04  3  3    68.81    14.47
   4      1.14816018    -0.49523551  -116.76697874    -0.00000141    -0.00036294  0.58D-06  0.11D-05  4  4    83.17    14.50
   5      1.14831551    -0.49523279  -116.76697603     0.00000272    -0.00004944  0.19D-06  0.75D-07  5  5    97.54    14.52
   6      1.14836221    -0.49522826  -116.76697149     0.00000454    -0.00001149  0.16D-07  0.47D-08  6  6   111.92    14.54
   7      1.14836991    -0.49522772  -116.76697096     0.00000053    -0.00000059  0.11D-08  0.74D-09  6  2   126.28    14.55
   8      1.14837157    -0.49522759  -116.76697082     0.00000013     0.00000002  0.21D-09  0.71D-10  6  1   140.64    14.55
   9      1.14837227    -0.49522753  -116.76697077     0.00000006     0.00000000  0.17D-10  0.10D-10  6  3   155.05    14.56
  10      1.14837242    -0.49522752  -116.76697076     0.00000001     0.00000001  0.23D-11  0.14D-11  6  4   169.50    14.57
  11      1.14837235    -0.49522753  -116.76697077    -0.00000001     0.00000006  0.43D-12  0.22D-12  6  6   183.92    14.57
  12      1.14837234    -0.49522753  -116.76697077    -0.00000000     0.00000002  0.73D-13  0.23D-13  6  5   198.29    14.57
  13      1.14837232    -0.49522753  -116.76697077    -0.00000000     0.00000000  0.13D-13  0.35D-14  6  2   212.63    14.58
  14      1.14837232    -0.49522753  -116.76697077    -0.00000000     0.00000000  0.16D-14  0.88D-15  6  1   226.97    14.58
  15      1.14837232    -0.49522753  -116.76697077    -0.00000000    -0.00000000  0.15D-15  0.86D-16  6  3   241.43    14.58
  16      1.14837232    -0.49522753  -116.76697077    -0.00000000    -0.00000000  0.23D-16  0.12D-16  6  4   255.80    14.59

 Norm of t1 vector:      0.05102707      S-energy:     0.00000000      T1 diagnostic:  0.00902040
                                                                       D1 diagnostic:  0.02209513


 Total CPU time for triples:    217.52 sec


 RESULTS
 =======

  Reference energy                   -116.271743235315
  CCSD singlet pair energy             -0.354332453330
  CCSD triplet pair energy             -0.140895079589
  CCSD correlation energy              -0.495227532908

  Triples (T) contribution             -0.015344432191
  Total correlation energy             -0.510571965099

  CCSD total energy                  -116.766970768223
  CCSD[T] energy                     -116.782837563646
  CCSD-T energy                      -116.782064235828
 !CCSD(T) total energy               -116.782315200414

 Timing summary (sec):

 STEP                 CPU(USER)    SYS     CPU(TOT)    WALL
 Transformation         26.01      0.89     26.90     26.97
 CCSD iterations       229.81      3.23    233.04    233.42
 Triples               217.52      0.95    218.47    218.79

 Program statistics:

 Available memory in ccsd:              1999999734
 Min. memory needed in ccsd:               4617529
 Max. memory used in ccsd:                 5944569
 Max. memory used in cckext:               4248553 (16 integral passes)



 **********************************************************************************************************************************
 DATASETS  * FILE   NREC   LENGTH (MB)   RECORD NAMES
              1      19      398.13       500      610      700      900      950      970     1000      129      960     1100   
                                          VAR    BASINP    GEOM    SYMINP    ZMAT    AOBASIS   BASIS     P2S    ABASIS      S 
                                         1400     1410     1200     1210     1080     1600     1650     1700     1380   
                                           T        V       H0       H01     AOSYM     SMH    MOLCAS    OPER     JKOP   

              2       4        3.96       700     1000      520     2100   
                                         GEOM     BASIS   MCVARS     RHF  

 PROGRAMS   *        TOTAL   CCSD(T)    HF-SCF       INT
 CPU TIMES  *       501.91    473.58     14.14     13.97
 REAL TIME  *       514.98 SEC
 DISK USED  *       570.36 MB (local),        7.62 GB (total)
 SF USED    *       504.31 MB
 GA USED    *         0.00 MB       (max)       0.00 MB       (current)
 **********************************************************************************************************************************

 Running procedure: SET_MONOMER1

 Dummy atoms: C1  H41  H42  H43  H44


 Recomputing one-electron integrals since nuclear charges changed


 PROGRAM * SEWARD (Integral evaluation for generally contracted gaussian basis sets)     Author: Roland Lindh, 1990

 Geometry written to block  1 of record 700


 Point group  C1  



 ATOMIC COORDINATES

 NR  ATOM    CHARGE       X              Y              Z

   1  O15     8.00  -11.361600379   -2.507477595    1.791460366
   2  H29     1.00   -9.723585774   -3.405286476    1.799586188
   3  H30     1.00  -12.627338937   -3.816112936    1.666171524
   4  C1      0.00   -6.193010455    2.801518980    2.403542658
   5  H41     0.00   -4.656285171    1.699997622    3.119937832
   6  H42     0.00   -5.973046335    4.726205038    2.982932688
   7  H43     0.00   -7.940251230    2.077186956    3.118237078
   8  H44     0.00   -6.176569838    2.685300823    0.384937212

 Bond lengths in Bohr (Angstrom)

 1-2  1.867945037  1-3  1.824915847  4-5  2.021904040  4-6  2.022002335  4-7  2.021953343
     ( 0.988473945)     ( 0.965703878)     ( 1.069945541)     ( 1.069997556)     ( 1.069971630)

 4-8  2.022015060
     ( 1.070004290)

 Bond angles

  2-1-3  105.29843553   5-4-6  109.53398059   5-4-7  109.65604535   5-4-8  108.43490854

  6-4-7  109.49436728   6-4-8  109.86987750   7-4-8  109.83468330

 NUCLEAR CHARGE:                   10
 NUMBER OF PRIMITIVE AOS:         296
 NUMBER OF SYMMETRY AOS:          266
 NUMBER OF CONTRACTIONS:          230   (  230A   )
 NUMBER OF CORE ORBITALS:           1   (    1A   )
 NUMBER OF VALENCE ORBITALS:        6   (    6A   )

 MOLECULE CHANGED: INITIALIZING OCCUPATION AND DUMP RECORDS


 NUCLEAR REPULSION ENERGY    9.00717880

 Basis set:  JKFIT                   
 Basis size:   740
 Attributes:
 Sphericals:   T
 Basis set:  MP2FIT                  
 Basis size:   816
 Attributes:
 Sphericals:   T
 Basis set:  RI                      
 Basis size:   556
 Attributes:
 Sphericals:   T
 Basis set:  TDDFT                   
 Basis size:   816
 Attributes:
 Sphericals:   T

 Eigenvalues of metric

         1 0.641E-04 0.753E-04 0.898E-04 0.106E-03 0.332E-03 0.352E-03 0.677E-03 0.751E-03


 Contracted 2-electron integrals neglected if value below      1.0D-14

 OPERATOR DM      FOR CENTER  0  COORDINATES:    0.000000    0.000000    0.000000


 **********************************************************************************************************************************
 DATASETS  * FILE   NREC   LENGTH (MB)   RECORD NAMES
              1      18       32.04       500      610      700      900      950      970     1000      129      960     1100   
                                          VAR    BASINP    GEOM    SYMINP    ZMAT    AOBASIS   BASIS     P2S    ABASIS      S 
                                         1400     1410     1200     1210     1080     1600     1650     1700   
                                           T        V       H0       H01     AOSYM     SMH    MOLCAS    OPER   

              2       5        5.05       700     1000      520     2100      200   
                                         GEOM     BASIS   MCVARS     RHF    OPTIONS    

 PROGRAMS   *        TOTAL       INT   CCSD(T)    HF-SCF       INT
 CPU TIMES  *       502.15      0.23    473.58     14.14     13.97
 REAL TIME  *       515.72 SEC
 DISK USED  *       570.36 MB (local),        7.63 GB (total)
 SF USED    *       504.31 MB
 GA USED    *         0.00 MB       (max)       0.00 MB       (current)
 **********************************************************************************************************************************


 PROGRAM * RHF-SCF (CLOSED SHELL)       Authors: W. Meyer, H.-J. Werner


 NUMBER OF ELECTRONS:       5+    5-    SPACE SYMMETRY=1    SPIN SYMMETRY: Singlet 
 CONVERGENCE THRESHOLDS:    1.00E-08 (Density)    1.00E-11 (Energy)
 MAX. NUMBER OF ITERATIONS:       60
 INTERPOLATION TYPE:            DIIS
 INTERPOLATION STEPS:              2 (START)      1 (STEP)
 LEVEL SHIFTS:                  0.00 (CLOSED)  0.00 (OPEN) 



 Orbital guess generated from atomic densities. Full valence occupancy:    7

 Molecular orbital dump at record        2101.2

 Initial occupancy:   5

 ITERATION    DDIFF          GRAD             ENERGY        2-EL.EN.            DIPOLE MOMENTS         DIIS   ORB.
    1      0.000D+00      0.000D+00       -76.02016567     77.391357    0.19843   -1.13034   -0.05975    0    start
    2      0.000D+00      0.640D-02       -76.04681722     73.763718    0.10858   -0.65920   -0.03510    1    diag
    3      0.444D-02      0.408D-02       -76.05816239     75.366864    0.12936   -0.77618   -0.04128    2    diag
    4      0.160D-02      0.376D-03       -76.05835337     75.277533    0.12721   -0.77193   -0.04110    3    diag
    5      0.209D-03      0.105D-03       -76.05837339     75.291632    0.12635   -0.77033   -0.04104    4    diag
    6      0.679D-04      0.204D-04       -76.05837463     75.290758    0.12611   -0.77004   -0.04103    5    diag
    7      0.173D-04      0.403D-05       -76.05837469     75.290885    0.12605   -0.76992   -0.04103    6    diag
    8      0.453D-05      0.745D-06       -76.05837469     75.290870    0.12603   -0.76988   -0.04103    7    diag
    9      0.774D-06      0.954D-07       -76.05837469     75.290861    0.12603   -0.76988   -0.04103    8    diag
   10      0.982D-07      0.240D-07       -76.05837469     75.290864    0.12603   -0.76988   -0.04103    9    orth
   11      0.244D-07      0.502D-08       -76.05837469     75.290864    0.12603   -0.76988   -0.04103    9    diag
   12      0.559D-08      0.950D-09       -76.05837469     75.290863    0.12603   -0.76988   -0.04103    0    orth

 Final occupancy:   5

 !RHF STATE  1.1 Energy               -76.058374691613
 Nuclear energy                         9.00717880
 One-electron energy                 -122.71098520
 Two-electron energy                   37.64543171
 Virial quotient                       -1.00232785
 !RHF STATE  1.1 Dipole moment          0.12603165    -0.76987742    -0.04102608
 Dipole moment /Debye                   0.32031952    -1.95670505    -0.10427107

 Orbital energies:

         1.1          2.1          3.1          4.1          5.1          6.1          7.1
    -20.570256    -1.343141    -0.708583    -0.579569    -0.508512     0.023181     0.036274


 HOMO      5.1    -0.508512 =     -13.8373eV
 LUMO      6.1     0.023181 =       0.6308eV
 LUMO-HOMO         0.531693 =      14.4681eV


 **********************************************************************************************************************************
 DATASETS  * FILE   NREC   LENGTH (MB)   RECORD NAMES
              1      18       32.04       500      610      700      900      950      970     1000      129      960     1100   
                                          VAR    BASINP    GEOM    SYMINP    ZMAT    AOBASIS   BASIS     P2S    ABASIS      S 
                                         1400     1410     1200     1210     1080     1600     1650     1700   
                                           T        V       H0       H01     AOSYM     SMH    MOLCAS    OPER   

              2       6        9.09       700     1000      520     2100      200     2101   
                                         GEOM     BASIS   MCVARS     RHF    OPTIONS    RHF  

 PROGRAMS   *        TOTAL    HF-SCF       INT   CCSD(T)    HF-SCF       INT
 CPU TIMES  *       515.38     13.23      0.23    473.58     14.14     13.97
 REAL TIME  *       529.88 SEC
 DISK USED  *       570.36 MB (local),        7.63 GB (total)
 SF USED    *       504.31 MB
 GA USED    *         0.00 MB       (max)       0.00 MB       (current)
 **********************************************************************************************************************************

 Basis set:  JKFIT                   
 Basis size:   740
 Attributes:
 Sphericals:   T
 Basis set:  MP2FIT                  
 Basis size:   816
 Attributes:
 Sphericals:   T
 Basis set:  RI                      
 Basis size:   556
 Attributes:
 Sphericals:   T
 Basis set:  TDDFT                   
 Basis size:   816
 Attributes:
 Sphericals:   T

 PROGRAM * CCSD (Closed-shell coupled cluster)     Authors: C. Hampel, H.-J. Werner, 1991, M. Deegan, P.J. Knowles, 1992


 Convergence thresholds:  THRVAR = 1.00D-08  THRDEN = 1.00D-10

 CCSD(T)     terms to be evaluated (factor= 1.000)


 Number of core orbitals:           1 (   1 )
 Number of closed-shell orbitals:   4 (   4 )
 Number of external orbitals:     225 ( 225 )

 Molecular orbitals read from record     2101.2  Type=RHF/CANONICAL (state 1.1)

 Number of N-1 electron functions:               4
 Number of N-2 electron functions:              10
 Number of singly external CSFs:               900
 Number of doubly external CSFs:            405450
 Total number of CSFs:                      406351

 Length of J-op  integral file:               0.00 MB
 Length of K-op  integral file:               3.65 MB
 Length of 3-ext integral record:             0.00 MB

 Memory could be reduced to 75.63 Mwords without degradation in triples

 Integral transformation finished. Total CPU:  12.07 sec, npass=  1  Memory used:  32.52 MW

 Reference energy:                    -76.05837469

 MP2 singlet pair energy:              -0.17172794
 MP2 triplet pair energy:              -0.09823490
 MP2 correlation energy:               -0.26996284
 MP2 total energy:                    -76.32833753

 SCS-MP2 correlation energy:           -0.26719746   (PS=  1.200000  PT=  0.333333)
 SCS-MP2 total energy:                -76.32557215

 ITER.      SQ.NORM     CORR.ENERGY   TOTAL ENERGY   ENERGY CHANGE        DEN1      VAR(S)    VAR(P)  DIIS     TIME  TIME/IT
   1      1.06412173    -0.27410998   -76.33248467    -0.00414715     0.00160123  0.93D-03  0.10D-02  1  1    15.86     3.83
   2      1.06797557    -0.27441863   -76.33279332    -0.00030865    -0.00492971  0.12D-04  0.13D-03  2  2    19.70     3.88
   3      1.06943222    -0.27450325   -76.33287794    -0.00008462    -0.00093842  0.11D-04  0.58D-05  3  3    23.55     3.90
   4      1.06991015    -0.27449670   -76.33287139     0.00000655    -0.00021961  0.49D-06  0.70D-06  4  4    27.35     3.91
   5      1.07001502    -0.27449376   -76.33286845     0.00000294    -0.00003256  0.16D-06  0.44D-07  5  5    31.18     3.91
   6      1.07005187    -0.27449021   -76.33286491     0.00000354    -0.00000761  0.12D-07  0.28D-08  6  6    35.06     3.92
   7      1.07005844    -0.27448996   -76.33286465     0.00000025    -0.00000073  0.90D-09  0.50D-09  6  1    38.84     3.92
   8      1.07005955    -0.27448993   -76.33286462     0.00000003     0.00000032  0.14D-09  0.55D-10  6  2    42.65     3.93
   9      1.07006009    -0.27448988   -76.33286457     0.00000005     0.00000001  0.12D-10  0.59D-11  6  3    46.47     3.93
  10      1.07006017    -0.27448987   -76.33286456     0.00000001     0.00000001  0.24D-11  0.82D-12  6  4    50.34     3.93
  11      1.07006014    -0.27448988   -76.33286457    -0.00000001     0.00000003  0.45D-12  0.15D-12  6  6    54.18     3.93
  12      1.07006014    -0.27448988   -76.33286457    -0.00000000     0.00000001  0.66D-13  0.21D-13  6  5    57.96     3.93
  13      1.07006013    -0.27448988   -76.33286457    -0.00000000     0.00000000  0.86D-14  0.31D-14  6  1    61.79     3.93
  14      1.07006012    -0.27448988   -76.33286457    -0.00000000     0.00000000  0.97D-15  0.61D-15  6  2    65.60     3.93
  15      1.07006012    -0.27448988   -76.33286457     0.00000000    -0.00000000  0.89D-16  0.64D-16  6  3    69.42     3.93
  16      1.07006012    -0.27448988   -76.33286457    -0.00000000    -0.00000000  0.12D-16  0.81D-17  6  4    73.28     3.93

 Norm of t1 vector:      0.04121688      S-energy:    -0.00000000      T1 diagnostic:  0.01030422
                                                                       D1 diagnostic:  0.02191354


 Total CPU time for triples:     34.32 sec


 RESULTS
 =======

  Reference energy                    -76.058374691613
  CCSD singlet pair energy             -0.187548810749
  CCSD triplet pair energy             -0.086941068571
  CCSD correlation energy              -0.274489879333

  Triples (T) contribution             -0.008830002335
  Total correlation energy             -0.283319881668

  CCSD total energy                   -76.332864570946
  CCSD[T] energy                      -76.342031022788
  CCSD-T energy                       -76.341513436986
 !CCSD(T) total energy                -76.341694573281

 Timing summary (sec):

 STEP                 CPU(USER)    SYS     CPU(TOT)    WALL
 Transformation         12.12      0.53     12.65     12.68
 CCSD iterations        61.16      1.69     62.85     62.93
 Triples                34.32      0.14     34.46     34.51

 Program statistics:

 Available memory in ccsd:              1999999921
 Min. memory needed in ccsd:               1865022
 Max. memory used in ccsd:                 2159652
 Max. memory used in cckext:               1451153 (16 integral passes)



 **********************************************************************************************************************************
 DATASETS  * FILE   NREC   LENGTH (MB)   RECORD NAMES
              1      19      222.33       500      610      700      900      950      970     1000      129      960     1100   
                                          VAR    BASINP    GEOM    SYMINP    ZMAT    AOBASIS   BASIS     P2S    ABASIS      S 
                                         1400     1410     1200     1210     1080     1600     1650     1700     1380   
                                           T        V       H0       H01     AOSYM     SMH    MOLCAS    OPER     JKOP   

              2       6        9.09       700     1000      520     2100      200     2101   
                                         GEOM     BASIS   MCVARS     RHF    OPTIONS    RHF  

 PROGRAMS   *        TOTAL   CCSD(T)    HF-SCF       INT   CCSD(T)    HF-SCF       INT
 CPU TIMES  *       623.24    107.85     13.23      0.23    473.58     14.14     13.97
 REAL TIME  *       640.71 SEC
 DISK USED  *       570.36 MB (local),        7.63 GB (total)
 SF USED    *       504.31 MB
 GA USED    *         0.00 MB       (max)       0.00 MB       (current)
 **********************************************************************************************************************************

 Running procedure: SET_MONOMER2

 Dummy atoms: O15  H29  H30


 Recomputing one-electron integrals since nuclear charges changed


 PROGRAM * SEWARD (Integral evaluation for generally contracted gaussian basis sets)     Author: Roland Lindh, 1990

 Geometry written to block  1 of record 700


 Point group  C1  



 ATOMIC COORDINATES

 NR  ATOM    CHARGE       X              Y              Z

   1  O15     0.00  -11.361600379   -2.507477595    1.791460366
   2  H29     0.00   -9.723585774   -3.405286476    1.799586188
   3  H30     0.00  -12.627338937   -3.816112936    1.666171524
   4  C1      6.00   -6.193010455    2.801518980    2.403542658
   5  H41     1.00   -4.656285171    1.699997622    3.119937832
   6  H42     1.00   -5.973046335    4.726205038    2.982932688
   7  H43     1.00   -7.940251230    2.077186956    3.118237078
   8  H44     1.00   -6.176569838    2.685300823    0.384937212

 Bond lengths in Bohr (Angstrom)

 1-2  1.867945037  1-3  1.824915847  4-5  2.021904040  4-6  2.022002335  4-7  2.021953343
     ( 0.988473945)     ( 0.965703878)     ( 1.069945541)     ( 1.069997556)     ( 1.069971630)

 4-8  2.022015060
     ( 1.070004290)

 Bond angles

  2-1-3  105.29843553   5-4-6  109.53398059   5-4-7  109.65604535   5-4-8  108.43490854

  6-4-7  109.49436728   6-4-8  109.86987750   7-4-8  109.83468330

 NUCLEAR CHARGE:                   10
 NUMBER OF PRIMITIVE AOS:         296
 NUMBER OF SYMMETRY AOS:          266
 NUMBER OF CONTRACTIONS:          230   (  230A   )
 NUMBER OF CORE ORBITALS:           1   (    1A   )
 NUMBER OF VALENCE ORBITALS:        8   (    8A   )

 MOLECULE CHANGED: INITIALIZING OCCUPATION AND DUMP RECORDS


 NUCLEAR REPULSION ENERGY   13.68681606

 Basis set:  JKFIT                   
 Basis size:   740
 Attributes:
 Sphericals:   T
 Basis set:  MP2FIT                  
 Basis size:   816
 Attributes:
 Sphericals:   T
 Basis set:  RI                      
 Basis size:   556
 Attributes:
 Sphericals:   T
 Basis set:  TDDFT                   
 Basis size:   816
 Attributes:
 Sphericals:   T

 Eigenvalues of metric

         1 0.641E-04 0.753E-04 0.898E-04 0.106E-03 0.332E-03 0.352E-03 0.677E-03 0.751E-03


 Contracted 2-electron integrals neglected if value below      1.0D-14

 OPERATOR DM      FOR CENTER  0  COORDINATES:    0.000000    0.000000    0.000000


 **********************************************************************************************************************************
 DATASETS  * FILE   NREC   LENGTH (MB)   RECORD NAMES
              1      18       32.04       500      610      700      900      950      970     1000      129      960     1100   
                                          VAR    BASINP    GEOM    SYMINP    ZMAT    AOBASIS   BASIS     P2S    ABASIS      S 
                                         1400     1410     1200     1210     1080     1600     1650     1700   
                                           T        V       H0       H01     AOSYM     SMH    MOLCAS    OPER   

              2       6        9.09       700     1000      520     2100      200     2101   
                                         GEOM     BASIS   MCVARS     RHF    OPTIONS    RHF  

 PROGRAMS   *        TOTAL       INT   CCSD(T)    HF-SCF       INT   CCSD(T)    HF-SCF       INT
 CPU TIMES  *       623.48      0.23    107.85     13.23      0.23    473.58     14.14     13.97
 REAL TIME  *       641.44 SEC
 DISK USED  *       570.36 MB (local),        7.63 GB (total)
 SF USED    *       504.31 MB
 GA USED    *         0.00 MB       (max)       0.00 MB       (current)
 **********************************************************************************************************************************


 PROGRAM * RHF-SCF (CLOSED SHELL)       Authors: W. Meyer, H.-J. Werner


 NUMBER OF ELECTRONS:       5+    5-    SPACE SYMMETRY=1    SPIN SYMMETRY: Singlet 
 CONVERGENCE THRESHOLDS:    1.00E-08 (Density)    1.00E-11 (Energy)
 MAX. NUMBER OF ITERATIONS:       60
 INTERPOLATION TYPE:            DIIS
 INTERPOLATION STEPS:              2 (START)      1 (STEP)
 LEVEL SHIFTS:                  0.00 (CLOSED)  0.00 (OPEN) 



 Orbital guess generated from atomic densities. Full valence occupancy:    9

 Molecular orbital dump at record        2102.2

 Initial occupancy:   5

 ITERATION    DDIFF          GRAD             ENERGY        2-EL.EN.            DIPOLE MOMENTS         DIIS   ORB.
    1      0.000D+00      0.000D+00       -40.19358726     53.494050    0.00410   -0.00276   -0.00131    0    start
    2      0.000D+00      0.353D-02       -40.21070465     52.213692    0.00128   -0.00090   -0.00039    1    diag
    3      0.324D-02      0.137D-02       -40.21295311     52.664861    0.00181   -0.00126   -0.00056    2    diag
    4      0.904D-03      0.342D-03       -40.21326856     52.609835    0.00161   -0.00113   -0.00049    3    diag
    5      0.297D-03      0.444D-04       -40.21327396     52.612174    0.00158   -0.00111   -0.00048    4    diag
    6      0.794D-04      0.345D-05       -40.21327400     52.612271    0.00158   -0.00111   -0.00048    5    diag
    7      0.671D-05      0.264D-06       -40.21327400     52.612237    0.00158   -0.00111   -0.00048    6    diag
    8      0.977D-06      0.222D-07       -40.21327400     52.612238    0.00158   -0.00111   -0.00048    7    diag
    9      0.189D-06      0.289D-08       -40.21327400     52.612238    0.00158   -0.00111   -0.00048    8    diag
   10      0.112D-07      0.806D-09       -40.21327400     52.612238    0.00158   -0.00111   -0.00048    9    orth
   11      0.125D-08      0.106D-09       -40.21327400     52.612238    0.00158   -0.00111   -0.00048    0    orth

 Final occupancy:   5

 !RHF STATE  1.1 Energy               -40.213273995677
 Nuclear energy                        13.68681606
 One-electron energy                  -80.20620889
 Two-electron energy                   26.30611884
 Virial quotient                       -0.99870041
 !RHF STATE  1.1 Dipole moment          0.00158176    -0.00110629    -0.00047939
 Dipole moment /Debye                   0.00402017    -0.00281173    -0.00121841

 Orbital energies:

         1.1          2.1          3.1          4.1          5.1          6.1          7.1
    -11.197208    -0.950741    -0.551697    -0.549759    -0.547580     0.026311     0.039755


 HOMO      5.1    -0.547580 =     -14.9004eV
 LUMO      6.1     0.026311 =       0.7160eV
 LUMO-HOMO         0.573891 =      15.6164eV


 **********************************************************************************************************************************
 DATASETS  * FILE   NREC   LENGTH (MB)   RECORD NAMES
              1      18       32.04       500      610      700      900      950      970     1000      129      960     1100   
                                          VAR    BASINP    GEOM    SYMINP    ZMAT    AOBASIS   BASIS     P2S    ABASIS      S 
                                         1400     1410     1200     1210     1080     1600     1650     1700   
                                           T        V       H0       H01     AOSYM     SMH    MOLCAS    OPER   

              2       7       13.71       700     1000      520     2100      200     2101     2102   
                                         GEOM     BASIS   MCVARS     RHF    OPTIONS    RHF      RHF  

 PROGRAMS   *        TOTAL    HF-SCF       INT   CCSD(T)    HF-SCF       INT   CCSD(T)    HF-SCF       INT
 CPU TIMES  *       635.45     11.97      0.23    107.85     13.23      0.23    473.58     14.14     13.97
 REAL TIME  *       654.57 SEC
 DISK USED  *       570.36 MB (local),        7.63 GB (total)
 SF USED    *       504.31 MB
 GA USED    *         0.00 MB       (max)       0.00 MB       (current)
 **********************************************************************************************************************************

 Basis set:  JKFIT                   
 Basis size:   740
 Attributes:
 Sphericals:   T
 Basis set:  MP2FIT                  
 Basis size:   816
 Attributes:
 Sphericals:   T
 Basis set:  RI                      
 Basis size:   556
 Attributes:
 Sphericals:   T
 Basis set:  TDDFT                   
 Basis size:   816
 Attributes:
 Sphericals:   T

 PROGRAM * CCSD (Closed-shell coupled cluster)     Authors: C. Hampel, H.-J. Werner, 1991, M. Deegan, P.J. Knowles, 1992


 Convergence thresholds:  THRVAR = 1.00D-08  THRDEN = 1.00D-10

 CCSD(T)     terms to be evaluated (factor= 1.000)


 Number of core orbitals:           1 (   1 )
 Number of closed-shell orbitals:   4 (   4 )
 Number of external orbitals:     225 ( 225 )

 Molecular orbitals read from record     2102.2  Type=RHF/CANONICAL (state 1.1)

 Number of N-1 electron functions:               4
 Number of N-2 electron functions:              10
 Number of singly external CSFs:               900
 Number of doubly external CSFs:            405450
 Total number of CSFs:                      406351

 Length of J-op  integral file:               0.00 MB
 Length of K-op  integral file:               3.65 MB
 Length of 3-ext integral record:             0.00 MB

 Memory could be reduced to 75.63 Mwords without degradation in triples

 Integral transformation finished. Total CPU:  12.36 sec, npass=  1  Memory used:  32.52 MW

 Reference energy:                    -40.21327400

 MP2 singlet pair energy:              -0.14544675
 MP2 triplet pair energy:              -0.05506344
 MP2 correlation energy:               -0.20051019
 MP2 total energy:                    -40.41378418

 SCS-MP2 correlation energy:           -0.20879779   (PS=  1.200000  PT=  0.333333)
 SCS-MP2 total energy:                -40.42207179

 ITER.      SQ.NORM     CORR.ENERGY   TOTAL ENERGY   ENERGY CHANGE        DEN1      VAR(S)    VAR(P)  DIIS     TIME  TIME/IT
   1      1.07100956    -0.21905884   -40.43233283    -0.01854865    -0.01309544  0.46D-03  0.10D-02  1  1    16.15     3.83
   2      1.07650278    -0.22015996   -40.43343396    -0.00110112    -0.00567795  0.13D-04  0.71D-04  2  2    20.04     3.90
   3      1.07773110    -0.22021330   -40.43348729    -0.00005334    -0.00078800  0.16D-05  0.48D-05  3  3    23.87     3.92
   4      1.07803513    -0.22022230   -40.43349629    -0.00000900    -0.00012815  0.92D-07  0.22D-06  4  4    27.75     3.93
   5      1.07808132    -0.22022123   -40.43349523     0.00000107    -0.00001886  0.57D-08  0.16D-07  5  5    31.61     3.93
   6      1.07808615    -0.22022044   -40.43349443     0.00000079    -0.00000156  0.45D-09  0.11D-08  6  6    35.43     3.94
   7      1.07808686    -0.22022029   -40.43349428     0.00000015    -0.00000033  0.32D-10  0.89D-10  6  1    39.29     3.94
   8      1.07808689    -0.22022032   -40.43349432    -0.00000003     0.00000012  0.26D-11  0.50D-11  6  2    43.12     3.94
   9      1.07808690    -0.22022032   -40.43349432    -0.00000000     0.00000002  0.28D-12  0.45D-12  6  3    46.92     3.94
  10      1.07808690    -0.22022032   -40.43349432     0.00000000     0.00000001  0.26D-13  0.48D-13  6  4    50.71     3.94
  11      1.07808689    -0.22022032   -40.43349432     0.00000000     0.00000001  0.22D-14  0.48D-14  6  5    54.61     3.94
  12      1.07808689    -0.22022032   -40.43349432     0.00000000     0.00000000  0.47D-16  0.56D-15  6  6    58.46     3.94
  13      1.07808688    -0.22022032   -40.43349432    -0.00000000     0.00000000  0.73D-17  0.60D-16  6  1    62.32     3.95
  14      1.07808688    -0.22022032   -40.43349432    -0.00000000     0.00000000  0.14D-17  0.76D-17  6  2    66.18     3.95

 Norm of t1 vector:      0.02946909      S-energy:     0.00000000      T1 diagnostic:  0.00736727
                                                                       D1 diagnostic:  0.01186321

 Total CPU time for triples:     34.30 sec


 RESULTS
 =======

  Reference energy                    -40.213273995677
  CCSD singlet pair energy             -0.166727229413
  CCSD triplet pair energy             -0.053493094634
  CCSD correlation energy              -0.220220324023

  Triples (T) contribution             -0.006422451272
  Total correlation energy             -0.226642775295

  CCSD total energy                   -40.433494319701
  CCSD[T] energy                      -40.440099319836
  CCSD-T energy                       -40.439848865008
 !CCSD(T) total energy                -40.439916770972

 Timing summary (sec):

 STEP                 CPU(USER)    SYS     CPU(TOT)    WALL
 Transformation         12.42      0.40     12.82     12.83
 CCSD iterations        53.78      1.46     55.24     55.33
 Triples                34.30      0.16     34.46     34.51

 Program statistics:

 Available memory in ccsd:              1999999916
 Min. memory needed in ccsd:               1865022
 Max. memory used in ccsd:                 2159652
 Max. memory used in cckext:               1451153 (14 integral passes)



 **********************************************************************************************************************************
 DATASETS  * FILE   NREC   LENGTH (MB)   RECORD NAMES
              1      19      222.33       500      610      700      900      950      970     1000      129      960     1100   
                                          VAR    BASINP    GEOM    SYMINP    ZMAT    AOBASIS   BASIS     P2S    ABASIS      S 
                                         1400     1410     1200     1210     1080     1600     1650     1700     1380   
                                           T        V       H0       H01     AOSYM     SMH    MOLCAS    OPER     JKOP   

              2       7       13.71       700     1000      520     2100      200     2101     2102   
                                         GEOM     BASIS   MCVARS     RHF    OPTIONS    RHF      RHF  

 PROGRAMS   *        TOTAL   CCSD(T)    HF-SCF       INT   CCSD(T)    HF-SCF       INT   CCSD(T)    HF-SCF       INT
 CPU TIMES  *       736.14    100.69     11.97      0.23    107.85     13.23      0.23    473.58     14.14     13.97
 REAL TIME  *       757.93 SEC
 DISK USED  *       570.36 MB (local),        7.63 GB (total)
 SF USED    *       504.31 MB
 GA USED    *         0.00 MB       (max)       0.00 MB       (current)
 **********************************************************************************************************************************
 Molecular orbitals read from record     2102.2  Type=RHF/CANONICAL (state 1.1)
 Occupation numbers read from record     2102.2  Type=RHF/RHF (state 1.1)
 Orbital energies read from record       2102.2  Type=RHF/CANONICAL (state 1.1)
 Redundancy group numbers read from rec  2102.2  Type=RHF/RHF (state 1.1)

 CCSD(T)/aug-cc-pVTZ energy=    -40.439916770972

         CCSD(T)          HF-SCF         CCSD(T)          HF-SCF         CCSD(T)          HF-SCF
    -40.43991677    -40.21327400    -76.34169457    -76.05837469   -116.78231520   -116.27174324
 **********************************************************************************************************************************
 Molpro calculation terminated
