
 Primary working directories    : /scratch/klimes/383098/molpro.DDCsusjPMm
 Secondary working directories  : /scratch/klimes/383098/molpro.DDCsusjPMm
 Wavefunction directory         : /scratch/klimes/383098/
 Main file repository           : /scratch/klimes/383098/molpro.DDCsusjPMm/

 id        : karlovklimes

 Nodes                      nprocs
 nc-20.cc.karlov.mff.cuni.cz    4

 Using customized tuning parameters: mindgm=1; mindgv=20; mindgc=4; mindgr=1; noblas=0; minvec=7
 default implementation of scratch files=sf  


 Variables initialized (930), CPU time= 0.01 sec
                                                                                 !gdirect
 memory,2000,m
 gthresh,orbital=1d-10,energy=1d-10,grid=1d-8
 
 symmetry,nosym
 angstrom
 geometry={
 O16        -6.031300000000      0.567500000000     -1.162700000000
 H31        -6.239000000000      1.445500000000     -0.783400000000
 H32        -6.065700000000     -0.057500000000     -0.412200000000
 C1        -3.277200000000      1.482500000000      1.271900000000
 H41        -2.464000000000      0.899600000000      1.651000000000
 H42        -3.160800000000      2.501000000000      1.578500000000
 H43        -4.201800000000      1.099200000000      1.650100000000
 H44        -3.268500000000      1.421000000000      0.203700000000
 }
 
 nkerna=1
 nkernb=1
 
 gf=0
 sing=1
 thrdum=1d-4
 gridthr=1d-8
 
 basis={
 set,orbital
 default,avtz
 set,jkfit
 default,avqz/jkfit
 set,mp2fit
 default,avqz/mp2fit
 set,ri
 default,avqz/optri
 set,tddft
 default,avqz/mp2fit
 }
 
 proc set_monomer1
 dummy,4,5,6,7,8
 endproc
 
 proc set_monomer2
 dummy,1,2,3
 endproc
 
                                                                                 !1234 energy
 {hf,accu=1.d-16}
 ccsd(t)
 
 set_monomer1
 {hf,accu=1.d-16}
 ccsd(t)
 
 set_monomer2
 {hf,accu=1.d-16}
 ccsd(t)
 
 Commands  initialized (760), CPU time= 0.01 sec, 617 directives.
 Default parameters read. Elapsed time= 0.20 sec

 Checking input...
 Passed
1


                                         ***  PROGRAM SYSTEM MOLPRO  ***
                                       Copyright, TTI GmbH Stuttgart, 2015
                                    Version 2019.1 linked Jan 14 2019 13:09:19


 **********************************************************************************************************************************
 LABEL *                                                                                 
  64 bit mpp version                                                                     DATE: 11-Mar-20          TIME: 13:05:08  
 **********************************************************************************************************************************

 SHA1:             d688ac825633d238f2093ded1675ba87ccd55965
 **********************************************************************************************************************************

 THRESHOLDS:

 ZERO    =  1.00D-12  ONEINT  =  1.00D-12  TWOINT  =  1.00D-11  PREFAC  =  1.00D-14  XXXXXX  =  1.00D-09  EORDER  =  1.00D-04
 ENERGY  =  1.00D-10  ETEST   =  0.00D+00  EDENS   =  0.00D+00  THRDEDEF=  1.00D-06  GRADIENT=  1.00D-02  STEP    =  1.00D-03
 ORBITAL =  1.00D-10  CIVEC   =  1.00D-05  COEFF   =  1.00D-04  PRINTCI =  5.00D-02  PUNCHCI =  9.90D+01  OPTGRAD =  3.00D-04
 OPTENERG=  1.00D-06  OPTSTEP =  3.00D-04  THRGRAD =  1.00D-10  COMPRESS=  1.00D-11  VARMIN  =  1.00D-07  VARMAX  =  1.00D-03
 THRDOUB =  0.00D+00  THRDIV  =  1.00D-05  THRRED  =  1.00D-07  THRPSP  =  1.00D+00  THRDC   =  1.00D-10  THRCS   =  1.00D-10
 THRNRM  =  1.00D-08  THREQ   =  0.00D+00  THRDE   =  1.00D+00  THRREF  =  1.00D-05  SPARFAC =  1.00D+00  THRDLP  =  1.00D-07
 THRDIA  =  1.00D-10  THRDLS  =  1.00D-07  THRGPS  =  0.00D+00  THRKEX  =  0.00D+00  THRDIS  =  2.00D-01  THRVAR  =  1.00D-10
 THRLOC  =  1.00D-06  THRGAP  =  1.00D-06  THRLOCT = -1.00D+00  THRGAPT = -1.00D+00  THRORB  =  1.00D-06  THRMLTP =  0.00D+00
 THRCPQCI=  1.00D-10  KEXTA   =  0.00D+00  THRCOARS=  0.00D+00  SYMTOL  =  1.00D-06  GRADTOL =  1.00D-06  THROVL  =  1.00D-08
 THRORTH =  1.00D-08  GRID    =  1.00D-08  GRIDMAX =  1.00D-03  DTMAX   =  0.00D+00  THROCCDE=  1.00D-01  THROCCDE=  1.00D-01
 THRPRINT=  2.50D-01


 Variable memory set to 2000000000 words,  buffer space 

 ZSYMEL=NOSYM
 ZUNIT=ANG


Geometry recognized as XYZ

 SETTING NKERNA         =         1.00000000                                  
 SETTING NKERNB         =         1.00000000                                  
 SETTING GF             =     0.00000000D+00                                  
 SETTING SING           =         1.00000000                                  
 SETTING THRDUM         =     1.00000000D-04                                  
 SETTING GRIDTHR        =     1.00000000D-08                                  
 SETTING BASIS          =    AVTZ


 Recomputing integrals since basis changed


 Using spherical harmonics

 Library entry O      S aug-cc-pVTZ          selected for orbital group  1
 Library entry O      P aug-cc-pVTZ          selected for orbital group  1
 Library entry O      D aug-cc-pVTZ          selected for orbital group  1
 Library entry O      F aug-cc-pVTZ          selected for orbital group  1
 Library entry H      S aug-cc-pVTZ          selected for orbital group  2
 Library entry H      P aug-cc-pVTZ          selected for orbital group  2
 Library entry H      D aug-cc-pVTZ          selected for orbital group  2
 Library entry C      S aug-cc-pVTZ          selected for orbital group  3
 Library entry C      P aug-cc-pVTZ          selected for orbital group  3
 Library entry C      D aug-cc-pVTZ          selected for orbital group  3
 Library entry C      F aug-cc-pVTZ          selected for orbital group  3


 PROGRAM * SEWARD (Integral evaluation for generally contracted gaussian basis sets)     Author: Roland Lindh, 1990

 Geometry written to block  1 of record 700


 Point group  C1  



 ATOMIC COORDINATES

 NR  ATOM    CHARGE       X              Y              Z

   1  O16     8.00  -11.397505175    1.072419576   -2.197184565
   2  H31     1.00  -11.790001291    2.731599113   -1.480411446
   3  H32     1.00  -11.462511754   -0.108659252   -0.778945109
   4  C1      6.00   -6.193010455    2.801518980    2.403542658
   5  H41     1.00   -4.656285171    1.699997622    3.119937832
   6  H42     1.00   -5.973046335    4.726205038    2.982932688
   7  H43     1.00   -7.940251230    2.077186956    3.118237078
   8  H44     1.00   -6.176569838    2.685300823    0.384937212

 Bond lengths in Bohr (Angstrom)

 1-2  1.849511731  1-3  1.846774542  4-5  2.021904040  4-6  2.022002335  4-7  2.021953343
     ( 0.978719459)     ( 0.977271001)     ( 1.069945541)     ( 1.069997556)     ( 1.069971630)

 4-8  2.022015060
     ( 1.070004290)

 Bond angles

  2-1-3  105.58293551   5-4-6  109.53398059   5-4-7  109.65604535   5-4-8  108.43490854

  6-4-7  109.49436728   6-4-8  109.86987750   7-4-8  109.83468330

 NUCLEAR CHARGE:                   20
 NUMBER OF PRIMITIVE AOS:         296
 NUMBER OF SYMMETRY AOS:          266
 NUMBER OF CONTRACTIONS:          230   (  230A   )
 NUMBER OF CORE ORBITALS:           2   (    2A   )
 NUMBER OF VALENCE ORBITALS:       14   (   14A   )


 NUCLEAR REPULSION ENERGY   36.77810311


 Basis set:  JKFIT                   
 Basis size:   740
 Attributes:
 Sphericals:   T
 Basis set:  MP2FIT                  
 Basis size:   816
 Attributes:
 Sphericals:   T
 Basis set:  RI                      
 Basis size:   556
 Attributes:
 Sphericals:   T
 Basis set:  TDDFT                   
 Basis size:   816
 Attributes:
 Sphericals:   T

 **********************************************************************************************************************************


 Eigenvalues of metric

         1 0.685E-04 0.888E-04 0.978E-04 0.102E-03 0.337E-03 0.393E-03 0.690E-03 0.754E-03


 Contracted 2-electron integrals neglected if value below      1.0D-14
 AO integral compression algorithm  1   Integral accuracy      1.0D-14

     2273.051 MB (compressed) written to integral file ( 70.9%)

     Node minimum: 529.007 MB, node maximum: 599.523 MB


 NUMBER OF SORTED TWO-ELECTRON INTEGRALS:   88219044.     BUFFER LENGTH:  32768
 NUMBER OF SEGMENTS:   6  SEGMENT LENGTH:   15998348      RECORD LENGTH: 524288

 Memory used in sort:      16.56 MW

 SORT1 READ   400769927. AND WROTE    83161651. INTEGRALS IN    242 RECORDS. CPU TIME:     7.18 SEC, REAL TIME:     8.08 SEC
 SORT2 READ   332771355. AND WROTE   352862895. INTEGRALS IN   8600 RECORDS. CPU TIME:     1.68 SEC, REAL TIME:     2.61 SEC

 Node minimum:    88205762.  Node maximum:    88225686. integrals

 OPERATOR DM      FOR CENTER  0  COORDINATES:    0.000000    0.000000    0.000000


 **********************************************************************************************************************************
 DATASETS  * FILE   NREC   LENGTH (MB)   RECORD NAMES
              1      18       32.04       500      610      700      900      950      970     1000      129      960     1100   
                                          VAR    BASINP    GEOM    SYMINP    ZMAT    AOBASIS   BASIS     P2S    ABASIS      S 
                                         1400     1410     1200     1210     1080     1600     1650     1700   
                                           T        V       H0       H01     AOSYM     SMH    MOLCAS    OPER   

 PROGRAMS   *        TOTAL       INT
 CPU TIMES  *        13.69     13.46
 REAL TIME  *        18.34 SEC
 DISK USED  *        32.49 MB (local),        6.37 GB (total)
 GA USED    *         0.00 MB       (max)       0.00 MB       (current)
 **********************************************************************************************************************************


 PROGRAM * RHF-SCF (CLOSED SHELL)       Authors: W. Meyer, H.-J. Werner


 NUMBER OF ELECTRONS:      10+   10-    SPACE SYMMETRY=1    SPIN SYMMETRY: Singlet 
 CONVERGENCE THRESHOLDS:    1.00E-08 (Density)    1.00E-11 (Energy)
 MAX. NUMBER OF ITERATIONS:       60
 INTERPOLATION TYPE:            DIIS
 INTERPOLATION STEPS:              2 (START)      1 (STEP)
 LEVEL SHIFTS:                  0.00 (CLOSED)  0.00 (OPEN) 



 Orbital guess generated from atomic densities. Full valence occupancy:   16

 Molecular orbital dump at record        2100.2

 Initial occupancy:  10

 ITERATION    DDIFF          GRAD             ENERGY        2-EL.EN.            DIPOLE MOMENTS         DIIS   ORB.
    1      0.000D+00      0.000D+00      -116.21385086    158.939335   -0.23107    0.24258    1.09202    0    start
    2      0.000D+00      0.521D-02      -116.25747515    154.147686   -0.09648    0.14278    0.61223    1    diag
    3      0.548D-02      0.305D-02      -116.27070609    156.144188   -0.13204    0.16795    0.73123    2    diag
    4      0.182D-02      0.453D-03      -116.27135609    156.033566   -0.13078    0.16541    0.72020    3    diag
    5      0.400D-03      0.132D-03      -116.27142265    156.027533   -0.13027    0.16540    0.71961    4    diag
    6      0.144D-03      0.324D-04      -116.27142642    156.033449   -0.12998    0.16523    0.71880    5    diag
    7      0.399D-04      0.626D-05      -116.27142663    156.031873   -0.12998    0.16523    0.71882    6    diag
    8      0.108D-04      0.158D-05      -116.27142665    156.032021   -0.12994    0.16521    0.71875    7    diag
    9      0.236D-05      0.353D-06      -116.27142665    156.031995   -0.12994    0.16520    0.71874    8    diag
   10      0.754D-06      0.417D-07      -116.27142665    156.031997   -0.12994    0.16520    0.71874    9    orth
   11      0.589D-07      0.107D-07      -116.27142665    156.031998   -0.12994    0.16520    0.71874    9    diag
   12      0.232D-07      0.278D-08      -116.27142665    156.031998   -0.12994    0.16520    0.71874    9    diag
   13      0.447D-08      0.722D-09      -116.27142665    156.031998   -0.12994    0.16520    0.71874    0    orth

 Final occupancy:  10

 !RHF STATE  1.1 Energy              -116.271426652205
 Nuclear energy                        36.77810311
 One-electron energy                 -231.06552894
 Two-electron energy                   78.01599918
 Virial quotient                       -1.00107395
 !RHF STATE  1.1 Dipole moment         -0.12993908     0.16520405     0.71873709
 Dipole moment /Debye                  -0.33025056     0.41987930     1.82672782

 Orbital energies:

         1.1          2.1          3.1          4.1          5.1          6.1          7.1          8.1          9.1         10.1
    -20.569266   -11.199976    -1.341645    -0.953840    -0.707824    -0.578700    -0.554810    -0.553538    -0.550362    -0.506803

        11.1         12.1
      0.025900     0.041364


 HOMO     10.1    -0.506803 =     -13.7908eV
 LUMO     11.1     0.025900 =       0.7048eV
 LUMO-HOMO         0.532703 =      14.4956eV


 **********************************************************************************************************************************
 DATASETS  * FILE   NREC   LENGTH (MB)   RECORD NAMES
              1      18       32.04       500      610      700      900      950      970     1000      129      960     1100   
                                          VAR    BASINP    GEOM    SYMINP    ZMAT    AOBASIS   BASIS     P2S    ABASIS      S 
                                         1400     1410     1200     1210     1080     1600     1650     1700   
                                           T        V       H0       H01     AOSYM     SMH    MOLCAS    OPER   

              2       4        3.96       700     1000      520     2100   
                                         GEOM     BASIS   MCVARS     RHF  

 PROGRAMS   *        TOTAL    HF-SCF       INT
 CPU TIMES  *        28.04     14.35     13.46
 REAL TIME  *        33.55 SEC
 DISK USED  *        39.90 MB (local),        6.40 GB (total)
 SF USED    *         0.21 MB
 GA USED    *         0.00 MB       (max)       0.00 MB       (current)
 **********************************************************************************************************************************

 Basis set:  JKFIT                   
 Basis size:   740
 Attributes:
 Sphericals:   T
 Basis set:  MP2FIT                  
 Basis size:   816
 Attributes:
 Sphericals:   T
 Basis set:  RI                      
 Basis size:   556
 Attributes:
 Sphericals:   T
 Basis set:  TDDFT                   
 Basis size:   816
 Attributes:
 Sphericals:   T

 PROGRAM * CCSD (Closed-shell coupled cluster)     Authors: C. Hampel, H.-J. Werner, 1991, M. Deegan, P.J. Knowles, 1992


 Convergence thresholds:  THRVAR = 1.00D-08  THRDEN = 1.00D-10

 CCSD(T)     terms to be evaluated (factor= 1.000)


 Number of core orbitals:           2 (   2 )
 Number of closed-shell orbitals:   8 (   8 )
 Number of external orbitals:     220 ( 220 )

 Molecular orbitals read from record     2100.2  Type=RHF/CANONICAL (state 1.1)

 Number of N-1 electron functions:               8
 Number of N-2 electron functions:              36
 Number of singly external CSFs:              1760
 Number of doubly external CSFs:           1549680
 Total number of CSFs:                     1551441

 Length of J-op  integral file:               0.00 MB
 Length of K-op  integral file:               3.65 MB
 Length of 3-ext integral record:             0.00 MB

 Memory could be reduced to 116.39 Mwords without degradation in triples

 Integral transformation finished. Total CPU:  23.92 sec, npass=  1  Memory used:  59.35 MW

 Reference energy:                   -116.27142665

 MP2 singlet pair energy:              -0.31741402
 MP2 triplet pair energy:              -0.15389935
 MP2 correlation energy:               -0.47131338
 MP2 total energy:                   -116.74274003

 SCS-MP2 correlation energy:           -0.47665643   (PS=  1.200000  PT=  0.333333)
 SCS-MP2 total energy:               -116.74808308

 ITER.      SQ.NORM     CORR.ENERGY   TOTAL ENERGY   ENERGY CHANGE        DEN1      VAR(S)    VAR(P)  DIIS     TIME  TIME/IT
   1      1.13545006    -0.49399156  -116.76541821    -0.02267818    -0.01145241  0.14D-02  0.20D-02  1  1    38.45    14.50
   2      1.14452174    -0.49540784  -116.76683450    -0.00141628    -0.01037657  0.23D-04  0.24D-03  2  2    53.07    14.67
   3      1.14752319    -0.49553886  -116.76696551    -0.00013101    -0.00196264  0.14D-04  0.11D-04  3  3    67.72    14.75
   4      1.14832893    -0.49553969  -116.76696634    -0.00000083    -0.00036316  0.58D-06  0.12D-05  4  4    82.33    14.78
   5      1.14848689    -0.49553697  -116.76696362     0.00000272    -0.00005040  0.21D-06  0.78D-07  5  5    97.00    14.80
   6      1.14853482    -0.49553240  -116.76695905     0.00000456    -0.00001211  0.19D-07  0.56D-08  6  6   111.58    14.81
   7      1.14854337    -0.49553178  -116.76695843     0.00000062    -0.00000097  0.17D-08  0.10D-08  6  2   126.22    14.83
   8      1.14854542    -0.49553162  -116.76695828     0.00000015    -0.00000016  0.35D-09  0.11D-09  6  1   140.87    14.84
   9      1.14854620    -0.49553158  -116.76695823     0.00000004     0.00000015  0.28D-10  0.14D-10  6  3   155.51    14.84
  10      1.14854642    -0.49553156  -116.76695822     0.00000002    -0.00000001  0.34D-11  0.21D-11  6  4   170.20    14.84
  11      1.14854638    -0.49553157  -116.76695822    -0.00000001     0.00000006  0.66D-12  0.29D-12  6  6   184.81    14.85
  12      1.14854636    -0.49553157  -116.76695822    -0.00000000     0.00000002  0.12D-12  0.38D-13  6  5   199.42    14.85
  13      1.14854634    -0.49553157  -116.76695823    -0.00000000     0.00000001  0.21D-13  0.64D-14  6  2   214.12    14.85
  14      1.14854633    -0.49553157  -116.76695823    -0.00000000     0.00000000  0.32D-14  0.14D-14  6  1   228.74    14.85
  15      1.14854633    -0.49553157  -116.76695823    -0.00000000     0.00000000  0.35D-15  0.17D-15  6  3   243.43    14.85
  16      1.14854633    -0.49553157  -116.76695823    -0.00000000    -0.00000000  0.79D-16  0.28D-16  6  4   258.13    14.86

 Norm of t1 vector:      0.05132015      S-energy:    -0.00000000      T1 diagnostic:  0.00907221
                                                                       D1 diagnostic:  0.02232041


 Total CPU time for triples:    217.44 sec


 RESULTS
 =======

  Reference energy                   -116.271426652204
  CCSD singlet pair energy             -0.354453224965
  CCSD triplet pair energy             -0.141078349526
  CCSD correlation energy              -0.495531574507

  Triples (T) contribution             -0.015404172332
  Total correlation energy             -0.510935746839

  CCSD total energy                  -116.766958226711
  CCSD[T] energy                     -116.782887596552
  CCSD-T energy                      -116.782109330795
 !CCSD(T) total energy               -116.782362399043

 Timing summary (sec):

 STEP                 CPU(USER)    SYS     CPU(TOT)    WALL
 Transformation         24.10      0.86     24.96     25.04
 CCSD iterations       234.05      3.47    237.52    237.77
 Triples               217.44      1.09    218.53    218.75

 Program statistics:

 Available memory in ccsd:              1999999734
 Min. memory needed in ccsd:               4617529
 Max. memory used in ccsd:                 5944569
 Max. memory used in cckext:               4248553 (16 integral passes)



 **********************************************************************************************************************************
 DATASETS  * FILE   NREC   LENGTH (MB)   RECORD NAMES
              1      19      398.13       500      610      700      900      950      970     1000      129      960     1100   
                                          VAR    BASINP    GEOM    SYMINP    ZMAT    AOBASIS   BASIS     P2S    ABASIS      S 
                                         1400     1410     1200     1210     1080     1600     1650     1700     1380   
                                           T        V       H0       H01     AOSYM     SMH    MOLCAS    OPER     JKOP   

              2       4        3.96       700     1000      520     2100   
                                         GEOM     BASIS   MCVARS     RHF  

 PROGRAMS   *        TOTAL   CCSD(T)    HF-SCF       INT
 CPU TIMES  *       503.85    475.80     14.35     13.46
 REAL TIME  *       515.87 SEC
 DISK USED  *       570.36 MB (local),        8.01 GB (total)
 SF USED    *       504.31 MB
 GA USED    *         0.00 MB       (max)       0.00 MB       (current)
 **********************************************************************************************************************************

 Running procedure: SET_MONOMER1

 Dummy atoms: C1  H41  H42  H43  H44


 Recomputing one-electron integrals since nuclear charges changed


 PROGRAM * SEWARD (Integral evaluation for generally contracted gaussian basis sets)     Author: Roland Lindh, 1990

 Geometry written to block  1 of record 700


 Point group  C1  



 ATOMIC COORDINATES

 NR  ATOM    CHARGE       X              Y              Z

   1  O16     8.00  -11.397505175    1.072419576   -2.197184565
   2  H31     1.00  -11.790001291    2.731599113   -1.480411446
   3  H32     1.00  -11.462511754   -0.108659252   -0.778945109
   4  C1      0.00   -6.193010455    2.801518980    2.403542658
   5  H41     0.00   -4.656285171    1.699997622    3.119937832
   6  H42     0.00   -5.973046335    4.726205038    2.982932688
   7  H43     0.00   -7.940251230    2.077186956    3.118237078
   8  H44     0.00   -6.176569838    2.685300823    0.384937212

 Bond lengths in Bohr (Angstrom)

 1-2  1.849511731  1-3  1.846774542  4-5  2.021904040  4-6  2.022002335  4-7  2.021953343
     ( 0.978719459)     ( 0.977271001)     ( 1.069945541)     ( 1.069997556)     ( 1.069971630)

 4-8  2.022015060
     ( 1.070004290)

 Bond angles

  2-1-3  105.58293551   5-4-6  109.53398059   5-4-7  109.65604535   5-4-8  108.43490854

  6-4-7  109.49436728   6-4-8  109.86987750   7-4-8  109.83468330

 NUCLEAR CHARGE:                   10
 NUMBER OF PRIMITIVE AOS:         296
 NUMBER OF SYMMETRY AOS:          266
 NUMBER OF CONTRACTIONS:          230   (  230A   )
 NUMBER OF CORE ORBITALS:           1   (    1A   )
 NUMBER OF VALENCE ORBITALS:        6   (    6A   )

 MOLECULE CHANGED: INITIALIZING OCCUPATION AND DUMP RECORDS


 NUCLEAR REPULSION ENERGY    8.99703174

 Basis set:  JKFIT                   
 Basis size:   740
 Attributes:
 Sphericals:   T
 Basis set:  MP2FIT                  
 Basis size:   816
 Attributes:
 Sphericals:   T
 Basis set:  RI                      
 Basis size:   556
 Attributes:
 Sphericals:   T
 Basis set:  TDDFT                   
 Basis size:   816
 Attributes:
 Sphericals:   T

 Eigenvalues of metric

         1 0.685E-04 0.888E-04 0.978E-04 0.102E-03 0.337E-03 0.393E-03 0.690E-03 0.754E-03


 Contracted 2-electron integrals neglected if value below      1.0D-14

 OPERATOR DM      FOR CENTER  0  COORDINATES:    0.000000    0.000000    0.000000


 **********************************************************************************************************************************
 DATASETS  * FILE   NREC   LENGTH (MB)   RECORD NAMES
              1      18       32.04       500      610      700      900      950      970     1000      129      960     1100   
                                          VAR    BASINP    GEOM    SYMINP    ZMAT    AOBASIS   BASIS     P2S    ABASIS      S 
                                         1400     1410     1200     1210     1080     1600     1650     1700   
                                           T        V       H0       H01     AOSYM     SMH    MOLCAS    OPER   

              2       5        5.05       700     1000      520     2100      200   
                                         GEOM     BASIS   MCVARS     RHF    OPTIONS    

 PROGRAMS   *        TOTAL       INT   CCSD(T)    HF-SCF       INT
 CPU TIMES  *       504.09      0.23    475.80     14.35     13.46
 REAL TIME  *       516.62 SEC
 DISK USED  *       570.36 MB (local),        8.02 GB (total)
 SF USED    *       504.31 MB
 GA USED    *         0.00 MB       (max)       0.00 MB       (current)
 **********************************************************************************************************************************


 PROGRAM * RHF-SCF (CLOSED SHELL)       Authors: W. Meyer, H.-J. Werner


 NUMBER OF ELECTRONS:       5+    5-    SPACE SYMMETRY=1    SPIN SYMMETRY: Singlet 
 CONVERGENCE THRESHOLDS:    1.00E-08 (Density)    1.00E-11 (Energy)
 MAX. NUMBER OF ITERATIONS:       60
 INTERPOLATION TYPE:            DIIS
 INTERPOLATION STEPS:              2 (START)      1 (STEP)
 LEVEL SHIFTS:                  0.00 (CLOSED)  0.00 (OPEN) 



 Orbital guess generated from atomic densities. Full valence occupancy:    7

 Molecular orbital dump at record        2101.2

 Initial occupancy:   5

 ITERATION    DDIFF          GRAD             ENERGY        2-EL.EN.            DIPOLE MOMENTS         DIIS   ORB.
    1      0.000D+00      0.000D+00       -76.02031362     77.377768   -0.23478    0.24569    1.09503    0    start
    2      0.000D+00      0.639D-02       -76.04691254     73.749278   -0.13675    0.14263    0.63784    1    diag
    3      0.444D-02      0.407D-02       -76.05825751     75.353161   -0.16099    0.16804    0.75100    2    diag
    4      0.161D-02      0.376D-03       -76.05844823     75.263820   -0.16005    0.16698    0.74667    3    diag
    5      0.206D-03      0.104D-03       -76.05846816     75.277897   -0.15969    0.16657    0.74501    4    diag
    6      0.647D-04      0.203D-04       -76.05846939     75.277023   -0.15962    0.16649    0.74470    5    diag
    7      0.168D-04      0.401D-05       -76.05846945     75.277151   -0.15959    0.16646    0.74458    6    diag
    8      0.452D-05      0.745D-06       -76.05846945     75.277136   -0.15958    0.16645    0.74454    7    diag
    9      0.760D-06      0.954D-07       -76.05846945     75.277127   -0.15958    0.16645    0.74453    8    diag
   10      0.902D-07      0.235D-07       -76.05846945     75.277131   -0.15958    0.16645    0.74453    9    orth
   11      0.244D-07      0.417D-08       -76.05846945     75.277130   -0.15958    0.16645    0.74453    9    diag
   12      0.493D-08      0.604D-09       -76.05846945     75.277130   -0.15958    0.16645    0.74453    0    orth

 Final occupancy:   5

 !RHF STATE  1.1 Energy               -76.058469451278
 Nuclear energy                         8.99703174
 One-electron energy                 -122.69406637
 Two-electron energy                   37.63856518
 Virial quotient                       -1.00239097
 !RHF STATE  1.1 Dipole moment         -0.15958291     0.16644966     0.74453455
 Dipole moment /Debye                  -0.40559274     0.42304512     1.89229412

 Orbital energies:

         1.1          2.1          3.1          4.1          5.1          6.1          7.1
    -20.570299    -1.342375    -0.708564    -0.578877    -0.508353     0.019322     0.039071


 HOMO      5.1    -0.508353 =     -13.8330eV
 LUMO      6.1     0.019322 =       0.5258eV
 LUMO-HOMO         0.527676 =      14.3588eV


 **********************************************************************************************************************************
 DATASETS  * FILE   NREC   LENGTH (MB)   RECORD NAMES
              1      18       32.04       500      610      700      900      950      970     1000      129      960     1100   
                                          VAR    BASINP    GEOM    SYMINP    ZMAT    AOBASIS   BASIS     P2S    ABASIS      S 
                                         1400     1410     1200     1210     1080     1600     1650     1700   
                                           T        V       H0       H01     AOSYM     SMH    MOLCAS    OPER   

              2       6        9.09       700     1000      520     2100      200     2101   
                                         GEOM     BASIS   MCVARS     RHF    OPTIONS    RHF  

 PROGRAMS   *        TOTAL    HF-SCF       INT   CCSD(T)    HF-SCF       INT
 CPU TIMES  *       517.35     13.26      0.23    475.80     14.35     13.46
 REAL TIME  *       530.74 SEC
 DISK USED  *       570.36 MB (local),        8.02 GB (total)
 SF USED    *       504.31 MB
 GA USED    *         0.00 MB       (max)       0.00 MB       (current)
 **********************************************************************************************************************************

 Basis set:  JKFIT                   
 Basis size:   740
 Attributes:
 Sphericals:   T
 Basis set:  MP2FIT                  
 Basis size:   816
 Attributes:
 Sphericals:   T
 Basis set:  RI                      
 Basis size:   556
 Attributes:
 Sphericals:   T
 Basis set:  TDDFT                   
 Basis size:   816
 Attributes:
 Sphericals:   T

 PROGRAM * CCSD (Closed-shell coupled cluster)     Authors: C. Hampel, H.-J. Werner, 1991, M. Deegan, P.J. Knowles, 1992


 Convergence thresholds:  THRVAR = 1.00D-08  THRDEN = 1.00D-10

 CCSD(T)     terms to be evaluated (factor= 1.000)


 Number of core orbitals:           1 (   1 )
 Number of closed-shell orbitals:   4 (   4 )
 Number of external orbitals:     225 ( 225 )

 Molecular orbitals read from record     2101.2  Type=RHF/CANONICAL (state 1.1)

 Number of N-1 electron functions:               4
 Number of N-2 electron functions:              10
 Number of singly external CSFs:               900
 Number of doubly external CSFs:            405450
 Total number of CSFs:                      406351

 Length of J-op  integral file:               0.00 MB
 Length of K-op  integral file:               3.65 MB
 Length of 3-ext integral record:             0.00 MB

 Memory could be reduced to 75.63 Mwords without degradation in triples

 Integral transformation finished. Total CPU:  12.49 sec, npass=  1  Memory used:  32.52 MW

 Reference energy:                    -76.05846945

 MP2 singlet pair energy:              -0.17178590
 MP2 triplet pair energy:              -0.09825843
 MP2 correlation energy:               -0.27004433
 MP2 total energy:                    -76.32851378

 SCS-MP2 correlation energy:           -0.26728165   (PS=  1.200000  PT=  0.333333)
 SCS-MP2 total energy:                -76.32575111

 ITER.      SQ.NORM     CORR.ENERGY   TOTAL ENERGY   ENERGY CHANGE        DEN1      VAR(S)    VAR(P)  DIIS     TIME  TIME/IT
   1      1.06416579    -0.27418107   -76.33265052    -0.00413674     0.00162096  0.93D-03  0.10D-02  1  1    16.46     3.97
   2      1.06802536    -0.27448905   -76.33295850    -0.00030798    -0.00493576  0.12D-04  0.13D-03  2  2    20.41     4.02
   3      1.06948261    -0.27457355   -76.33304300    -0.00008450    -0.00094041  0.11D-04  0.59D-05  3  3    24.39     4.04
   4      1.06995785    -0.27456716   -76.33303661     0.00000639    -0.00021891  0.51D-06  0.73D-06  4  4    28.31     4.05
   5      1.07006470    -0.27456418   -76.33303363     0.00000297    -0.00003370  0.17D-06  0.49D-07  5  5    32.29     4.07
   6      1.07010153    -0.27456080   -76.33303025     0.00000338    -0.00000752  0.17D-07  0.40D-08  6  6    36.29     4.07
   7      1.07010903    -0.27456045   -76.33302990     0.00000035    -0.00000072  0.15D-08  0.84D-09  6  1    40.31     4.08
   8      1.07011093    -0.27456036   -76.33302981     0.00000010    -0.00000015  0.25D-09  0.96D-10  6  2    44.20     4.08
   9      1.07011150    -0.27456032   -76.33302977     0.00000004     0.00000020  0.20D-10  0.86D-11  6  3    48.21     4.08
  10      1.07011169    -0.27456030   -76.33302975     0.00000002    -0.00000002  0.28D-11  0.14D-11  6  4    52.17     4.08
  11      1.07011168    -0.27456030   -76.33302976    -0.00000001     0.00000002  0.62D-12  0.17D-12  6  5    56.09     4.08
  12      1.07011168    -0.27456030   -76.33302976     0.00000000     0.00000000  0.10D-12  0.33D-13  6  6    60.04     4.08
  13      1.07011167    -0.27456031   -76.33302976    -0.00000000     0.00000000  0.16D-13  0.60D-14  6  1    63.98     4.08
  14      1.07011167    -0.27456031   -76.33302976    -0.00000000     0.00000000  0.15D-14  0.71D-15  6  2    67.98     4.08
  15      1.07011166    -0.27456031   -76.33302976    -0.00000000     0.00000000  0.17D-15  0.12D-15  6  3    71.94     4.08
  16      1.07011166    -0.27456031   -76.33302976    -0.00000000     0.00000000  0.34D-16  0.18D-16  6  4    75.91     4.08

 Norm of t1 vector:      0.04119000      S-energy:    -0.00000000      T1 diagnostic:  0.01029750
                                                                       D1 diagnostic:  0.02187845


 Total CPU time for triples:     34.40 sec


 RESULTS
 =======

  Reference energy                    -76.058469451278
  CCSD singlet pair energy             -0.187611854451
  CCSD triplet pair energy             -0.086948451873
  CCSD correlation energy              -0.274560306379

  Triples (T) contribution             -0.008840588283
  Total correlation energy             -0.283400894662

  CCSD total energy                   -76.333029757658
  CCSD[T] energy                      -76.342207219936
  CCSD-T energy                       -76.341688928922
 !CCSD(T) total energy                -76.341870345940

 Timing summary (sec):

 STEP                 CPU(USER)    SYS     CPU(TOT)    WALL
 Transformation         12.53      0.44     12.97     12.98
 CCSD iterations        63.40      1.93     65.33     65.39
 Triples                34.40      0.17     34.57     34.60

 Program statistics:

 Available memory in ccsd:              1999999921
 Min. memory needed in ccsd:               1865022
 Max. memory used in ccsd:                 2159652
 Max. memory used in cckext:               1451153 (16 integral passes)



 **********************************************************************************************************************************
 DATASETS  * FILE   NREC   LENGTH (MB)   RECORD NAMES
              1      19      222.33       500      610      700      900      950      970     1000      129      960     1100   
                                          VAR    BASINP    GEOM    SYMINP    ZMAT    AOBASIS   BASIS     P2S    ABASIS      S 
                                         1400     1410     1200     1210     1080     1600     1650     1700     1380   
                                           T        V       H0       H01     AOSYM     SMH    MOLCAS    OPER     JKOP   

              2       6        9.09       700     1000      520     2100      200     2101   
                                         GEOM     BASIS   MCVARS     RHF    OPTIONS    RHF  

 PROGRAMS   *        TOTAL   CCSD(T)    HF-SCF       INT   CCSD(T)    HF-SCF       INT
 CPU TIMES  *       627.91    110.56     13.26      0.23    475.80     14.35     13.46
 REAL TIME  *       644.42 SEC
 DISK USED  *       570.36 MB (local),        8.02 GB (total)
 SF USED    *       504.31 MB
 GA USED    *         0.00 MB       (max)       0.00 MB       (current)
 **********************************************************************************************************************************

 Running procedure: SET_MONOMER2

 Dummy atoms: O16  H31  H32


 Recomputing one-electron integrals since nuclear charges changed


 PROGRAM * SEWARD (Integral evaluation for generally contracted gaussian basis sets)     Author: Roland Lindh, 1990

 Geometry written to block  1 of record 700


 Point group  C1  



 ATOMIC COORDINATES

 NR  ATOM    CHARGE       X              Y              Z

   1  O16     0.00  -11.397505175    1.072419576   -2.197184565
   2  H31     0.00  -11.790001291    2.731599113   -1.480411446
   3  H32     0.00  -11.462511754   -0.108659252   -0.778945109
   4  C1      6.00   -6.193010455    2.801518980    2.403542658
   5  H41     1.00   -4.656285171    1.699997622    3.119937832
   6  H42     1.00   -5.973046335    4.726205038    2.982932688
   7  H43     1.00   -7.940251230    2.077186956    3.118237078
   8  H44     1.00   -6.176569838    2.685300823    0.384937212

 Bond lengths in Bohr (Angstrom)

 1-2  1.849511731  1-3  1.846774542  4-5  2.021904040  4-6  2.022002335  4-7  2.021953343
     ( 0.978719459)     ( 0.977271001)     ( 1.069945541)     ( 1.069997556)     ( 1.069971630)

 4-8  2.022015060
     ( 1.070004290)

 Bond angles

  2-1-3  105.58293551   5-4-6  109.53398059   5-4-7  109.65604535   5-4-8  108.43490854

  6-4-7  109.49436728   6-4-8  109.86987750   7-4-8  109.83468330

 NUCLEAR CHARGE:                   10
 NUMBER OF PRIMITIVE AOS:         296
 NUMBER OF SYMMETRY AOS:          266
 NUMBER OF CONTRACTIONS:          230   (  230A   )
 NUMBER OF CORE ORBITALS:           1   (    1A   )
 NUMBER OF VALENCE ORBITALS:        8   (    8A   )

 MOLECULE CHANGED: INITIALIZING OCCUPATION AND DUMP RECORDS


 NUCLEAR REPULSION ENERGY   13.68681606

 Basis set:  JKFIT                   
 Basis size:   740
 Attributes:
 Sphericals:   T
 Basis set:  MP2FIT                  
 Basis size:   816
 Attributes:
 Sphericals:   T
 Basis set:  RI                      
 Basis size:   556
 Attributes:
 Sphericals:   T
 Basis set:  TDDFT                   
 Basis size:   816
 Attributes:
 Sphericals:   T

 Eigenvalues of metric

         1 0.685E-04 0.888E-04 0.978E-04 0.102E-03 0.337E-03 0.393E-03 0.690E-03 0.754E-03


 Contracted 2-electron integrals neglected if value below      1.0D-14

 OPERATOR DM      FOR CENTER  0  COORDINATES:    0.000000    0.000000    0.000000


 **********************************************************************************************************************************
 DATASETS  * FILE   NREC   LENGTH (MB)   RECORD NAMES
              1      18       32.04       500      610      700      900      950      970     1000      129      960     1100   
                                          VAR    BASINP    GEOM    SYMINP    ZMAT    AOBASIS   BASIS     P2S    ABASIS      S 
                                         1400     1410     1200     1210     1080     1600     1650     1700   
                                           T        V       H0       H01     AOSYM     SMH    MOLCAS    OPER   

              2       6        9.09       700     1000      520     2100      200     2101   
                                         GEOM     BASIS   MCVARS     RHF    OPTIONS    RHF  

 PROGRAMS   *        TOTAL       INT   CCSD(T)    HF-SCF       INT   CCSD(T)    HF-SCF       INT
 CPU TIMES  *       628.16      0.24    110.56     13.26      0.23    475.80     14.35     13.46
 REAL TIME  *       645.14 SEC
 DISK USED  *       570.36 MB (local),        8.02 GB (total)
 SF USED    *       504.31 MB
 GA USED    *         0.00 MB       (max)       0.00 MB       (current)
 **********************************************************************************************************************************


 PROGRAM * RHF-SCF (CLOSED SHELL)       Authors: W. Meyer, H.-J. Werner


 NUMBER OF ELECTRONS:       5+    5-    SPACE SYMMETRY=1    SPIN SYMMETRY: Singlet 
 CONVERGENCE THRESHOLDS:    1.00E-08 (Density)    1.00E-11 (Energy)
 MAX. NUMBER OF ITERATIONS:       60
 INTERPOLATION TYPE:            DIIS
 INTERPOLATION STEPS:              2 (START)      1 (STEP)
 LEVEL SHIFTS:                  0.00 (CLOSED)  0.00 (OPEN) 



 Orbital guess generated from atomic densities. Full valence occupancy:    9

 Molecular orbital dump at record        2102.2

 Initial occupancy:   5

 ITERATION    DDIFF          GRAD             ENERGY        2-EL.EN.            DIPOLE MOMENTS         DIIS   ORB.
    1      0.000D+00      0.000D+00       -40.19358677     53.494035    0.00412   -0.00275   -0.00128    0    start
    2      0.000D+00      0.353D-02       -40.21070413     52.213678    0.00131   -0.00087   -0.00036    1    diag
    3      0.323D-02      0.137D-02       -40.21295257     52.664847    0.00184   -0.00122   -0.00053    2    diag
    4      0.902D-03      0.342D-03       -40.21326804     52.609820    0.00163   -0.00109   -0.00046    3    diag
    5      0.297D-03      0.444D-04       -40.21327343     52.612159    0.00161   -0.00107   -0.00045    4    diag
    6      0.816D-04      0.344D-05       -40.21327347     52.612256    0.00161   -0.00107   -0.00045    5    diag
    7      0.668D-05      0.264D-06       -40.21327347     52.612222    0.00160   -0.00107   -0.00045    6    diag
    8      0.101D-05      0.222D-07       -40.21327347     52.612222    0.00161   -0.00107   -0.00045    7    diag
    9      0.188D-06      0.287D-08       -40.21327347     52.612222    0.00160   -0.00107   -0.00045    8    diag
   10      0.106D-07      0.802D-09       -40.21327347     52.612222    0.00160   -0.00107   -0.00045    9    orth
   11      0.118D-08      0.106D-09       -40.21327347     52.612222    0.00160   -0.00107   -0.00045    0    orth

 Final occupancy:   5

 !RHF STATE  1.1 Energy               -40.213273468971
 Nuclear energy                        13.68681606
 One-electron energy                  -80.20620076
 Two-electron energy                   26.30611123
 Virial quotient                       -0.99870341
 !RHF STATE  1.1 Dipole moment          0.00160495    -0.00106955    -0.00044941
 Dipole moment /Debye                   0.00407910    -0.00271834    -0.00114220

 Orbital energies:

         1.1          2.1          3.1          4.1          5.1          6.1          7.1
    -11.197211    -0.950742    -0.551695    -0.549760    -0.547581     0.027786     0.042056


 HOMO      5.1    -0.547581 =     -14.9004eV
 LUMO      6.1     0.027786 =       0.7561eV
 LUMO-HOMO         0.575367 =      15.6565eV


 **********************************************************************************************************************************
 DATASETS  * FILE   NREC   LENGTH (MB)   RECORD NAMES
              1      18       32.04       500      610      700      900      950      970     1000      129      960     1100   
                                          VAR    BASINP    GEOM    SYMINP    ZMAT    AOBASIS   BASIS     P2S    ABASIS      S 
                                         1400     1410     1200     1210     1080     1600     1650     1700   
                                           T        V       H0       H01     AOSYM     SMH    MOLCAS    OPER   

              2       7       13.71       700     1000      520     2100      200     2101     2102   
                                         GEOM     BASIS   MCVARS     RHF    OPTIONS    RHF      RHF  

 PROGRAMS   *        TOTAL    HF-SCF       INT   CCSD(T)    HF-SCF       INT   CCSD(T)    HF-SCF       INT
 CPU TIMES  *       640.37     12.20      0.24    110.56     13.26      0.23    475.80     14.35     13.46
 REAL TIME  *       658.18 SEC
 DISK USED  *       570.36 MB (local),        8.02 GB (total)
 SF USED    *       504.31 MB
 GA USED    *         0.00 MB       (max)       0.00 MB       (current)
 **********************************************************************************************************************************

 Basis set:  JKFIT                   
 Basis size:   740
 Attributes:
 Sphericals:   T
 Basis set:  MP2FIT                  
 Basis size:   816
 Attributes:
 Sphericals:   T
 Basis set:  RI                      
 Basis size:   556
 Attributes:
 Sphericals:   T
 Basis set:  TDDFT                   
 Basis size:   816
 Attributes:
 Sphericals:   T

 PROGRAM * CCSD (Closed-shell coupled cluster)     Authors: C. Hampel, H.-J. Werner, 1991, M. Deegan, P.J. Knowles, 1992


 Convergence thresholds:  THRVAR = 1.00D-08  THRDEN = 1.00D-10

 CCSD(T)     terms to be evaluated (factor= 1.000)


 Number of core orbitals:           1 (   1 )
 Number of closed-shell orbitals:   4 (   4 )
 Number of external orbitals:     225 ( 225 )

 Molecular orbitals read from record     2102.2  Type=RHF/CANONICAL (state 1.1)

 Number of N-1 electron functions:               4
 Number of N-2 electron functions:              10
 Number of singly external CSFs:               900
 Number of doubly external CSFs:            405450
 Total number of CSFs:                      406351

 Length of J-op  integral file:               0.00 MB
 Length of K-op  integral file:               3.65 MB
 Length of 3-ext integral record:             0.00 MB

 Memory could be reduced to 75.63 Mwords without degradation in triples

 Integral transformation finished. Total CPU:  12.37 sec, npass=  1  Memory used:  32.52 MW

 Reference energy:                    -40.21327347

 MP2 singlet pair energy:              -0.14545854
 MP2 triplet pair energy:              -0.05506544
 MP2 correlation energy:               -0.20052398
 MP2 total energy:                    -40.41379745

 SCS-MP2 correlation energy:           -0.20881319   (PS=  1.200000  PT=  0.333333)
 SCS-MP2 total energy:                -40.42208666

 ITER.      SQ.NORM     CORR.ENERGY   TOTAL ENERGY   ENERGY CHANGE        DEN1      VAR(S)    VAR(P)  DIIS     TIME  TIME/IT
   1      1.07101084    -0.21907121   -40.43234468    -0.01854722    -0.01309365  0.46D-03  0.10D-02  1  1    16.31     3.96
   2      1.07650417    -0.22017252   -40.43344599    -0.00110131    -0.00567814  0.13D-04  0.71D-04  2  2    20.21     4.00
   3      1.07773259    -0.22022579   -40.43349926    -0.00005327    -0.00078825  0.16D-05  0.48D-05  3  3    24.21     4.04
   4      1.07803664    -0.22023480   -40.43350827    -0.00000901    -0.00012817  0.92D-07  0.22D-06  4  4    28.14     4.05
   5      1.07808285    -0.22023373   -40.43350720     0.00000107    -0.00001887  0.57D-08  0.16D-07  5  5    32.08     4.06
   6      1.07808775    -0.22023294   -40.43350641     0.00000079    -0.00000159  0.47D-09  0.11D-08  6  6    36.06     4.06
   7      1.07808846    -0.22023279   -40.43350626     0.00000015    -0.00000033  0.33D-10  0.94D-10  6  1    40.06     4.07
   8      1.07808850    -0.22023282   -40.43350629    -0.00000003     0.00000011  0.28D-11  0.56D-11  6  2    44.01     4.07
   9      1.07808851    -0.22023282   -40.43350629    -0.00000000     0.00000002  0.31D-12  0.49D-12  6  3    47.97     4.07
  10      1.07808851    -0.22023282   -40.43350629     0.00000000     0.00000001  0.27D-13  0.50D-13  6  4    51.87     4.07
  11      1.07808850    -0.22023282   -40.43350629     0.00000000     0.00000001  0.22D-14  0.49D-14  6  5    55.88     4.08
  12      1.07808849    -0.22023282   -40.43350629     0.00000000     0.00000000  0.48D-16  0.57D-15  6  6    59.85     4.08

 Norm of t1 vector:      0.02947059      S-energy:     0.00000000      T1 diagnostic:  0.00736765
                                                                       D1 diagnostic:  0.01186499

 Total CPU time for triples:     34.37 sec


 RESULTS
 =======

  Reference energy                    -40.213273468970
  CCSD singlet pair energy             -0.166737950708
  CCSD triplet pair energy             -0.053494871790
  CCSD correlation energy              -0.220232822427

  Triples (T) contribution             -0.006423381373
  Total correlation energy             -0.226656203800

  CCSD total energy                   -40.433506291397
  CCSD[T] energy                      -40.440112209034
  CCSD-T energy                       -40.439861777946
 !CCSD(T) total energy                -40.439929672770

 Timing summary (sec):

 STEP                 CPU(USER)    SYS     CPU(TOT)    WALL
 Transformation         12.43      0.40     12.83     12.84
 CCSD iterations        47.42      1.48     48.90     48.95
 Triples                34.37      0.18     34.55     34.58

 Program statistics:

 Available memory in ccsd:              1999999916
 Min. memory needed in ccsd:               1865022
 Max. memory used in ccsd:                 2159652
 Max. memory used in cckext:               1451153 (12 integral passes)



 **********************************************************************************************************************************
 DATASETS  * FILE   NREC   LENGTH (MB)   RECORD NAMES
              1      19      222.33       500      610      700      900      950      970     1000      129      960     1100   
                                          VAR    BASINP    GEOM    SYMINP    ZMAT    AOBASIS   BASIS     P2S    ABASIS      S 
                                         1400     1410     1200     1210     1080     1600     1650     1700     1380   
                                           T        V       H0       H01     AOSYM     SMH    MOLCAS    OPER     JKOP   

              2       7       13.71       700     1000      520     2100      200     2101     2102   
                                         GEOM     BASIS   MCVARS     RHF    OPTIONS    RHF      RHF  

 PROGRAMS   *        TOTAL   CCSD(T)    HF-SCF       INT   CCSD(T)    HF-SCF       INT   CCSD(T)    HF-SCF       INT
 CPU TIMES  *       734.83     94.45     12.20      0.24    110.56     13.26      0.23    475.80     14.35     13.46
 REAL TIME  *       755.28 SEC
 DISK USED  *       570.36 MB (local),        8.02 GB (total)
 SF USED    *       504.31 MB
 GA USED    *         0.00 MB       (max)       0.00 MB       (current)
 **********************************************************************************************************************************
 Molecular orbitals read from record     2102.2  Type=RHF/CANONICAL (state 1.1)
 Occupation numbers read from record     2102.2  Type=RHF/RHF (state 1.1)
 Orbital energies read from record       2102.2  Type=RHF/CANONICAL (state 1.1)
 Redundancy group numbers read from rec  2102.2  Type=RHF/RHF (state 1.1)

 CCSD(T)/aug-cc-pVTZ energy=    -40.439929672770

         CCSD(T)          HF-SCF         CCSD(T)          HF-SCF         CCSD(T)          HF-SCF
    -40.43992967    -40.21327347    -76.34187035    -76.05846945   -116.78236240   -116.27142665
 **********************************************************************************************************************************
 Molpro calculation terminated
