
 Primary working directories    : /scratch/klimes/383099/molpro.Duzofq89o7
 Secondary working directories  : /scratch/klimes/383099/molpro.Duzofq89o7
 Wavefunction directory         : /scratch/klimes/383099/
 Main file repository           : /scratch/klimes/383099/molpro.Duzofq89o7/

 id        : karlovklimes

 Nodes                      nprocs
 nc-05.cc.karlov.mff.cuni.cz    4

 Using customized tuning parameters: mindgm=1; mindgv=20; mindgc=4; mindgr=1; noblas=0; minvec=7
 default implementation of scratch files=sf  


 Variables initialized (930), CPU time= 0.01 sec
                                                                                 !gdirect
 memory,2000,m
 gthresh,orbital=1d-10,energy=1d-10,grid=1d-8
 
 symmetry,nosym
 angstrom
 geometry={
 O17        -4.414800000000      4.436400000000      3.575800000000
 H33        -3.889000000000      4.780900000000      2.793400000000
 H34        -4.626600000000      5.219700000000      4.099200000000
 C1        -3.277200000000      1.482500000000      1.271900000000
 H41        -2.464000000000      0.899600000000      1.651000000000
 H42        -3.160800000000      2.501000000000      1.578500000000
 H43        -4.201800000000      1.099200000000      1.650100000000
 H44        -3.268500000000      1.421000000000      0.203700000000
 }
 
 nkerna=1
 nkernb=1
 
 gf=0
 sing=1
 thrdum=1d-4
 gridthr=1d-8
 
 basis={
 set,orbital
 default,avtz
 set,jkfit
 default,avqz/jkfit
 set,mp2fit
 default,avqz/mp2fit
 set,ri
 default,avqz/optri
 set,tddft
 default,avqz/mp2fit
 }
 
 proc set_monomer1
 dummy,4,5,6,7,8
 endproc
 
 proc set_monomer2
 dummy,1,2,3
 endproc
 
                                                                                 !1234 energy
 {hf,accu=1.d-16}
 ccsd(t)
 
 set_monomer1
 {hf,accu=1.d-16}
 ccsd(t)
 
 set_monomer2
 {hf,accu=1.d-16}
 ccsd(t)
 
 Commands  initialized (760), CPU time= 0.00 sec, 617 directives.
 Default parameters read. Elapsed time= 0.21 sec

 Checking input...
 Passed
1


                                         ***  PROGRAM SYSTEM MOLPRO  ***
                                       Copyright, TTI GmbH Stuttgart, 2015
                                    Version 2019.1 linked Jan 14 2019 13:09:19


 **********************************************************************************************************************************
 LABEL *                                                                                 
  64 bit mpp version                                                                     DATE: 11-Mar-20          TIME: 13:05:14  
 **********************************************************************************************************************************

 SHA1:             d688ac825633d238f2093ded1675ba87ccd55965
 **********************************************************************************************************************************

 THRESHOLDS:

 ZERO    =  1.00D-12  ONEINT  =  1.00D-12  TWOINT  =  1.00D-11  PREFAC  =  1.00D-14  XXXXXX  =  1.00D-09  EORDER  =  1.00D-04
 ENERGY  =  1.00D-10  ETEST   =  0.00D+00  EDENS   =  0.00D+00  THRDEDEF=  1.00D-06  GRADIENT=  1.00D-02  STEP    =  1.00D-03
 ORBITAL =  1.00D-10  CIVEC   =  1.00D-05  COEFF   =  1.00D-04  PRINTCI =  5.00D-02  PUNCHCI =  9.90D+01  OPTGRAD =  3.00D-04
 OPTENERG=  1.00D-06  OPTSTEP =  3.00D-04  THRGRAD =  1.00D-10  COMPRESS=  1.00D-11  VARMIN  =  1.00D-07  VARMAX  =  1.00D-03
 THRDOUB =  0.00D+00  THRDIV  =  1.00D-05  THRRED  =  1.00D-07  THRPSP  =  1.00D+00  THRDC   =  1.00D-10  THRCS   =  1.00D-10
 THRNRM  =  1.00D-08  THREQ   =  0.00D+00  THRDE   =  1.00D+00  THRREF  =  1.00D-05  SPARFAC =  1.00D+00  THRDLP  =  1.00D-07
 THRDIA  =  1.00D-10  THRDLS  =  1.00D-07  THRGPS  =  0.00D+00  THRKEX  =  0.00D+00  THRDIS  =  2.00D-01  THRVAR  =  1.00D-10
 THRLOC  =  1.00D-06  THRGAP  =  1.00D-06  THRLOCT = -1.00D+00  THRGAPT = -1.00D+00  THRORB  =  1.00D-06  THRMLTP =  0.00D+00
 THRCPQCI=  1.00D-10  KEXTA   =  0.00D+00  THRCOARS=  0.00D+00  SYMTOL  =  1.00D-06  GRADTOL =  1.00D-06  THROVL  =  1.00D-08
 THRORTH =  1.00D-08  GRID    =  1.00D-08  GRIDMAX =  1.00D-03  DTMAX   =  0.00D+00  THROCCDE=  1.00D-01  THROCCDE=  1.00D-01
 THRPRINT=  2.50D-01


 Variable memory set to 2000000000 words,  buffer space 

 ZSYMEL=NOSYM
 ZUNIT=ANG


Geometry recognized as XYZ

 SETTING NKERNA         =         1.00000000                                  
 SETTING NKERNB         =         1.00000000                                  
 SETTING GF             =     0.00000000D+00                                  
 SETTING SING           =         1.00000000                                  
 SETTING THRDUM         =     1.00000000D-04                                  
 SETTING GRIDTHR        =     1.00000000D-08                                  
 SETTING BASIS          =    AVTZ


 Recomputing integrals since basis changed


 Using spherical harmonics

 Library entry O      S aug-cc-pVTZ          selected for orbital group  1
 Library entry O      P aug-cc-pVTZ          selected for orbital group  1
 Library entry O      D aug-cc-pVTZ          selected for orbital group  1
 Library entry O      F aug-cc-pVTZ          selected for orbital group  1
 Library entry H      S aug-cc-pVTZ          selected for orbital group  2
 Library entry H      P aug-cc-pVTZ          selected for orbital group  2
 Library entry H      D aug-cc-pVTZ          selected for orbital group  2
 Library entry C      S aug-cc-pVTZ          selected for orbital group  3
 Library entry C      P aug-cc-pVTZ          selected for orbital group  3
 Library entry C      D aug-cc-pVTZ          selected for orbital group  3
 Library entry C      F aug-cc-pVTZ          selected for orbital group  3


 PROGRAM * SEWARD (Integral evaluation for generally contracted gaussian basis sets)     Author: Roland Lindh, 1990

 Geometry written to block  1 of record 700


 Point group  C1  



 ATOMIC COORDINATES

 NR  ATOM    CHARGE       X              Y              Z

   1  O17     8.00   -8.342762895    8.383580979    6.757282676
   2  H33     1.00   -7.349144898    9.034591629    5.278760956
   3  H34     1.00   -8.743006888    9.863803452    7.746365330
   4  C1      6.00   -6.193010455    2.801518980    2.403542658
   5  H41     1.00   -4.656285171    1.699997622    3.119937832
   6  H42     1.00   -5.973046335    4.726205038    2.982932688
   7  H43     1.00   -7.940251230    2.077186956    3.118237078
   8  H44     1.00   -6.176569838    2.685300823    0.384937212

 Bond lengths in Bohr (Angstrom)

 1-2  1.896606987  1-3  1.824702255  4-5  2.021904040  4-6  2.022002335  4-7  2.021953343
     ( 1.003641196)     ( 0.965590850)     ( 1.069945541)     ( 1.069997556)     ( 1.069971630)

 4-8  2.022015060
     ( 1.070004290)

 Bond angles

  2-1-3  105.01239280   5-4-6  109.53398059   5-4-7  109.65604535   5-4-8  108.43490854

  6-4-7  109.49436728   6-4-8  109.86987750   7-4-8  109.83468330

 NUCLEAR CHARGE:                   20
 NUMBER OF PRIMITIVE AOS:         296
 NUMBER OF SYMMETRY AOS:          266
 NUMBER OF CONTRACTIONS:          230   (  230A   )
 NUMBER OF CORE ORBITALS:           2   (    2A   )
 NUMBER OF VALENCE ORBITALS:       14   (   14A   )


 NUCLEAR REPULSION ENERGY   35.98231600


 Basis set:  JKFIT                   
 Basis size:   740
 Attributes:
 Sphericals:   T
 Basis set:  MP2FIT                  
 Basis size:   816
 Attributes:
 Sphericals:   T
 Basis set:  RI                      
 Basis size:   556
 Attributes:
 Sphericals:   T
 Basis set:  TDDFT                   
 Basis size:   816
 Attributes:
 Sphericals:   T

 **********************************************************************************************************************************


 Eigenvalues of metric

         1 0.486E-04 0.786E-04 0.102E-03 0.104E-03 0.334E-03 0.356E-03 0.560E-03 0.696E-03


 Contracted 2-electron integrals neglected if value below      1.0D-14
 AO integral compression algorithm  1   Integral accuracy      1.0D-14

     2119.696 MB (compressed) written to integral file ( 66.1%)

     Node minimum: 499.646 MB, node maximum: 566.231 MB


 NUMBER OF SORTED TWO-ELECTRON INTEGRALS:   88219044.     BUFFER LENGTH:  32768
 NUMBER OF SEGMENTS:   6  SEGMENT LENGTH:   15998348      RECORD LENGTH: 524288

 Memory used in sort:      16.56 MW

 SORT1 READ   400769927. AND WROTE    80172815. INTEGRALS IN    232 RECORDS. CPU TIME:     7.23 SEC, REAL TIME:     8.14 SEC
 SORT2 READ   320593912. AND WROTE   352862895. INTEGRALS IN   8136 RECORDS. CPU TIME:     1.35 SEC, REAL TIME:     2.35 SEC

 Node minimum:    88205762.  Node maximum:    88225686. integrals

 OPERATOR DM      FOR CENTER  0  COORDINATES:    0.000000    0.000000    0.000000


 **********************************************************************************************************************************
 DATASETS  * FILE   NREC   LENGTH (MB)   RECORD NAMES
              1      18       32.04       500      610      700      900      950      970     1000      129      960     1100   
                                          VAR    BASINP    GEOM    SYMINP    ZMAT    AOBASIS   BASIS     P2S    ABASIS      S 
                                         1400     1410     1200     1210     1080     1600     1650     1700   
                                           T        V       H0       H01     AOSYM     SMH    MOLCAS    OPER   

 PROGRAMS   *        TOTAL       INT
 CPU TIMES  *        13.38     13.18
 REAL TIME  *        18.10 SEC
 DISK USED  *        32.49 MB (local),        6.05 GB (total)
 GA USED    *         0.00 MB       (max)       0.00 MB       (current)
 **********************************************************************************************************************************


 PROGRAM * RHF-SCF (CLOSED SHELL)       Authors: W. Meyer, H.-J. Werner


 NUMBER OF ELECTRONS:      10+   10-    SPACE SYMMETRY=1    SPIN SYMMETRY: Singlet 
 CONVERGENCE THRESHOLDS:    1.00E-08 (Density)    1.00E-11 (Energy)
 MAX. NUMBER OF ITERATIONS:       60
 INTERPOLATION TYPE:            DIIS
 INTERPOLATION STEPS:              2 (START)      1 (STEP)
 LEVEL SHIFTS:                  0.00 (CLOSED)  0.00 (OPEN) 



 Orbital guess generated from atomic densities. Full valence occupancy:   16

 Molecular orbital dump at record        2100.2

 Initial occupancy:  10

 ITERATION    DDIFF          GRAD             ENERGY        2-EL.EN.            DIPOLE MOMENTS         DIIS   ORB.
    1      0.000D+00      0.000D+00      -116.21110383    157.648197    0.31332    1.08580   -0.26150    0    start
    2      0.000D+00      0.524D-02      -116.25521395    152.623118    0.14498    0.62377   -0.09884    1    diag
    3      0.553D-02      0.310D-02      -116.26891791    154.706883    0.18685    0.74152   -0.13922    2    diag
    4      0.183D-02      0.456D-03      -116.26957916    154.594873    0.18340    0.73116   -0.13593    3    diag
    5      0.402D-03      0.134D-03      -116.26964773    154.590006    0.18277    0.73097   -0.13511    4    diag
    6      0.148D-03      0.327D-04      -116.26965157    154.595888    0.18250    0.73026   -0.13480    5    diag
    7      0.421D-04      0.637D-05      -116.26965180    154.594397    0.18249    0.73029   -0.13478    6    diag
    8      0.116D-04      0.164D-05      -116.26965182    154.594549    0.18245    0.73024   -0.13473    7    diag
    9      0.225D-05      0.371D-06      -116.26965182    154.594523    0.18244    0.73022   -0.13472    8    diag
   10      0.765D-06      0.418D-07      -116.26965182    154.594524    0.18244    0.73022   -0.13472    9    orth
   11      0.633D-07      0.104D-07      -116.26965182    154.594525    0.18244    0.73022   -0.13472    9    diag
   12      0.245D-07      0.274D-08      -116.26965182    154.594525    0.18244    0.73022   -0.13472    9    diag
   13      0.407D-08      0.713D-09      -116.26965182    154.594525    0.18244    0.73022   -0.13472    0    orth

 Final occupancy:  10

 !RHF STATE  1.1 Energy              -116.269651818436
 Nuclear energy                        35.98231600
 One-electron energy                 -229.54923031
 Two-electron energy                   77.29726249
 Virial quotient                       -1.00125552
 !RHF STATE  1.1 Dipole moment          0.18244388     0.73021698    -0.13471814
 Dipole moment /Debye                   0.46369571     1.85590488    -0.34239692

 Orbital energies:

         1.1          2.1          3.1          4.1          5.1          6.1          7.1          8.1          9.1         10.1
    -20.572106   -11.192368    -1.340465    -0.945720    -0.705004    -0.579283    -0.546251    -0.544722    -0.542892    -0.508541

        11.1         12.1
      0.027531     0.039336


 HOMO     10.1    -0.508541 =     -13.8381eV
 LUMO     11.1     0.027531 =       0.7492eV
 LUMO-HOMO         0.536072 =      14.5873eV


 **********************************************************************************************************************************
 DATASETS  * FILE   NREC   LENGTH (MB)   RECORD NAMES
              1      18       32.04       500      610      700      900      950      970     1000      129      960     1100   
                                          VAR    BASINP    GEOM    SYMINP    ZMAT    AOBASIS   BASIS     P2S    ABASIS      S 
                                         1400     1410     1200     1210     1080     1600     1650     1700   
                                           T        V       H0       H01     AOSYM     SMH    MOLCAS    OPER   

              2       4        3.96       700     1000      520     2100   
                                         GEOM     BASIS   MCVARS     RHF  

 PROGRAMS   *        TOTAL    HF-SCF       INT
 CPU TIMES  *        28.02     14.64     13.18
 REAL TIME  *        34.14 SEC
 DISK USED  *        39.90 MB (local),        6.08 GB (total)
 SF USED    *         0.21 MB
 GA USED    *         0.00 MB       (max)       0.00 MB       (current)
 **********************************************************************************************************************************

 Basis set:  JKFIT                   
 Basis size:   740
 Attributes:
 Sphericals:   T
 Basis set:  MP2FIT                  
 Basis size:   816
 Attributes:
 Sphericals:   T
 Basis set:  RI                      
 Basis size:   556
 Attributes:
 Sphericals:   T
 Basis set:  TDDFT                   
 Basis size:   816
 Attributes:
 Sphericals:   T

 PROGRAM * CCSD (Closed-shell coupled cluster)     Authors: C. Hampel, H.-J. Werner, 1991, M. Deegan, P.J. Knowles, 1992


 Convergence thresholds:  THRVAR = 1.00D-08  THRDEN = 1.00D-10

 CCSD(T)     terms to be evaluated (factor= 1.000)


 Number of core orbitals:           2 (   2 )
 Number of closed-shell orbitals:   8 (   8 )
 Number of external orbitals:     220 ( 220 )

 Molecular orbitals read from record     2100.2  Type=RHF/CANONICAL (state 1.1)

 Number of N-1 electron functions:               8
 Number of N-2 electron functions:              36
 Number of singly external CSFs:              1760
 Number of doubly external CSFs:           1549680
 Total number of CSFs:                     1551441

 Length of J-op  integral file:               0.00 MB
 Length of K-op  integral file:               3.65 MB
 Length of 3-ext integral record:             0.00 MB

 Memory could be reduced to 116.39 Mwords without degradation in triples

 Integral transformation finished. Total CPU:  24.71 sec, npass=  1  Memory used:  59.35 MW

 Reference energy:                   -116.26965182

 MP2 singlet pair energy:              -0.31779983
 MP2 triplet pair energy:              -0.15397051
 MP2 correlation energy:               -0.47177034
 MP2 total energy:                   -116.74142216

 SCS-MP2 correlation energy:           -0.47716367   (PS=  1.200000  PT=  0.333333)
 SCS-MP2 total energy:               -116.74681548

 ITER.      SQ.NORM     CORR.ENERGY   TOTAL ENERGY   ENERGY CHANGE        DEN1      VAR(S)    VAR(P)  DIIS     TIME  TIME/IT
   1      1.13590467    -0.49435135  -116.76400317    -0.02258102    -0.01126632  0.14D-02  0.21D-02  1  1    39.25    14.52
   2      1.14504637    -0.49576814  -116.76541996    -0.00141678    -0.01043362  0.23D-04  0.25D-03  2  2    54.25    14.84
   3      1.14810007    -0.49590376  -116.76555558    -0.00013563    -0.00199382  0.14D-04  0.12D-04  3  3    68.88    14.85
   4      1.14892412    -0.49590547  -116.76555729    -0.00000171    -0.00036927  0.60D-06  0.12D-05  4  4    83.58    14.88
   5      1.14908452    -0.49590270  -116.76555452     0.00000277    -0.00005098  0.20D-06  0.79D-07  5  5    98.36    14.89
   6      1.14913344    -0.49589801  -116.76554982     0.00000470    -0.00001218  0.17D-07  0.49D-08  6  6   113.02    14.90
   7      1.14914186    -0.49589744  -116.76554925     0.00000057    -0.00000082  0.12D-08  0.81D-09  6  2   127.72    14.90
   8      1.14914362    -0.49589730  -116.76554912     0.00000014     0.00000000  0.24D-09  0.79D-10  6  1   142.39    14.90
   9      1.14914436    -0.49589724  -116.76554906     0.00000006     0.00000001  0.19D-10  0.11D-10  6  3   157.02    14.90
  10      1.14914451    -0.49589723  -116.76554905     0.00000001     0.00000001  0.28D-11  0.15D-11  6  4   171.72    14.90
  11      1.14914444    -0.49589724  -116.76554906    -0.00000001     0.00000007  0.52D-12  0.26D-12  6  6   186.41    14.91
  12      1.14914442    -0.49589724  -116.76554906    -0.00000000     0.00000002  0.89D-13  0.28D-13  6  5   201.06    14.91
  13      1.14914440    -0.49589724  -116.76554906    -0.00000000     0.00000000  0.15D-13  0.42D-14  6  2   215.68    14.91
  14      1.14914440    -0.49589724  -116.76554906    -0.00000000     0.00000000  0.17D-14  0.10D-14  6  1   230.33    14.91
  15      1.14914440    -0.49589724  -116.76554906     0.00000000    -0.00000000  0.15D-15  0.94D-16  6  3   244.99    14.91
  16      1.14914440    -0.49589724  -116.76554906    -0.00000000    -0.00000000  0.23D-16  0.13D-16  6  4   259.60    14.91

 Norm of t1 vector:      0.05152807      S-energy:     0.00000000      T1 diagnostic:  0.00910896
                                                                       D1 diagnostic:  0.02247937


 Total CPU time for triples:    219.12 sec


 RESULTS
 =======

  Reference energy                   -116.269651818435
  CCSD singlet pair energy             -0.354945621217
  CCSD triplet pair energy             -0.140951621811
  CCSD correlation energy              -0.495897243014

  Triples (T) contribution             -0.015441518345
  Total correlation energy             -0.511338761359

  CCSD total energy                  -116.765549061449
  CCSD[T] energy                     -116.781521168306
  CCSD-T energy                      -116.780734930290
 !CCSD(T) total energy               -116.780990579795

 Timing summary (sec):

 STEP                 CPU(USER)    SYS     CPU(TOT)    WALL
 Transformation         24.88      1.22     26.10     27.02
 CCSD iterations       234.75      3.53    238.28    238.57
 Triples               219.12      1.11    220.23    220.51

 Program statistics:

 Available memory in ccsd:              1999999734
 Min. memory needed in ccsd:               4617529
 Max. memory used in ccsd:                 5944569
 Max. memory used in cckext:               4248553 (16 integral passes)



 **********************************************************************************************************************************
 DATASETS  * FILE   NREC   LENGTH (MB)   RECORD NAMES
              1      19      398.13       500      610      700      900      950      970     1000      129      960     1100   
                                          VAR    BASINP    GEOM    SYMINP    ZMAT    AOBASIS   BASIS     P2S    ABASIS      S 
                                         1400     1410     1200     1210     1080     1600     1650     1700     1380   
                                           T        V       H0       H01     AOSYM     SMH    MOLCAS    OPER     JKOP   

              2       4        3.96       700     1000      520     2100   
                                         GEOM     BASIS   MCVARS     RHF  

 PROGRAMS   *        TOTAL   CCSD(T)    HF-SCF       INT
 CPU TIMES  *       507.01    478.98     14.64     13.18
 REAL TIME  *       520.97 SEC
 DISK USED  *       570.36 MB (local),        7.69 GB (total)
 SF USED    *       504.31 MB
 GA USED    *         0.00 MB       (max)       0.00 MB       (current)
 **********************************************************************************************************************************

 Running procedure: SET_MONOMER1

 Dummy atoms: C1  H41  H42  H43  H44


 Recomputing one-electron integrals since nuclear charges changed


 PROGRAM * SEWARD (Integral evaluation for generally contracted gaussian basis sets)     Author: Roland Lindh, 1990

 Geometry written to block  1 of record 700


 Point group  C1  



 ATOMIC COORDINATES

 NR  ATOM    CHARGE       X              Y              Z

   1  O17     8.00   -8.342762895    8.383580979    6.757282676
   2  H33     1.00   -7.349144898    9.034591629    5.278760956
   3  H34     1.00   -8.743006888    9.863803452    7.746365330
   4  C1      0.00   -6.193010455    2.801518980    2.403542658
   5  H41     0.00   -4.656285171    1.699997622    3.119937832
   6  H42     0.00   -5.973046335    4.726205038    2.982932688
   7  H43     0.00   -7.940251230    2.077186956    3.118237078
   8  H44     0.00   -6.176569838    2.685300823    0.384937212

 Bond lengths in Bohr (Angstrom)

 1-2  1.896606987  1-3  1.824702255  4-5  2.021904040  4-6  2.022002335  4-7  2.021953343
     ( 1.003641196)     ( 0.965590850)     ( 1.069945541)     ( 1.069997556)     ( 1.069971630)

 4-8  2.022015060
     ( 1.070004290)

 Bond angles

  2-1-3  105.01239280   5-4-6  109.53398059   5-4-7  109.65604535   5-4-8  108.43490854

  6-4-7  109.49436728   6-4-8  109.86987750   7-4-8  109.83468330

 NUCLEAR CHARGE:                   10
 NUMBER OF PRIMITIVE AOS:         296
 NUMBER OF SYMMETRY AOS:          266
 NUMBER OF CONTRACTIONS:          230   (  230A   )
 NUMBER OF CORE ORBITALS:           1   (    1A   )
 NUMBER OF VALENCE ORBITALS:        6   (    6A   )

 MOLECULE CHANGED: INITIALIZING OCCUPATION AND DUMP RECORDS


 NUCLEAR REPULSION ENERGY    8.94098799

 Basis set:  JKFIT                   
 Basis size:   740
 Attributes:
 Sphericals:   T
 Basis set:  MP2FIT                  
 Basis size:   816
 Attributes:
 Sphericals:   T
 Basis set:  RI                      
 Basis size:   556
 Attributes:
 Sphericals:   T
 Basis set:  TDDFT                   
 Basis size:   816
 Attributes:
 Sphericals:   T

 Eigenvalues of metric

         1 0.486E-04 0.786E-04 0.102E-03 0.104E-03 0.334E-03 0.356E-03 0.560E-03 0.696E-03


 Contracted 2-electron integrals neglected if value below      1.0D-14

 OPERATOR DM      FOR CENTER  0  COORDINATES:    0.000000    0.000000    0.000000


 **********************************************************************************************************************************
 DATASETS  * FILE   NREC   LENGTH (MB)   RECORD NAMES
              1      18       32.04       500      610      700      900      950      970     1000      129      960     1100   
                                          VAR    BASINP    GEOM    SYMINP    ZMAT    AOBASIS   BASIS     P2S    ABASIS      S 
                                         1400     1410     1200     1210     1080     1600     1650     1700   
                                           T        V       H0       H01     AOSYM     SMH    MOLCAS    OPER   

              2       5        5.05       700     1000      520     2100      200   
                                         GEOM     BASIS   MCVARS     RHF    OPTIONS    

 PROGRAMS   *        TOTAL       INT   CCSD(T)    HF-SCF       INT
 CPU TIMES  *       507.22      0.20    478.98     14.64     13.18
 REAL TIME  *       521.72 SEC
 DISK USED  *       570.36 MB (local),        7.70 GB (total)
 SF USED    *       504.31 MB
 GA USED    *         0.00 MB       (max)       0.00 MB       (current)
 **********************************************************************************************************************************


 PROGRAM * RHF-SCF (CLOSED SHELL)       Authors: W. Meyer, H.-J. Werner


 NUMBER OF ELECTRONS:       5+    5-    SPACE SYMMETRY=1    SPIN SYMMETRY: Singlet 
 CONVERGENCE THRESHOLDS:    1.00E-08 (Density)    1.00E-11 (Energy)
 MAX. NUMBER OF ITERATIONS:       60
 INTERPOLATION TYPE:            DIIS
 INTERPOLATION STEPS:              2 (START)      1 (STEP)
 LEVEL SHIFTS:                  0.00 (CLOSED)  0.00 (OPEN) 



 Orbital guess generated from atomic densities. Full valence occupancy:    7

 Molecular orbital dump at record        2101.2

 Initial occupancy:   5

 ITERATION    DDIFF          GRAD             ENERGY        2-EL.EN.            DIPOLE MOMENTS         DIIS   ORB.
    1      0.000D+00      0.000D+00       -76.01830481     77.298742    0.31046    1.08972   -0.26177    0    start
    2      0.000D+00      0.640D-02       -76.04501092     73.639894    0.17378    0.63248   -0.14130    1    diag
    3      0.444D-02      0.412D-02       -76.05663200     75.262569    0.20658    0.74695   -0.16917    2    diag
    4      0.161D-02      0.379D-03       -76.05682864     75.172932    0.20413    0.74291   -0.16607    3    diag
    5      0.206D-03      0.107D-03       -76.05685012     75.187384    0.20316    0.74140   -0.16482    4    diag
    6      0.658D-04      0.214D-04       -76.05685152     75.186428    0.20290    0.74112   -0.16446    5    diag
    7      0.170D-04      0.428D-05       -76.05685159     75.186557    0.20283    0.74101   -0.16436    6    diag
    8      0.444D-05      0.771D-06       -76.05685159     75.186540    0.20281    0.74097   -0.16434    7    diag
    9      0.704D-06      0.102D-06       -76.05685159     75.186531    0.20281    0.74097   -0.16434    8    diag
   10      0.912D-07      0.268D-07       -76.05685159     75.186534    0.20281    0.74097   -0.16434    9    orth
   11      0.240D-07      0.634D-08       -76.05685159     75.186534    0.20281    0.74097   -0.16434    9    diag
   12      0.672D-08      0.123D-08       -76.05685159     75.186533    0.20281    0.74097   -0.16434    0    orth

 Final occupancy:   5

 !RHF STATE  1.1 Energy               -76.056851587279
 Nuclear energy                         8.94098799
 One-electron energy                 -122.59110630
 Two-electron energy                   37.59326672
 Virial quotient                       -1.00264601
 !RHF STATE  1.1 Dipole moment          0.20280855     0.74097028    -0.16433970
 Dipole moment /Debye                   0.51545415     1.88323525    -0.41768249

 Orbital energies:

         1.1          2.1          3.1          4.1          5.1          6.1          7.1
    -20.571632    -1.339886    -0.704136    -0.578593    -0.508040     0.023517     0.036128


 HOMO      5.1    -0.508040 =     -13.8245eV
 LUMO      6.1     0.023517 =       0.6399eV
 LUMO-HOMO         0.531556 =      14.4644eV


 **********************************************************************************************************************************
 DATASETS  * FILE   NREC   LENGTH (MB)   RECORD NAMES
              1      18       32.04       500      610      700      900      950      970     1000      129      960     1100   
                                          VAR    BASINP    GEOM    SYMINP    ZMAT    AOBASIS   BASIS     P2S    ABASIS      S 
                                         1400     1410     1200     1210     1080     1600     1650     1700   
                                           T        V       H0       H01     AOSYM     SMH    MOLCAS    OPER   

              2       6        9.09       700     1000      520     2100      200     2101   
                                         GEOM     BASIS   MCVARS     RHF    OPTIONS    RHF  

 PROGRAMS   *        TOTAL    HF-SCF       INT   CCSD(T)    HF-SCF       INT
 CPU TIMES  *       520.25     13.02      0.20    478.98     14.64     13.18
 REAL TIME  *       535.60 SEC
 DISK USED  *       570.36 MB (local),        7.70 GB (total)
 SF USED    *       504.31 MB
 GA USED    *         0.00 MB       (max)       0.00 MB       (current)
 **********************************************************************************************************************************

 Basis set:  JKFIT                   
 Basis size:   740
 Attributes:
 Sphericals:   T
 Basis set:  MP2FIT                  
 Basis size:   816
 Attributes:
 Sphericals:   T
 Basis set:  RI                      
 Basis size:   556
 Attributes:
 Sphericals:   T
 Basis set:  TDDFT                   
 Basis size:   816
 Attributes:
 Sphericals:   T

 PROGRAM * CCSD (Closed-shell coupled cluster)     Authors: C. Hampel, H.-J. Werner, 1991, M. Deegan, P.J. Knowles, 1992


 Convergence thresholds:  THRVAR = 1.00D-08  THRDEN = 1.00D-10

 CCSD(T)     terms to be evaluated (factor= 1.000)


 Number of core orbitals:           1 (   1 )
 Number of closed-shell orbitals:   4 (   4 )
 Number of external orbitals:     225 ( 225 )

 Molecular orbitals read from record     2101.2  Type=RHF/CANONICAL (state 1.1)

 Number of N-1 electron functions:               4
 Number of N-2 electron functions:              10
 Number of singly external CSFs:               900
 Number of doubly external CSFs:            405450
 Total number of CSFs:                      406351

 Length of J-op  integral file:               0.00 MB
 Length of K-op  integral file:               3.65 MB
 Length of 3-ext integral record:             0.00 MB

 Memory could be reduced to 75.63 Mwords without degradation in triples

 Integral transformation finished. Total CPU:  12.77 sec, npass=  1  Memory used:  32.52 MW

 Reference energy:                    -76.05685159

 MP2 singlet pair energy:              -0.17214910
 MP2 triplet pair energy:              -0.09844603
 MP2 correlation energy:               -0.27059513
 MP2 total energy:                    -76.32744672

 SCS-MP2 correlation energy:           -0.26783423   (PS=  1.200000  PT=  0.333333)
 SCS-MP2 total energy:                -76.32468581

 ITER.      SQ.NORM     CORR.ENERGY   TOTAL ENERGY   ENERGY CHANGE        DEN1      VAR(S)    VAR(P)  DIIS     TIME  TIME/IT
   1      1.06463243    -0.27466551   -76.33151710    -0.00407038     0.00177491  0.95D-03  0.10D-02  1  1    16.49     3.84
   2      1.06857324    -0.27497975   -76.33183133    -0.00031423    -0.00499942  0.12D-04  0.13D-03  2  2    20.34     3.91
   3      1.07008741    -0.27506901   -76.33192060    -0.00008926    -0.00096662  0.12D-04  0.61D-05  3  3    24.13     3.93
   4      1.07058511    -0.27506268   -76.33191427     0.00000633    -0.00022729  0.51D-06  0.73D-06  4  4    27.98     3.93
   5      1.07069456    -0.27505973   -76.33191131     0.00000296    -0.00003390  0.16D-06  0.46D-07  5  5    31.80     3.94
   6      1.07073283    -0.27505609   -76.33190767     0.00000364    -0.00000790  0.13D-07  0.30D-08  6  6    35.64     3.94
   7      1.07073964    -0.27505583   -76.33190742     0.00000026    -0.00000077  0.96D-09  0.54D-09  6  1    39.52     3.95
   8      1.07074080    -0.27505579   -76.33190738     0.00000004     0.00000032  0.15D-09  0.60D-10  6  2    43.29     3.94
   9      1.07074135    -0.27505574   -76.33190733     0.00000005     0.00000002  0.13D-10  0.66D-11  6  3    47.16     3.95
  10      1.07074144    -0.27505573   -76.33190732     0.00000001     0.00000001  0.28D-11  0.93D-12  6  4    51.00     3.95
  11      1.07074141    -0.27505574   -76.33190733    -0.00000001     0.00000003  0.53D-12  0.18D-12  6  6    54.87     3.95
  12      1.07074140    -0.27505574   -76.33190733    -0.00000000     0.00000001  0.75D-13  0.25D-13  6  5    58.70     3.95
  13      1.07074139    -0.27505574   -76.33190733    -0.00000000     0.00000000  0.97D-14  0.35D-14  6  1    62.59     3.96
  14      1.07074139    -0.27505574   -76.33190733    -0.00000000     0.00000000  0.10D-14  0.70D-15  6  2    66.41     3.95
  15      1.07074139    -0.27505574   -76.33190733     0.00000000    -0.00000000  0.95D-16  0.72D-16  6  3    70.26     3.95
  16      1.07074139    -0.27505574   -76.33190733    -0.00000000    -0.00000000  0.12D-16  0.91D-17  6  4    74.16     3.96

 Norm of t1 vector:      0.04177991      S-energy:    -0.00000000      T1 diagnostic:  0.01044498
                                                                       D1 diagnostic:  0.02223822


 Total CPU time for triples:     34.62 sec


 RESULTS
 =======

  Reference energy                    -76.056851587279
  CCSD singlet pair energy             -0.188066854335
  CCSD triplet pair energy             -0.086988888179
  CCSD correlation energy              -0.275055742532

  Triples (T) contribution             -0.008909927230
  Total correlation energy             -0.283965669762

  CCSD total energy                   -76.331907329811
  CCSD[T] energy                      -76.341160855961
  CCSD-T energy                       -76.340632301850
 !CCSD(T) total energy                -76.340817257041

 Timing summary (sec):

 STEP                 CPU(USER)    SYS     CPU(TOT)    WALL
 Transformation         12.83      0.45     13.28     13.29
 CCSD iterations        61.34      1.93     63.27     63.35
 Triples                34.62      0.20     34.82     34.87

 Program statistics:

 Available memory in ccsd:              1999999921
 Min. memory needed in ccsd:               1865022
 Max. memory used in ccsd:                 2159652
 Max. memory used in cckext:               1451153 (16 integral passes)



 **********************************************************************************************************************************
 DATASETS  * FILE   NREC   LENGTH (MB)   RECORD NAMES
              1      19      222.33       500      610      700      900      950      970     1000      129      960     1100   
                                          VAR    BASINP    GEOM    SYMINP    ZMAT    AOBASIS   BASIS     P2S    ABASIS      S 
                                         1400     1410     1200     1210     1080     1600     1650     1700     1380   
                                           T        V       H0       H01     AOSYM     SMH    MOLCAS    OPER     JKOP   

              2       6        9.09       700     1000      520     2100      200     2101   
                                         GEOM     BASIS   MCVARS     RHF    OPTIONS    RHF  

 PROGRAMS   *        TOTAL   CCSD(T)    HF-SCF       INT   CCSD(T)    HF-SCF       INT
 CPU TIMES  *       629.29    109.04     13.02      0.20    478.98     14.64     13.18
 REAL TIME  *       647.83 SEC
 DISK USED  *       570.36 MB (local),        7.70 GB (total)
 SF USED    *       504.31 MB
 GA USED    *         0.00 MB       (max)       0.00 MB       (current)
 **********************************************************************************************************************************

 Running procedure: SET_MONOMER2

 Dummy atoms: O17  H33  H34


 Recomputing one-electron integrals since nuclear charges changed


 PROGRAM * SEWARD (Integral evaluation for generally contracted gaussian basis sets)     Author: Roland Lindh, 1990

 Geometry written to block  1 of record 700


 Point group  C1  



 ATOMIC COORDINATES

 NR  ATOM    CHARGE       X              Y              Z

   1  O17     0.00   -8.342762895    8.383580979    6.757282676
   2  H33     0.00   -7.349144898    9.034591629    5.278760956
   3  H34     0.00   -8.743006888    9.863803452    7.746365330
   4  C1      6.00   -6.193010455    2.801518980    2.403542658
   5  H41     1.00   -4.656285171    1.699997622    3.119937832
   6  H42     1.00   -5.973046335    4.726205038    2.982932688
   7  H43     1.00   -7.940251230    2.077186956    3.118237078
   8  H44     1.00   -6.176569838    2.685300823    0.384937212

 Bond lengths in Bohr (Angstrom)

 1-2  1.896606987  1-3  1.824702255  4-5  2.021904040  4-6  2.022002335  4-7  2.021953343
     ( 1.003641196)     ( 0.965590850)     ( 1.069945541)     ( 1.069997556)     ( 1.069971630)

 4-8  2.022015060
     ( 1.070004290)

 Bond angles

  2-1-3  105.01239280   5-4-6  109.53398059   5-4-7  109.65604535   5-4-8  108.43490854

  6-4-7  109.49436728   6-4-8  109.86987750   7-4-8  109.83468330

 NUCLEAR CHARGE:                   10
 NUMBER OF PRIMITIVE AOS:         296
 NUMBER OF SYMMETRY AOS:          266
 NUMBER OF CONTRACTIONS:          230   (  230A   )
 NUMBER OF CORE ORBITALS:           1   (    1A   )
 NUMBER OF VALENCE ORBITALS:        8   (    8A   )

 MOLECULE CHANGED: INITIALIZING OCCUPATION AND DUMP RECORDS


 NUCLEAR REPULSION ENERGY   13.68681606

 Basis set:  JKFIT                   
 Basis size:   740
 Attributes:
 Sphericals:   T
 Basis set:  MP2FIT                  
 Basis size:   816
 Attributes:
 Sphericals:   T
 Basis set:  RI                      
 Basis size:   556
 Attributes:
 Sphericals:   T
 Basis set:  TDDFT                   
 Basis size:   816
 Attributes:
 Sphericals:   T

 Eigenvalues of metric

         1 0.486E-04 0.786E-04 0.102E-03 0.104E-03 0.334E-03 0.356E-03 0.560E-03 0.696E-03


 Contracted 2-electron integrals neglected if value below      1.0D-14

 OPERATOR DM      FOR CENTER  0  COORDINATES:    0.000000    0.000000    0.000000


 **********************************************************************************************************************************
 DATASETS  * FILE   NREC   LENGTH (MB)   RECORD NAMES
              1      18       32.04       500      610      700      900      950      970     1000      129      960     1100   
                                          VAR    BASINP    GEOM    SYMINP    ZMAT    AOBASIS   BASIS     P2S    ABASIS      S 
                                         1400     1410     1200     1210     1080     1600     1650     1700   
                                           T        V       H0       H01     AOSYM     SMH    MOLCAS    OPER   

              2       6        9.09       700     1000      520     2100      200     2101   
                                         GEOM     BASIS   MCVARS     RHF    OPTIONS    RHF  

 PROGRAMS   *        TOTAL       INT   CCSD(T)    HF-SCF       INT   CCSD(T)    HF-SCF       INT
 CPU TIMES  *       629.52      0.23    109.04     13.02      0.20    478.98     14.64     13.18
 REAL TIME  *       648.53 SEC
 DISK USED  *       570.36 MB (local),        7.70 GB (total)
 SF USED    *       504.31 MB
 GA USED    *         0.00 MB       (max)       0.00 MB       (current)
 **********************************************************************************************************************************


 PROGRAM * RHF-SCF (CLOSED SHELL)       Authors: W. Meyer, H.-J. Werner


 NUMBER OF ELECTRONS:       5+    5-    SPACE SYMMETRY=1    SPIN SYMMETRY: Singlet 
 CONVERGENCE THRESHOLDS:    1.00E-08 (Density)    1.00E-11 (Energy)
 MAX. NUMBER OF ITERATIONS:       60
 INTERPOLATION TYPE:            DIIS
 INTERPOLATION STEPS:              2 (START)      1 (STEP)
 LEVEL SHIFTS:                  0.00 (CLOSED)  0.00 (OPEN) 



 Orbital guess generated from atomic densities. Full valence occupancy:    9

 Molecular orbital dump at record        2102.2

 Initial occupancy:   5

 ITERATION    DDIFF          GRAD             ENERGY        2-EL.EN.            DIPOLE MOMENTS         DIIS   ORB.
    1      0.000D+00      0.000D+00       -40.19358830     53.494055    0.00411   -0.00274   -0.00130    0    start
    2      0.000D+00      0.353D-02       -40.21070555     52.213705    0.00131   -0.00085   -0.00037    1    diag
    3      0.325D-02      0.137D-02       -40.21295394     52.664875    0.00183   -0.00121   -0.00054    2    diag
    4      0.905D-03      0.342D-03       -40.21326937     52.609852    0.00163   -0.00108   -0.00047    3    diag
    5      0.302D-03      0.443D-04       -40.21327476     52.612190    0.00160   -0.00106   -0.00046    4    diag
    6      0.843D-04      0.345D-05       -40.21327480     52.612288    0.00160   -0.00106   -0.00046    5    diag
    7      0.693D-05      0.264D-06       -40.21327480     52.612253    0.00160   -0.00106   -0.00046    6    diag
    8      0.103D-05      0.221D-07       -40.21327480     52.612254    0.00160   -0.00106   -0.00046    7    diag
    9      0.189D-06      0.285D-08       -40.21327480     52.612254    0.00160   -0.00106   -0.00046    8    diag
   10      0.100D-07      0.797D-09       -40.21327480     52.612254    0.00160   -0.00106   -0.00046    9    orth
   11      0.120D-08      0.107D-09       -40.21327480     52.612254    0.00160   -0.00106   -0.00046    0    orth

 Final occupancy:   5

 !RHF STATE  1.1 Energy               -40.213274796920
 Nuclear energy                        13.68681606
 One-electron energy                  -80.20621779
 Two-electron energy                   26.30612693
 Virial quotient                       -0.99869877
 !RHF STATE  1.1 Dipole moment          0.00160009    -0.00105964    -0.00045992
 Dipole moment /Debye                   0.00406677    -0.00269315    -0.00116892

 Orbital energies:

         1.1          2.1          3.1          4.1          5.1          6.1          7.1
    -11.197207    -0.950741    -0.551694    -0.549760    -0.547580     0.026330     0.039272


 HOMO      5.1    -0.547580 =     -14.9004eV
 LUMO      6.1     0.026330 =       0.7165eV
 LUMO-HOMO         0.573910 =      15.6169eV


 **********************************************************************************************************************************
 DATASETS  * FILE   NREC   LENGTH (MB)   RECORD NAMES
              1      18       32.04       500      610      700      900      950      970     1000      129      960     1100   
                                          VAR    BASINP    GEOM    SYMINP    ZMAT    AOBASIS   BASIS     P2S    ABASIS      S 
                                         1400     1410     1200     1210     1080     1600     1650     1700   
                                           T        V       H0       H01     AOSYM     SMH    MOLCAS    OPER   

              2       7       13.71       700     1000      520     2100      200     2101     2102   
                                         GEOM     BASIS   MCVARS     RHF    OPTIONS    RHF      RHF  

 PROGRAMS   *        TOTAL    HF-SCF       INT   CCSD(T)    HF-SCF       INT   CCSD(T)    HF-SCF       INT
 CPU TIMES  *       641.55     12.03      0.23    109.04     13.02      0.20    478.98     14.64     13.18
 REAL TIME  *       661.35 SEC
 DISK USED  *       570.36 MB (local),        7.70 GB (total)
 SF USED    *       504.31 MB
 GA USED    *         0.00 MB       (max)       0.00 MB       (current)
 **********************************************************************************************************************************

 Basis set:  JKFIT                   
 Basis size:   740
 Attributes:
 Sphericals:   T
 Basis set:  MP2FIT                  
 Basis size:   816
 Attributes:
 Sphericals:   T
 Basis set:  RI                      
 Basis size:   556
 Attributes:
 Sphericals:   T
 Basis set:  TDDFT                   
 Basis size:   816
 Attributes:
 Sphericals:   T

 PROGRAM * CCSD (Closed-shell coupled cluster)     Authors: C. Hampel, H.-J. Werner, 1991, M. Deegan, P.J. Knowles, 1992


 Convergence thresholds:  THRVAR = 1.00D-08  THRDEN = 1.00D-10

 CCSD(T)     terms to be evaluated (factor= 1.000)


 Number of core orbitals:           1 (   1 )
 Number of closed-shell orbitals:   4 (   4 )
 Number of external orbitals:     225 ( 225 )

 Molecular orbitals read from record     2102.2  Type=RHF/CANONICAL (state 1.1)

 Number of N-1 electron functions:               4
 Number of N-2 electron functions:              10
 Number of singly external CSFs:               900
 Number of doubly external CSFs:            405450
 Total number of CSFs:                      406351

 Length of J-op  integral file:               0.00 MB
 Length of K-op  integral file:               3.65 MB
 Length of 3-ext integral record:             0.00 MB

 Memory could be reduced to 75.63 Mwords without degradation in triples

 Integral transformation finished. Total CPU:  12.86 sec, npass=  1  Memory used:  32.52 MW

 Reference energy:                    -40.21327480

 MP2 singlet pair energy:              -0.14545740
 MP2 triplet pair energy:              -0.05506517
 MP2 correlation energy:               -0.20052257
 MP2 total energy:                    -40.41379737

 SCS-MP2 correlation energy:           -0.20881165   (PS=  1.200000  PT=  0.333333)
 SCS-MP2 total energy:                -40.42208645

 ITER.      SQ.NORM     CORR.ENERGY   TOTAL ENERGY   ENERGY CHANGE        DEN1      VAR(S)    VAR(P)  DIIS     TIME  TIME/IT
   1      1.07101065    -0.21906892   -40.43234372    -0.01854635    -0.01309310  0.46D-03  0.10D-02  1  1    16.69     3.86
   2      1.07650377    -0.22017014   -40.43344494    -0.00110122    -0.00567773  0.13D-04  0.71D-04  2  2    20.53     3.91
   3      1.07773234    -0.22022345   -40.43349825    -0.00005331    -0.00078827  0.16D-05  0.48D-05  3  3    24.37     3.92
   4      1.07803645    -0.22023246   -40.43350725    -0.00000901    -0.00012820  0.92D-07  0.22D-06  4  4    28.23     3.94
   5      1.07808266    -0.22023139   -40.43350619     0.00000107    -0.00001887  0.57D-08  0.16D-07  5  5    32.03     3.94
   6      1.07808752    -0.22023060   -40.43350539     0.00000079    -0.00000157  0.46D-09  0.11D-08  6  6    35.95     3.95
   7      1.07808822    -0.22023045   -40.43350524     0.00000015    -0.00000033  0.32D-10  0.90D-10  6  1    39.81     3.96
   8      1.07808826    -0.22023048   -40.43350528    -0.00000003     0.00000011  0.27D-11  0.52D-11  6  2    43.66     3.96
   9      1.07808827    -0.22023048   -40.43350528    -0.00000000     0.00000002  0.30D-12  0.46D-12  6  3    47.52     3.96
  10      1.07808827    -0.22023048   -40.43350528     0.00000000     0.00000001  0.26D-13  0.48D-13  6  4    51.33     3.96
  11      1.07808826    -0.22023048   -40.43350528     0.00000000     0.00000001  0.22D-14  0.49D-14  6  5    55.15     3.96
  12      1.07808826    -0.22023048   -40.43350528     0.00000000     0.00000000  0.53D-16  0.58D-15  6  6    58.95     3.96

 Norm of t1 vector:      0.02947129      S-energy:     0.00000000      T1 diagnostic:  0.00736782
                                                                       D1 diagnostic:  0.01186405

 Total CPU time for triples:     34.57 sec


 RESULTS
 =======

  Reference energy                    -40.213274796920
  CCSD singlet pair energy             -0.166735840388
  CCSD triplet pair energy             -0.053494639948
  CCSD correlation energy              -0.220230480278

  Triples (T) contribution             -0.006423316913
  Total correlation energy             -0.226653797191

  CCSD total energy                   -40.433505277198
  CCSD[T] energy                      -40.440111144374
  CCSD-T energy                       -40.439860700454
 !CCSD(T) total energy                -40.439928594111

 Timing summary (sec):

 STEP                 CPU(USER)    SYS     CPU(TOT)    WALL
 Transformation         12.92      0.41     13.33     13.35
 CCSD iterations        46.05      1.47     47.52     47.57
 Triples                34.57      0.18     34.75     34.80

 Program statistics:

 Available memory in ccsd:              1999999916
 Min. memory needed in ccsd:               1865022
 Max. memory used in ccsd:                 2159652
 Max. memory used in cckext:               1451153 (12 integral passes)



 **********************************************************************************************************************************
 DATASETS  * FILE   NREC   LENGTH (MB)   RECORD NAMES
              1      19      222.33       500      610      700      900      950      970     1000      129      960     1100   
                                          VAR    BASINP    GEOM    SYMINP    ZMAT    AOBASIS   BASIS     P2S    ABASIS      S 
                                         1400     1410     1200     1210     1080     1600     1650     1700     1380   
                                           T        V       H0       H01     AOSYM     SMH    MOLCAS    OPER     JKOP   

              2       7       13.71       700     1000      520     2100      200     2101     2102   
                                         GEOM     BASIS   MCVARS     RHF    OPTIONS    RHF      RHF  

 PROGRAMS   *        TOTAL   CCSD(T)    HF-SCF       INT   CCSD(T)    HF-SCF       INT   CCSD(T)    HF-SCF       INT
 CPU TIMES  *       735.34     93.77     12.03      0.23    109.04     13.02      0.20    478.98     14.64     13.18
 REAL TIME  *       757.81 SEC
 DISK USED  *       570.36 MB (local),        7.70 GB (total)
 SF USED    *       504.31 MB
 GA USED    *         0.00 MB       (max)       0.00 MB       (current)
 **********************************************************************************************************************************
 Molecular orbitals read from record     2102.2  Type=RHF/CANONICAL (state 1.1)
 Occupation numbers read from record     2102.2  Type=RHF/RHF (state 1.1)
 Orbital energies read from record       2102.2  Type=RHF/CANONICAL (state 1.1)
 Redundancy group numbers read from rec  2102.2  Type=RHF/RHF (state 1.1)

 CCSD(T)/aug-cc-pVTZ energy=    -40.439928594111

         CCSD(T)          HF-SCF         CCSD(T)          HF-SCF         CCSD(T)          HF-SCF
    -40.43992859    -40.21327480    -76.34081726    -76.05685159   -116.78099058   -116.26965182
 **********************************************************************************************************************************
 Molpro calculation terminated
