
 Primary working directories    : /scratch/klimes/383100/molpro.WV1CgkEAd6
 Secondary working directories  : /scratch/klimes/383100/molpro.WV1CgkEAd6
 Wavefunction directory         : /scratch/klimes/383100/
 Main file repository           : /scratch/klimes/383100/molpro.WV1CgkEAd6/

 id        : karlovklimes

 Nodes                      nprocs
 nc-05.cc.karlov.mff.cuni.cz    4

 Using customized tuning parameters: mindgm=1; mindgv=20; mindgc=4; mindgr=1; noblas=0; minvec=7
 default implementation of scratch files=sf  


 Variables initialized (930), CPU time= 0.01 sec
                                                                                 !gdirect
 memory,2000,m
 gthresh,orbital=1d-10,energy=1d-10,grid=1d-8
 
 symmetry,nosym
 angstrom
 geometry={
 O18        -6.356200000000      0.392700000000      3.232000000000
 H35        -6.218200000000     -0.218800000000      2.485700000000
 H36        -5.588500000000      0.246100000000      3.819100000000
 C1        -3.277200000000      1.482500000000      1.271900000000
 H41        -2.464000000000      0.899600000000      1.651000000000
 H42        -3.160800000000      2.501000000000      1.578500000000
 H43        -4.201800000000      1.099200000000      1.650100000000
 H44        -3.268500000000      1.421000000000      0.203700000000
 }
 
 nkerna=1
 nkernb=1
 
 gf=0
 sing=1
 thrdum=1d-4
 gridthr=1d-8
 
 basis={
 set,orbital
 default,avtz
 set,jkfit
 default,avqz/jkfit
 set,mp2fit
 default,avqz/mp2fit
 set,ri
 default,avqz/optri
 set,tddft
 default,avqz/mp2fit
 }
 
 proc set_monomer1
 dummy,4,5,6,7,8
 endproc
 
 proc set_monomer2
 dummy,1,2,3
 endproc
 
                                                                                 !1234 energy
 {hf,accu=1.d-16}
 ccsd(t)
 
 set_monomer1
 {hf,accu=1.d-16}
 ccsd(t)
 
 set_monomer2
 {hf,accu=1.d-16}
 ccsd(t)
 
 Commands  initialized (760), CPU time= 0.01 sec, 617 directives.
 Default parameters read. Elapsed time= 0.20 sec

 Checking input...
 Passed
1


                                         ***  PROGRAM SYSTEM MOLPRO  ***
                                       Copyright, TTI GmbH Stuttgart, 2015
                                    Version 2019.1 linked Jan 14 2019 13:09:19


 **********************************************************************************************************************************
 LABEL *                                                                                 
  64 bit mpp version                                                                     DATE: 11-Mar-20          TIME: 13:05:18  
 **********************************************************************************************************************************

 SHA1:             d688ac825633d238f2093ded1675ba87ccd55965
 **********************************************************************************************************************************

 THRESHOLDS:

 ZERO    =  1.00D-12  ONEINT  =  1.00D-12  TWOINT  =  1.00D-11  PREFAC  =  1.00D-14  XXXXXX  =  1.00D-09  EORDER  =  1.00D-04
 ENERGY  =  1.00D-10  ETEST   =  0.00D+00  EDENS   =  0.00D+00  THRDEDEF=  1.00D-06  GRADIENT=  1.00D-02  STEP    =  1.00D-03
 ORBITAL =  1.00D-10  CIVEC   =  1.00D-05  COEFF   =  1.00D-04  PRINTCI =  5.00D-02  PUNCHCI =  9.90D+01  OPTGRAD =  3.00D-04
 OPTENERG=  1.00D-06  OPTSTEP =  3.00D-04  THRGRAD =  1.00D-10  COMPRESS=  1.00D-11  VARMIN  =  1.00D-07  VARMAX  =  1.00D-03
 THRDOUB =  0.00D+00  THRDIV  =  1.00D-05  THRRED  =  1.00D-07  THRPSP  =  1.00D+00  THRDC   =  1.00D-10  THRCS   =  1.00D-10
 THRNRM  =  1.00D-08  THREQ   =  0.00D+00  THRDE   =  1.00D+00  THRREF  =  1.00D-05  SPARFAC =  1.00D+00  THRDLP  =  1.00D-07
 THRDIA  =  1.00D-10  THRDLS  =  1.00D-07  THRGPS  =  0.00D+00  THRKEX  =  0.00D+00  THRDIS  =  2.00D-01  THRVAR  =  1.00D-10
 THRLOC  =  1.00D-06  THRGAP  =  1.00D-06  THRLOCT = -1.00D+00  THRGAPT = -1.00D+00  THRORB  =  1.00D-06  THRMLTP =  0.00D+00
 THRCPQCI=  1.00D-10  KEXTA   =  0.00D+00  THRCOARS=  0.00D+00  SYMTOL  =  1.00D-06  GRADTOL =  1.00D-06  THROVL  =  1.00D-08
 THRORTH =  1.00D-08  GRID    =  1.00D-08  GRIDMAX =  1.00D-03  DTMAX   =  0.00D+00  THROCCDE=  1.00D-01  THROCCDE=  1.00D-01
 THRPRINT=  2.50D-01


 Variable memory set to 2000000000 words,  buffer space 

 ZSYMEL=NOSYM
 ZUNIT=ANG


Geometry recognized as XYZ

 SETTING NKERNA         =         1.00000000                                  
 SETTING NKERNB         =         1.00000000                                  
 SETTING GF             =     0.00000000D+00                                  
 SETTING SING           =         1.00000000                                  
 SETTING THRDUM         =     1.00000000D-04                                  
 SETTING GRIDTHR        =     1.00000000D-08                                  
 SETTING BASIS          =    AVTZ


 Recomputing integrals since basis changed


 Using spherical harmonics

 Library entry O      S aug-cc-pVTZ          selected for orbital group  1
 Library entry O      P aug-cc-pVTZ          selected for orbital group  1
 Library entry O      D aug-cc-pVTZ          selected for orbital group  1
 Library entry O      F aug-cc-pVTZ          selected for orbital group  1
 Library entry H      S aug-cc-pVTZ          selected for orbital group  2
 Library entry H      P aug-cc-pVTZ          selected for orbital group  2
 Library entry H      D aug-cc-pVTZ          selected for orbital group  2
 Library entry C      S aug-cc-pVTZ          selected for orbital group  3
 Library entry C      P aug-cc-pVTZ          selected for orbital group  3
 Library entry C      D aug-cc-pVTZ          selected for orbital group  3
 Library entry C      F aug-cc-pVTZ          selected for orbital group  3


 PROGRAM * SEWARD (Integral evaluation for generally contracted gaussian basis sets)     Author: Roland Lindh, 1990

 Geometry written to block  1 of record 700


 Point group  C1  



 ATOMIC COORDINATES

 NR  ATOM    CHARGE       X              Y              Z

   1  O18     8.00  -12.011477193    0.742095449    6.107594835
   2  H35     1.00  -11.750694988   -0.413472076    4.697292228
   3  H36     1.00  -10.560734447    0.465061599    7.217053042
   4  C1      6.00   -6.193010455    2.801518980    2.403542658
   5  H41     1.00   -4.656285171    1.699997622    3.119937832
   6  H42     1.00   -5.973046335    4.726205038    2.982932688
   7  H43     1.00   -7.940251230    2.077186956    3.118237078
   8  H44     1.00   -6.176569838    2.685300823    0.384937212

 Bond lengths in Bohr (Angstrom)

 1-2  1.841818967  1-3  1.847241128  4-5  2.021904040  4-6  2.022002335  4-7  2.021953343
     ( 0.974648624)     ( 0.977517908)     ( 1.069945541)     ( 1.069997556)     ( 1.069971630)

 4-8  2.022015060
     ( 1.070004290)

 Bond angles

  2-1-3  104.74973043   5-4-6  109.53398059   5-4-7  109.65604535   5-4-8  108.43490854

  6-4-7  109.49436728   6-4-8  109.86987750   7-4-8  109.83468330

 NUCLEAR CHARGE:                   20
 NUMBER OF PRIMITIVE AOS:         296
 NUMBER OF SYMMETRY AOS:          266
 NUMBER OF CONTRACTIONS:          230   (  230A   )
 NUMBER OF CORE ORBITALS:           2   (    2A   )
 NUMBER OF VALENCE ORBITALS:       14   (   14A   )


 NUCLEAR REPULSION ENERGY   36.79874832


 Basis set:  JKFIT                   
 Basis size:   740
 Attributes:
 Sphericals:   T
 Basis set:  MP2FIT                  
 Basis size:   816
 Attributes:
 Sphericals:   T
 Basis set:  RI                      
 Basis size:   556
 Attributes:
 Sphericals:   T
 Basis set:  TDDFT                   
 Basis size:   816
 Attributes:
 Sphericals:   T

 **********************************************************************************************************************************


 Eigenvalues of metric

         1 0.349E-04 0.743E-04 0.993E-04 0.104E-03 0.326E-03 0.373E-03 0.459E-03 0.620E-03


 Contracted 2-electron integrals neglected if value below      1.0D-14
 AO integral compression algorithm  1   Integral accuracy      1.0D-14

     2279.342 MB (compressed) written to integral file ( 71.1%)

     Node minimum: 539.230 MB, node maximum: 600.572 MB


 NUMBER OF SORTED TWO-ELECTRON INTEGRALS:   88219044.     BUFFER LENGTH:  32768
 NUMBER OF SEGMENTS:   6  SEGMENT LENGTH:   15998348      RECORD LENGTH: 524288

 Memory used in sort:      16.56 MW

 SORT1 READ   400769927. AND WROTE    82696078. INTEGRALS IN    240 RECORDS. CPU TIME:     7.47 SEC, REAL TIME:     8.32 SEC
 SORT2 READ   330588737. AND WROTE   352862895. INTEGRALS IN   8704 RECORDS. CPU TIME:     1.69 SEC, REAL TIME:     2.32 SEC

 Node minimum:    88205762.  Node maximum:    88225686. integrals

 OPERATOR DM      FOR CENTER  0  COORDINATES:    0.000000    0.000000    0.000000


 **********************************************************************************************************************************
 DATASETS  * FILE   NREC   LENGTH (MB)   RECORD NAMES
              1      18       32.04       500      610      700      900      950      970     1000      129      960     1100   
                                          VAR    BASINP    GEOM    SYMINP    ZMAT    AOBASIS   BASIS     P2S    ABASIS      S 
                                         1400     1410     1200     1210     1080     1600     1650     1700   
                                           T        V       H0       H01     AOSYM     SMH    MOLCAS    OPER   

 PROGRAMS   *        TOTAL       INT
 CPU TIMES  *        14.09     13.87
 REAL TIME  *        18.15 SEC
 DISK USED  *        32.49 MB (local),        6.32 GB (total)
 GA USED    *         0.00 MB       (max)       0.00 MB       (current)
 **********************************************************************************************************************************


 PROGRAM * RHF-SCF (CLOSED SHELL)       Authors: W. Meyer, H.-J. Werner


 NUMBER OF ELECTRONS:      10+   10-    SPACE SYMMETRY=1    SPIN SYMMETRY: Singlet 
 CONVERGENCE THRESHOLDS:    1.00E-08 (Density)    1.00E-11 (Energy)
 MAX. NUMBER OF ITERATIONS:       60
 INTERPOLATION TYPE:            DIIS
 INTERPOLATION STEPS:              2 (START)      1 (STEP)
 LEVEL SHIFTS:                  0.00 (CLOSED)  0.00 (OPEN) 



 Orbital guess generated from atomic densities. Full valence occupancy:   16

 Molecular orbital dump at record        2100.2

 Initial occupancy:  10

 ITERATION    DDIFF          GRAD             ENERGY        2-EL.EN.            DIPOLE MOMENTS         DIIS   ORB.
    1      0.000D+00      0.000D+00      -116.21374273    158.905741    0.87159   -0.73709   -0.14803    0    start
    2      0.000D+00      0.521D-02      -116.25748747    154.168753    0.49333   -0.39117   -0.08905    1    diag
    3      0.553D-02      0.303D-02      -116.27057009    156.151914    0.58759   -0.48005   -0.10346    2    diag
    4      0.183D-02      0.455D-03      -116.27121966    156.039120    0.57855   -0.47431   -0.10191    3    diag
    5      0.410D-03      0.133D-03      -116.27128698    156.034160    0.57833   -0.47366   -0.10228    4    diag
    6      0.145D-03      0.327D-04      -116.27129089    156.039983    0.57786   -0.47307   -0.10241    5    diag
    7      0.402D-04      0.656D-05      -116.27129113    156.038412    0.57793   -0.47305   -0.10248    6    diag
    8      0.111D-04      0.167D-05      -116.27129115    156.038565    0.57791   -0.47298   -0.10251    7    diag
    9      0.239D-05      0.367D-06      -116.27129115    156.038536    0.57790   -0.47296   -0.10251    8    diag
   10      0.757D-06      0.458D-07      -116.27129115    156.038538    0.57790   -0.47296   -0.10251    9    orth
   11      0.686D-07      0.131D-07      -116.27129115    156.038539    0.57790   -0.47296   -0.10251    9    diag
   12      0.265D-07      0.371D-08      -116.27129115    156.038538    0.57790   -0.47296   -0.10251    9    diag
   13      0.554D-08      0.960D-09      -116.27129115    156.038539    0.57790   -0.47296   -0.10251    0    orth

 Final occupancy:  10

 !RHF STATE  1.1 Energy              -116.271291150684
 Nuclear energy                        36.79874832
 One-electron energy                 -231.08930879
 Two-electron energy                   78.01926932
 Virial quotient                       -1.00096661
 !RHF STATE  1.1 Dipole moment          0.57790435    -0.47296068    -0.10251244
 Dipole moment /Debye                   1.46879014    -1.20206740    -0.26054358

 Orbital energies:

         1.1          2.1          3.1          4.1          5.1          6.1          7.1          8.1          9.1         10.1
    -20.570865   -11.199100    -1.344976    -0.953229    -0.708971    -0.582703    -0.555007    -0.552568    -0.550303    -0.507663

        11.1         12.1
      0.025401     0.041678


 HOMO     10.1    -0.507663 =     -13.8142eV
 LUMO     11.1     0.025401 =       0.6912eV
 LUMO-HOMO         0.533064 =      14.5054eV


 **********************************************************************************************************************************
 DATASETS  * FILE   NREC   LENGTH (MB)   RECORD NAMES
              1      18       32.04       500      610      700      900      950      970     1000      129      960     1100   
                                          VAR    BASINP    GEOM    SYMINP    ZMAT    AOBASIS   BASIS     P2S    ABASIS      S 
                                         1400     1410     1200     1210     1080     1600     1650     1700   
                                           T        V       H0       H01     AOSYM     SMH    MOLCAS    OPER   

              2       4        3.96       700     1000      520     2100   
                                         GEOM     BASIS   MCVARS     RHF  

 PROGRAMS   *        TOTAL    HF-SCF       INT
 CPU TIMES  *        28.06     13.97     13.87
 REAL TIME  *        33.19 SEC
 DISK USED  *        39.90 MB (local),        6.35 GB (total)
 SF USED    *         0.21 MB
 GA USED    *         0.00 MB       (max)       0.00 MB       (current)
 **********************************************************************************************************************************

 Basis set:  JKFIT                   
 Basis size:   740
 Attributes:
 Sphericals:   T
 Basis set:  MP2FIT                  
 Basis size:   816
 Attributes:
 Sphericals:   T
 Basis set:  RI                      
 Basis size:   556
 Attributes:
 Sphericals:   T
 Basis set:  TDDFT                   
 Basis size:   816
 Attributes:
 Sphericals:   T

 PROGRAM * CCSD (Closed-shell coupled cluster)     Authors: C. Hampel, H.-J. Werner, 1991, M. Deegan, P.J. Knowles, 1992


 Convergence thresholds:  THRVAR = 1.00D-08  THRDEN = 1.00D-10

 CCSD(T)     terms to be evaluated (factor= 1.000)


 Number of core orbitals:           2 (   2 )
 Number of closed-shell orbitals:   8 (   8 )
 Number of external orbitals:     220 ( 220 )

 Molecular orbitals read from record     2100.2  Type=RHF/CANONICAL (state 1.1)

 Number of N-1 electron functions:               8
 Number of N-2 electron functions:              36
 Number of singly external CSFs:              1760
 Number of doubly external CSFs:           1549680
 Total number of CSFs:                     1551441

 Length of J-op  integral file:               0.00 MB
 Length of K-op  integral file:               3.65 MB
 Length of 3-ext integral record:             0.00 MB

 Memory could be reduced to 116.39 Mwords without degradation in triples

 Integral transformation finished. Total CPU:  25.30 sec, npass=  1  Memory used:  59.35 MW

 Reference energy:                   -116.27129115

 MP2 singlet pair energy:              -0.31747562
 MP2 triplet pair energy:              -0.15406218
 MP2 correlation energy:               -0.47153780
 MP2 total energy:                   -116.74282895

 SCS-MP2 correlation energy:           -0.47683166   (PS=  1.200000  PT=  0.333333)
 SCS-MP2 total energy:               -116.74812281

 ITER.      SQ.NORM     CORR.ENERGY   TOTAL ENERGY   ENERGY CHANGE        DEN1      VAR(S)    VAR(P)  DIIS     TIME  TIME/IT
   1      1.13540670    -0.49421393  -116.76550508    -0.02267613    -0.01145693  0.14D-02  0.20D-02  1  1    39.73    14.40
   2      1.14446754    -0.49562355  -116.76691470    -0.00140962    -0.01037340  0.23D-04  0.24D-03  2  2    54.28    14.58
   3      1.14745460    -0.49575228  -116.76704343    -0.00012874    -0.00194865  0.15D-04  0.11D-04  3  3    68.83    14.63
   4      1.14825684    -0.49575228  -116.76704343     0.00000000    -0.00036264  0.60D-06  0.12D-05  4  4    83.40    14.65
   5      1.14841788    -0.49574964  -116.76704079     0.00000264    -0.00005117  0.22D-06  0.79D-07  5  5    97.89    14.68
   6      1.14846692    -0.49574500  -116.76703616     0.00000464    -0.00001245  0.20D-07  0.57D-08  6  6   112.44    14.70
   7      1.14847588    -0.49574432  -116.76703547     0.00000068    -0.00000111  0.18D-08  0.10D-08  6  2   126.88    14.71
   8      1.14847809    -0.49574415  -116.76703530     0.00000017    -0.00000021  0.36D-09  0.11D-09  6  1   141.41    14.72
   9      1.14847889    -0.49574411  -116.76703526     0.00000004     0.00000017  0.28D-10  0.14D-10  6  3   155.97    14.73
  10      1.14847911    -0.49574409  -116.76703524     0.00000002    -0.00000000  0.31D-11  0.23D-11  6  4   170.45    14.73
  11      1.14847908    -0.49574410  -116.76703525    -0.00000001     0.00000005  0.62D-12  0.26D-12  6  5   185.01    14.74
  12      1.14847906    -0.49574410  -116.76703525    -0.00000000     0.00000002  0.12D-12  0.38D-13  6  1   199.51    14.74
  13      1.14847904    -0.49574410  -116.76703525    -0.00000000     0.00000001  0.16D-13  0.48D-14  6  6   214.09    14.74
  14      1.14847903    -0.49574410  -116.76703525    -0.00000000     0.00000000  0.23D-14  0.92D-15  6  2   228.63    14.74
  15      1.14847903    -0.49574410  -116.76703525    -0.00000000    -0.00000000  0.24D-15  0.13D-15  6  3   243.21    14.74
  16      1.14847903    -0.49574410  -116.76703525    -0.00000000    -0.00000000  0.29D-16  0.21D-16  6  4   257.77    14.75

 Norm of t1 vector:      0.05147621      S-energy:     0.00000000      T1 diagnostic:  0.00909979
                                                                       D1 diagnostic:  0.02258289


 Total CPU time for triples:    218.56 sec


 RESULTS
 =======

  Reference energy                   -116.271291150686
  CCSD singlet pair energy             -0.354451202143
  CCSD triplet pair energy             -0.141292900223
  CCSD correlation energy              -0.495744102345

  Triples (T) contribution             -0.015442252417
  Total correlation energy             -0.511186354762

  CCSD total energy                  -116.767035253032
  CCSD[T] energy                     -116.783003412796
  CCSD-T energy                      -116.782224267403
 !CCSD(T) total energy               -116.782477505449

 Timing summary (sec):

 STEP                 CPU(USER)    SYS     CPU(TOT)    WALL
 Transformation         25.49      0.79     26.28     26.37
 CCSD iterations       232.30      3.40    235.70    236.00
 Triples               218.56      1.00    219.56    219.86

 Program statistics:

 Available memory in ccsd:              1999999734
 Min. memory needed in ccsd:               4617529
 Max. memory used in ccsd:                 5944569
 Max. memory used in cckext:               4248553 (16 integral passes)



 **********************************************************************************************************************************
 DATASETS  * FILE   NREC   LENGTH (MB)   RECORD NAMES
              1      19      398.13       500      610      700      900      950      970     1000      129      960     1100   
                                          VAR    BASINP    GEOM    SYMINP    ZMAT    AOBASIS   BASIS     P2S    ABASIS      S 
                                         1400     1410     1200     1210     1080     1600     1650     1700     1380   
                                           T        V       H0       H01     AOSYM     SMH    MOLCAS    OPER     JKOP   

              2       4        3.96       700     1000      520     2100   
                                         GEOM     BASIS   MCVARS     RHF  

 PROGRAMS   *        TOTAL   CCSD(T)    HF-SCF       INT
 CPU TIMES  *       504.65    476.58     13.97     13.87
 REAL TIME  *       516.20 SEC
 DISK USED  *       570.36 MB (local),        7.97 GB (total)
 SF USED    *       504.31 MB
 GA USED    *         0.00 MB       (max)       0.00 MB       (current)
 **********************************************************************************************************************************

 Running procedure: SET_MONOMER1

 Dummy atoms: C1  H41  H42  H43  H44


 Recomputing one-electron integrals since nuclear charges changed


 PROGRAM * SEWARD (Integral evaluation for generally contracted gaussian basis sets)     Author: Roland Lindh, 1990

 Geometry written to block  1 of record 700


 Point group  C1  



 ATOMIC COORDINATES

 NR  ATOM    CHARGE       X              Y              Z

   1  O18     8.00  -12.011477193    0.742095449    6.107594835
   2  H35     1.00  -11.750694988   -0.413472076    4.697292228
   3  H36     1.00  -10.560734447    0.465061599    7.217053042
   4  C1      0.00   -6.193010455    2.801518980    2.403542658
   5  H41     0.00   -4.656285171    1.699997622    3.119937832
   6  H42     0.00   -5.973046335    4.726205038    2.982932688
   7  H43     0.00   -7.940251230    2.077186956    3.118237078
   8  H44     0.00   -6.176569838    2.685300823    0.384937212

 Bond lengths in Bohr (Angstrom)

 1-2  1.841818967  1-3  1.847241128  4-5  2.021904040  4-6  2.022002335  4-7  2.021953343
     ( 0.974648624)     ( 0.977517908)     ( 1.069945541)     ( 1.069997556)     ( 1.069971630)

 4-8  2.022015060
     ( 1.070004290)

 Bond angles

  2-1-3  104.74973043   5-4-6  109.53398059   5-4-7  109.65604535   5-4-8  108.43490854

  6-4-7  109.49436728   6-4-8  109.86987750   7-4-8  109.83468330

 NUCLEAR CHARGE:                   10
 NUMBER OF PRIMITIVE AOS:         296
 NUMBER OF SYMMETRY AOS:          266
 NUMBER OF CONTRACTIONS:          230   (  230A   )
 NUMBER OF CORE ORBITALS:           1   (    1A   )
 NUMBER OF VALENCE ORBITALS:        6   (    6A   )

 MOLECULE CHANGED: INITIALIZING OCCUPATION AND DUMP RECORDS


 NUCLEAR REPULSION ENERGY    9.01656758

 Basis set:  JKFIT                   
 Basis size:   740
 Attributes:
 Sphericals:   T
 Basis set:  MP2FIT                  
 Basis size:   816
 Attributes:
 Sphericals:   T
 Basis set:  RI                      
 Basis size:   556
 Attributes:
 Sphericals:   T
 Basis set:  TDDFT                   
 Basis size:   816
 Attributes:
 Sphericals:   T

 Eigenvalues of metric

         1 0.349E-04 0.743E-04 0.993E-04 0.104E-03 0.326E-03 0.373E-03 0.459E-03 0.620E-03


 Contracted 2-electron integrals neglected if value below      1.0D-14

 OPERATOR DM      FOR CENTER  0  COORDINATES:    0.000000    0.000000    0.000000


 **********************************************************************************************************************************
 DATASETS  * FILE   NREC   LENGTH (MB)   RECORD NAMES
              1      18       32.04       500      610      700      900      950      970     1000      129      960     1100   
                                          VAR    BASINP    GEOM    SYMINP    ZMAT    AOBASIS   BASIS     P2S    ABASIS      S 
                                         1400     1410     1200     1210     1080     1600     1650     1700   
                                           T        V       H0       H01     AOSYM     SMH    MOLCAS    OPER   

              2       5        5.05       700     1000      520     2100      200   
                                         GEOM     BASIS   MCVARS     RHF    OPTIONS    

 PROGRAMS   *        TOTAL       INT   CCSD(T)    HF-SCF       INT
 CPU TIMES  *       504.89      0.24    476.58     13.97     13.87
 REAL TIME  *       516.95 SEC
 DISK USED  *       570.36 MB (local),        7.97 GB (total)
 SF USED    *       504.31 MB
 GA USED    *         0.00 MB       (max)       0.00 MB       (current)
 **********************************************************************************************************************************


 PROGRAM * RHF-SCF (CLOSED SHELL)       Authors: W. Meyer, H.-J. Werner


 NUMBER OF ELECTRONS:       5+    5-    SPACE SYMMETRY=1    SPIN SYMMETRY: Singlet 
 CONVERGENCE THRESHOLDS:    1.00E-08 (Density)    1.00E-11 (Energy)
 MAX. NUMBER OF ITERATIONS:       60
 INTERPOLATION TYPE:            DIIS
 INTERPOLATION STEPS:              2 (START)      1 (STEP)
 LEVEL SHIFTS:                  0.00 (CLOSED)  0.00 (OPEN) 



 Orbital guess generated from atomic densities. Full valence occupancy:    7

 Molecular orbital dump at record        2101.2

 Initial occupancy:   5

 ITERATION    DDIFF          GRAD             ENERGY        2-EL.EN.            DIPOLE MOMENTS         DIIS   ORB.
    1      0.000D+00      0.000D+00       -76.02053968     77.399704    0.87670   -0.73326   -0.15326    0    start
    2      0.000D+00      0.640D-02       -76.04722680     73.778686    0.51000   -0.42725   -0.09001    1    diag
    3      0.448D-02      0.407D-02       -76.05855105     75.379546    0.60090   -0.50320   -0.10587    2    diag
    4      0.161D-02      0.376D-03       -76.05874093     75.290108    0.59742   -0.50040   -0.10542    3    diag
    5      0.203D-03      0.104D-03       -76.05876078     75.304282    0.59611   -0.49935   -0.10526    4    diag
    6      0.635D-04      0.203D-04       -76.05876200     75.303419    0.59587   -0.49916   -0.10524    5    diag
    7      0.160D-04      0.399D-05       -76.05876206     75.303545    0.59578   -0.49909   -0.10523    6    diag
    8      0.419D-05      0.734D-06       -76.05876206     75.303531    0.59575   -0.49906   -0.10522    7    diag
    9      0.683D-06      0.921D-07       -76.05876206     75.303522    0.59574   -0.49906   -0.10522    8    diag
   10      0.922D-07      0.223D-07       -76.05876206     75.303526    0.59574   -0.49906   -0.10522    9    orth
   11      0.228D-07      0.410D-08       -76.05876206     75.303525    0.59574   -0.49906   -0.10522    9    diag
   12      0.470D-08      0.601D-09       -76.05876206     75.303525    0.59574   -0.49906   -0.10522    0    orth

 Final occupancy:   5

 !RHF STATE  1.1 Energy               -76.058762063463
 Nuclear energy                         9.01656758
 One-electron energy                 -122.72709204
 Two-electron energy                   37.65176239
 Virial quotient                       -1.00228055
 !RHF STATE  1.1 Dipole moment          0.59574465    -0.49906082    -0.10522267
 Dipole moment /Debye                   1.51413268    -1.26840299    -0.26743183

 Orbital energies:

         1.1          2.1          3.1          4.1          5.1          6.1          7.1
    -20.570311    -1.343864    -0.708024    -0.580829    -0.508754     0.019052     0.039402


 HOMO      5.1    -0.508754 =     -13.8439eV
 LUMO      6.1     0.019052 =       0.5184eV
 LUMO-HOMO         0.527807 =      14.3624eV


 **********************************************************************************************************************************
 DATASETS  * FILE   NREC   LENGTH (MB)   RECORD NAMES
              1      18       32.04       500      610      700      900      950      970     1000      129      960     1100   
                                          VAR    BASINP    GEOM    SYMINP    ZMAT    AOBASIS   BASIS     P2S    ABASIS      S 
                                         1400     1410     1200     1210     1080     1600     1650     1700   
                                           T        V       H0       H01     AOSYM     SMH    MOLCAS    OPER   

              2       6        9.09       700     1000      520     2100      200     2101   
                                         GEOM     BASIS   MCVARS     RHF    OPTIONS    RHF  

 PROGRAMS   *        TOTAL    HF-SCF       INT   CCSD(T)    HF-SCF       INT
 CPU TIMES  *       517.74     12.85      0.24    476.58     13.97     13.87
 REAL TIME  *       530.85 SEC
 DISK USED  *       570.36 MB (local),        7.97 GB (total)
 SF USED    *       504.31 MB
 GA USED    *         0.00 MB       (max)       0.00 MB       (current)
 **********************************************************************************************************************************

 Basis set:  JKFIT                   
 Basis size:   740
 Attributes:
 Sphericals:   T
 Basis set:  MP2FIT                  
 Basis size:   816
 Attributes:
 Sphericals:   T
 Basis set:  RI                      
 Basis size:   556
 Attributes:
 Sphericals:   T
 Basis set:  TDDFT                   
 Basis size:   816
 Attributes:
 Sphericals:   T

 PROGRAM * CCSD (Closed-shell coupled cluster)     Authors: C. Hampel, H.-J. Werner, 1991, M. Deegan, P.J. Knowles, 1992


 Convergence thresholds:  THRVAR = 1.00D-08  THRDEN = 1.00D-10

 CCSD(T)     terms to be evaluated (factor= 1.000)


 Number of core orbitals:           1 (   1 )
 Number of closed-shell orbitals:   4 (   4 )
 Number of external orbitals:     225 ( 225 )

 Molecular orbitals read from record     2101.2  Type=RHF/CANONICAL (state 1.1)

 Number of N-1 electron functions:               4
 Number of N-2 electron functions:              10
 Number of singly external CSFs:               900
 Number of doubly external CSFs:            405450
 Total number of CSFs:                      406351

 Length of J-op  integral file:               0.00 MB
 Length of K-op  integral file:               3.65 MB
 Length of 3-ext integral record:             0.00 MB

 Memory could be reduced to 75.63 Mwords without degradation in triples

 Integral transformation finished. Total CPU:  12.40 sec, npass=  1  Memory used:  32.52 MW

 Reference energy:                    -76.05876206

 MP2 singlet pair energy:              -0.17177856
 MP2 triplet pair energy:              -0.09823567
 MP2 correlation energy:               -0.27001423
 MP2 total energy:                    -76.32877629

 SCS-MP2 correlation energy:           -0.26725869   (PS=  1.200000  PT=  0.333333)
 SCS-MP2 total energy:                -76.32602075

 ITER.      SQ.NORM     CORR.ENERGY   TOTAL ENERGY   ENERGY CHANGE        DEN1      VAR(S)    VAR(P)  DIIS     TIME  TIME/IT
   1      1.06406500    -0.27416130   -76.33292336    -0.00414707     0.00159641  0.93D-03  0.10D-02  1  1    16.13     3.86
   2      1.06790797    -0.27446727   -76.33322933    -0.00030597    -0.00492407  0.11D-04  0.13D-03  2  2    19.87     3.98
   3      1.06935437    -0.27455084   -76.33331291    -0.00008358    -0.00093586  0.11D-04  0.59D-05  3  3    23.63     3.99
   4      1.06982563    -0.27454444   -76.33330650     0.00000640    -0.00021750  0.52D-06  0.73D-06  4  4    27.49     3.98
   5      1.06993309    -0.27454141   -76.33330348     0.00000303    -0.00003422  0.17D-06  0.48D-07  5  5    31.30     3.98
   6      1.06996969    -0.27453806   -76.33330012     0.00000335    -0.00000744  0.17D-07  0.39D-08  6  6    35.15     3.98
   7      1.06997721    -0.27453770   -76.33329976     0.00000036    -0.00000075  0.15D-08  0.80D-09  6  1    38.98     3.97
   8      1.06997907    -0.27453761   -76.33329967     0.00000009    -0.00000012  0.24D-09  0.92D-10  6  2    42.82     3.97
   9      1.06997963    -0.27453757   -76.33329964     0.00000004     0.00000019  0.19D-10  0.83D-11  6  3    46.68     3.97
  10      1.06997981    -0.27453755   -76.33329962     0.00000002    -0.00000002  0.25D-11  0.13D-11  6  4    50.52     3.97
  11      1.06997980    -0.27453756   -76.33329962    -0.00000000     0.00000002  0.55D-12  0.15D-12  6  5    54.33     3.97
  12      1.06997980    -0.27453756   -76.33329962     0.00000000     0.00000000  0.92D-13  0.29D-13  6  6    58.19     3.97
  13      1.06997980    -0.27453756   -76.33329962    -0.00000000     0.00000000  0.15D-13  0.52D-14  6  1    61.96     3.97
  14      1.06997979    -0.27453756   -76.33329962    -0.00000000     0.00000000  0.14D-14  0.63D-15  6  2    65.81     3.97
  15      1.06997979    -0.27453756   -76.33329962    -0.00000000     0.00000000  0.16D-15  0.11D-15  6  3    69.60     3.97
  16      1.06997979    -0.27453756   -76.33329962    -0.00000000     0.00000000  0.32D-16  0.16D-16  6  4    73.44     3.97

 Norm of t1 vector:      0.04109792      S-energy:    -0.00000000      T1 diagnostic:  0.01027448
                                                                       D1 diagnostic:  0.02184437


 Total CPU time for triples:     34.61 sec


 RESULTS
 =======

  Reference energy                    -76.058762063463
  CCSD singlet pair energy             -0.187582234362
  CCSD triplet pair energy             -0.086955326423
  CCSD correlation energy              -0.274537560838

  Triples (T) contribution             -0.008830166707
  Total correlation energy             -0.283367727545

  CCSD total energy                   -76.333299624301
  CCSD[T] energy                      -76.342465504538
  CCSD-T energy                       -76.341949140644
 !CCSD(T) total energy                -76.342129791008

 Timing summary (sec):

 STEP                 CPU(USER)    SYS     CPU(TOT)    WALL
 Transformation         12.45      0.55     13.00     13.04
 CCSD iterations        61.01      2.07     63.08     63.51
 Triples                34.61      0.17     34.78     34.84

 Program statistics:

 Available memory in ccsd:              1999999921
 Min. memory needed in ccsd:               1865022
 Max. memory used in ccsd:                 2159652
 Max. memory used in cckext:               1451153 (16 integral passes)



 **********************************************************************************************************************************
 DATASETS  * FILE   NREC   LENGTH (MB)   RECORD NAMES
              1      19      222.33       500      610      700      900      950      970     1000      129      960     1100   
                                          VAR    BASINP    GEOM    SYMINP    ZMAT    AOBASIS   BASIS     P2S    ABASIS      S 
                                         1400     1410     1200     1210     1080     1600     1650     1700     1380   
                                           T        V       H0       H01     AOSYM     SMH    MOLCAS    OPER     JKOP   

              2       6        9.09       700     1000      520     2100      200     2101   
                                         GEOM     BASIS   MCVARS     RHF    OPTIONS    RHF  

 PROGRAMS   *        TOTAL   CCSD(T)    HF-SCF       INT   CCSD(T)    HF-SCF       INT
 CPU TIMES  *       626.03    108.29     12.85      0.24    476.58     13.97     13.87
 REAL TIME  *       642.94 SEC
 DISK USED  *       570.36 MB (local),        7.97 GB (total)
 SF USED    *       504.31 MB
 GA USED    *         0.00 MB       (max)       0.00 MB       (current)
 **********************************************************************************************************************************

 Running procedure: SET_MONOMER2

 Dummy atoms: O18  H35  H36


 Recomputing one-electron integrals since nuclear charges changed


 PROGRAM * SEWARD (Integral evaluation for generally contracted gaussian basis sets)     Author: Roland Lindh, 1990

 Geometry written to block  1 of record 700


 Point group  C1  



 ATOMIC COORDINATES

 NR  ATOM    CHARGE       X              Y              Z

   1  O18     0.00  -12.011477193    0.742095449    6.107594835
   2  H35     0.00  -11.750694988   -0.413472076    4.697292228
   3  H36     0.00  -10.560734447    0.465061599    7.217053042
   4  C1      6.00   -6.193010455    2.801518980    2.403542658
   5  H41     1.00   -4.656285171    1.699997622    3.119937832
   6  H42     1.00   -5.973046335    4.726205038    2.982932688
   7  H43     1.00   -7.940251230    2.077186956    3.118237078
   8  H44     1.00   -6.176569838    2.685300823    0.384937212

 Bond lengths in Bohr (Angstrom)

 1-2  1.841818967  1-3  1.847241128  4-5  2.021904040  4-6  2.022002335  4-7  2.021953343
     ( 0.974648624)     ( 0.977517908)     ( 1.069945541)     ( 1.069997556)     ( 1.069971630)

 4-8  2.022015060
     ( 1.070004290)

 Bond angles

  2-1-3  104.74973043   5-4-6  109.53398059   5-4-7  109.65604535   5-4-8  108.43490854

  6-4-7  109.49436728   6-4-8  109.86987750   7-4-8  109.83468330

 NUCLEAR CHARGE:                   10
 NUMBER OF PRIMITIVE AOS:         296
 NUMBER OF SYMMETRY AOS:          266
 NUMBER OF CONTRACTIONS:          230   (  230A   )
 NUMBER OF CORE ORBITALS:           1   (    1A   )
 NUMBER OF VALENCE ORBITALS:        8   (    8A   )

 MOLECULE CHANGED: INITIALIZING OCCUPATION AND DUMP RECORDS


 NUCLEAR REPULSION ENERGY   13.68681606

 Basis set:  JKFIT                   
 Basis size:   740
 Attributes:
 Sphericals:   T
 Basis set:  MP2FIT                  
 Basis size:   816
 Attributes:
 Sphericals:   T
 Basis set:  RI                      
 Basis size:   556
 Attributes:
 Sphericals:   T
 Basis set:  TDDFT                   
 Basis size:   816
 Attributes:
 Sphericals:   T

 Eigenvalues of metric

         1 0.349E-04 0.743E-04 0.993E-04 0.104E-03 0.326E-03 0.373E-03 0.459E-03 0.620E-03


 Contracted 2-electron integrals neglected if value below      1.0D-14

 OPERATOR DM      FOR CENTER  0  COORDINATES:    0.000000    0.000000    0.000000


 **********************************************************************************************************************************
 DATASETS  * FILE   NREC   LENGTH (MB)   RECORD NAMES
              1      18       32.04       500      610      700      900      950      970     1000      129      960     1100   
                                          VAR    BASINP    GEOM    SYMINP    ZMAT    AOBASIS   BASIS     P2S    ABASIS      S 
                                         1400     1410     1200     1210     1080     1600     1650     1700   
                                           T        V       H0       H01     AOSYM     SMH    MOLCAS    OPER   

              2       6        9.09       700     1000      520     2100      200     2101   
                                         GEOM     BASIS   MCVARS     RHF    OPTIONS    RHF  

 PROGRAMS   *        TOTAL       INT   CCSD(T)    HF-SCF       INT   CCSD(T)    HF-SCF       INT
 CPU TIMES  *       626.27      0.23    108.29     12.85      0.24    476.58     13.97     13.87
 REAL TIME  *       643.65 SEC
 DISK USED  *       570.36 MB (local),        7.97 GB (total)
 SF USED    *       504.31 MB
 GA USED    *         0.00 MB       (max)       0.00 MB       (current)
 **********************************************************************************************************************************


 PROGRAM * RHF-SCF (CLOSED SHELL)       Authors: W. Meyer, H.-J. Werner


 NUMBER OF ELECTRONS:       5+    5-    SPACE SYMMETRY=1    SPIN SYMMETRY: Singlet 
 CONVERGENCE THRESHOLDS:    1.00E-08 (Density)    1.00E-11 (Energy)
 MAX. NUMBER OF ITERATIONS:       60
 INTERPOLATION TYPE:            DIIS
 INTERPOLATION STEPS:              2 (START)      1 (STEP)
 LEVEL SHIFTS:                  0.00 (CLOSED)  0.00 (OPEN) 



 Orbital guess generated from atomic densities. Full valence occupancy:    9

 Molecular orbital dump at record        2102.2

 Initial occupancy:   5

 ITERATION    DDIFF          GRAD             ENERGY        2-EL.EN.            DIPOLE MOMENTS         DIIS   ORB.
    1      0.000D+00      0.000D+00       -40.19359281     53.494057    0.00408   -0.00277   -0.00129    0    start
    2      0.000D+00      0.353D-02       -40.21071107     52.213682    0.00125   -0.00090   -0.00037    1    diag
    3      0.328D-02      0.137D-02       -40.21295966     52.664865    0.00179   -0.00126   -0.00054    2    diag
    4      0.924D-03      0.342D-03       -40.21327513     52.609846    0.00160   -0.00112   -0.00047    3    diag
    5      0.308D-03      0.444D-04       -40.21328053     52.612180    0.00157   -0.00110   -0.00046    4    diag
    6      0.823D-04      0.345D-05       -40.21328057     52.612279    0.00157   -0.00110   -0.00046    5    diag
    7      0.699D-05      0.265D-06       -40.21328057     52.612244    0.00157   -0.00110   -0.00046    6    diag
    8      0.103D-05      0.222D-07       -40.21328057     52.612245    0.00157   -0.00110   -0.00046    7    diag
    9      0.190D-06      0.287D-08       -40.21328057     52.612245    0.00157   -0.00110   -0.00046    8    diag
   10      0.103D-07      0.802D-09       -40.21328057     52.612245    0.00157   -0.00110   -0.00046    9    orth
   11      0.122D-08      0.107D-09       -40.21328057     52.612245    0.00157   -0.00110   -0.00046    0    orth

 Final occupancy:   5

 !RHF STATE  1.1 Energy               -40.213280569570
 Nuclear energy                        13.68681606
 One-electron energy                  -80.20621914
 Two-electron energy                   26.30612252
 Virial quotient                       -0.99869505
 !RHF STATE  1.1 Dipole moment          0.00156623    -0.00110261    -0.00045991
 Dipole moment /Debye                   0.00398069    -0.00280238    -0.00116890

 Orbital energies:

         1.1          2.1          3.1          4.1          5.1          6.1          7.1
    -11.197209    -0.950743    -0.551695    -0.549761    -0.547580     0.026713     0.042726


 HOMO      5.1    -0.547580 =     -14.9004eV
 LUMO      6.1     0.026713 =       0.7269eV
 LUMO-HOMO         0.574293 =      15.6273eV


 **********************************************************************************************************************************
 DATASETS  * FILE   NREC   LENGTH (MB)   RECORD NAMES
              1      18       32.04       500      610      700      900      950      970     1000      129      960     1100   
                                          VAR    BASINP    GEOM    SYMINP    ZMAT    AOBASIS   BASIS     P2S    ABASIS      S 
                                         1400     1410     1200     1210     1080     1600     1650     1700   
                                           T        V       H0       H01     AOSYM     SMH    MOLCAS    OPER   

              2       7       13.71       700     1000      520     2100      200     2101     2102   
                                         GEOM     BASIS   MCVARS     RHF    OPTIONS    RHF      RHF  

 PROGRAMS   *        TOTAL    HF-SCF       INT   CCSD(T)    HF-SCF       INT   CCSD(T)    HF-SCF       INT
 CPU TIMES  *       638.34     12.05      0.23    108.29     12.85      0.24    476.58     13.97     13.87
 REAL TIME  *       656.51 SEC
 DISK USED  *       570.36 MB (local),        7.97 GB (total)
 SF USED    *       504.31 MB
 GA USED    *         0.00 MB       (max)       0.00 MB       (current)
 **********************************************************************************************************************************

 Basis set:  JKFIT                   
 Basis size:   740
 Attributes:
 Sphericals:   T
 Basis set:  MP2FIT                  
 Basis size:   816
 Attributes:
 Sphericals:   T
 Basis set:  RI                      
 Basis size:   556
 Attributes:
 Sphericals:   T
 Basis set:  TDDFT                   
 Basis size:   816
 Attributes:
 Sphericals:   T

 PROGRAM * CCSD (Closed-shell coupled cluster)     Authors: C. Hampel, H.-J. Werner, 1991, M. Deegan, P.J. Knowles, 1992


 Convergence thresholds:  THRVAR = 1.00D-08  THRDEN = 1.00D-10

 CCSD(T)     terms to be evaluated (factor= 1.000)


 Number of core orbitals:           1 (   1 )
 Number of closed-shell orbitals:   4 (   4 )
 Number of external orbitals:     225 ( 225 )

 Molecular orbitals read from record     2102.2  Type=RHF/CANONICAL (state 1.1)

 Number of N-1 electron functions:               4
 Number of N-2 electron functions:              10
 Number of singly external CSFs:               900
 Number of doubly external CSFs:            405450
 Total number of CSFs:                      406351

 Length of J-op  integral file:               0.00 MB
 Length of K-op  integral file:               3.65 MB
 Length of 3-ext integral record:             0.00 MB

 Memory could be reduced to 75.63 Mwords without degradation in triples

 Integral transformation finished. Total CPU:  12.34 sec, npass=  1  Memory used:  32.52 MW

 Reference energy:                    -40.21328057

 MP2 singlet pair energy:              -0.14548048
 MP2 triplet pair energy:              -0.05506814
 MP2 correlation energy:               -0.20054861
 MP2 total energy:                    -40.41382918

 SCS-MP2 correlation energy:           -0.20884119   (PS=  1.200000  PT=  0.333333)
 SCS-MP2 total energy:                -40.42212176

 ITER.      SQ.NORM     CORR.ENERGY   TOTAL ENERGY   ENERGY CHANGE        DEN1      VAR(S)    VAR(P)  DIIS     TIME  TIME/IT
   1      1.07101165    -0.21909086   -40.43237143    -0.01854225    -0.01308858  0.46D-03  0.10D-02  1  1    16.26     3.92
   2      1.07650399    -0.22019220   -40.43347277    -0.00110134    -0.00567716  0.13D-04  0.71D-04  2  2    20.16     3.96
   3      1.07773337    -0.22024543   -40.43352600    -0.00005323    -0.00078923  0.16D-05  0.48D-05  3  3    24.26     4.05
   4      1.07803762    -0.22025445   -40.43353502    -0.00000902    -0.00012826  0.92D-07  0.22D-06  4  4    28.08     4.03
   5      1.07808384    -0.22025339   -40.43353396     0.00000106    -0.00001887  0.58D-08  0.16D-07  5  5    31.93     4.02
   6      1.07808878    -0.22025259   -40.43353316     0.00000079    -0.00000161  0.48D-09  0.12D-08  6  6    35.82     4.02
   7      1.07808950    -0.22025244   -40.43353301     0.00000016    -0.00000033  0.34D-10  0.97D-10  6  1    39.65     4.02
   8      1.07808943    -0.22025249   -40.43353306    -0.00000005     0.00000021  0.34D-11  0.61D-11  6  3    43.54     4.01
   9      1.07808953    -0.22025248   -40.43353305     0.00000001    -0.00000006  0.35D-12  0.45D-12  6  2    47.38     4.01
  10      1.07808954    -0.22025247   -40.43353304     0.00000000    -0.00000000  0.32D-13  0.45D-13  6  4    51.30     4.01
  11      1.07808954    -0.22025247   -40.43353304     0.00000000     0.00000000  0.26D-14  0.50D-14  6  5    55.14     4.01
  12      1.07808954    -0.22025247   -40.43353304     0.00000000     0.00000000  0.66D-16  0.59D-15  6  6    59.05     4.01
  13      1.07808953    -0.22025247   -40.43353304    -0.00000000     0.00000000  0.73D-17  0.57D-16  6  1    62.92     4.01

 Norm of t1 vector:      0.02947623      S-energy:     0.00000000      T1 diagnostic:  0.00736906
                                                                       D1 diagnostic:  0.01186526

 Total CPU time for triples:     34.61 sec


 RESULTS
 =======

  Reference energy                    -40.213280569570
  CCSD singlet pair energy             -0.166755387839
  CCSD triplet pair energy             -0.053497084972
  CCSD correlation energy              -0.220252472729

  Triples (T) contribution             -0.006424760700
  Total correlation energy             -0.226677233428

  CCSD total energy                   -40.433533042298
  CCSD[T] energy                      -40.440140413904
  CCSD-T energy                       -40.439889915219
 !CCSD(T) total energy                -40.439957802998

 Timing summary (sec):

 STEP                 CPU(USER)    SYS     CPU(TOT)    WALL
 Transformation         12.39      0.46     12.85     12.93
 CCSD iterations        50.55      1.58     52.13     52.19
 Triples                34.61      0.14     34.75     34.79

 Program statistics:

 Available memory in ccsd:              1999999916
 Min. memory needed in ccsd:               1865022
 Max. memory used in ccsd:                 2159652
 Max. memory used in cckext:               1451153 (13 integral passes)



 **********************************************************************************************************************************
 DATASETS  * FILE   NREC   LENGTH (MB)   RECORD NAMES
              1      19      222.33       500      610      700      900      950      970     1000      129      960     1100   
                                          VAR    BASINP    GEOM    SYMINP    ZMAT    AOBASIS   BASIS     P2S    ABASIS      S 
                                         1400     1410     1200     1210     1080     1600     1650     1700     1380   
                                           T        V       H0       H01     AOSYM     SMH    MOLCAS    OPER     JKOP   

              2       7       13.71       700     1000      520     2100      200     2101     2102   
                                         GEOM     BASIS   MCVARS     RHF    OPTIONS    RHF      RHF  

 PROGRAMS   *        TOTAL   CCSD(T)    HF-SCF       INT   CCSD(T)    HF-SCF       INT   CCSD(T)    HF-SCF       INT
 CPU TIMES  *       736.10     97.75     12.05      0.23    108.29     12.85      0.24    476.58     13.97     13.87
 REAL TIME  *       757.14 SEC
 DISK USED  *       570.36 MB (local),        7.97 GB (total)
 SF USED    *       504.31 MB
 GA USED    *         0.00 MB       (max)       0.00 MB       (current)
 **********************************************************************************************************************************
 Molecular orbitals read from record     2102.2  Type=RHF/CANONICAL (state 1.1)
 Occupation numbers read from record     2102.2  Type=RHF/RHF (state 1.1)
 Orbital energies read from record       2102.2  Type=RHF/CANONICAL (state 1.1)
 Redundancy group numbers read from rec  2102.2  Type=RHF/RHF (state 1.1)

 CCSD(T)/aug-cc-pVTZ energy=    -40.439957802998

         CCSD(T)          HF-SCF         CCSD(T)          HF-SCF         CCSD(T)          HF-SCF
    -40.43995780    -40.21328057    -76.34212979    -76.05876206   -116.78247751   -116.27129115
 **********************************************************************************************************************************
 Molpro calculation terminated
