
 Primary working directories    : /scratch/klimes/383101/molpro.CJgZgEbksv
 Secondary working directories  : /scratch/klimes/383101/molpro.CJgZgEbksv
 Wavefunction directory         : /scratch/klimes/383101/
 Main file repository           : /scratch/klimes/383101/molpro.CJgZgEbksv/

 id        : karlovklimes

 Nodes                      nprocs
 nc-22.cc.karlov.mff.cuni.cz    4

 Using customized tuning parameters: mindgm=1; mindgv=20; mindgc=4; mindgr=1; noblas=0; minvec=7
 default implementation of scratch files=sf  


 Variables initialized (930), CPU time= 0.01 sec
                                                                                 !gdirect
 memory,2000,m
 gthresh,orbital=1d-10,energy=1d-10,grid=1d-8
 
 symmetry,nosym
 angstrom
 geometry={
 O19        -6.574800000000      3.149500000000     -0.152800000000
 H37        -7.467300000000      3.443900000000     -0.376700000000
 H38        -6.567400000000      3.105000000000      0.858500000000
 C1        -3.277200000000      1.482500000000      1.271900000000
 H41        -2.464000000000      0.899600000000      1.651000000000
 H42        -3.160800000000      2.501000000000      1.578500000000
 H43        -4.201800000000      1.099200000000      1.650100000000
 H44        -3.268500000000      1.421000000000      0.203700000000
 }
 
 nkerna=1
 nkernb=1
 
 gf=0
 sing=1
 thrdum=1d-4
 gridthr=1d-8
 
 basis={
 set,orbital
 default,avtz
 set,jkfit
 default,avqz/jkfit
 set,mp2fit
 default,avqz/mp2fit
 set,ri
 default,avqz/optri
 set,tddft
 default,avqz/mp2fit
 }
 
 proc set_monomer1
 dummy,4,5,6,7,8
 endproc
 
 proc set_monomer2
 dummy,1,2,3
 endproc
 
                                                                                 !1234 energy
 {hf,accu=1.d-16}
 ccsd(t)
 
 set_monomer1
 {hf,accu=1.d-16}
 ccsd(t)
 
 set_monomer2
 {hf,accu=1.d-16}
 ccsd(t)
 
 Commands  initialized (760), CPU time= 0.02 sec, 617 directives.
 Default parameters read. Elapsed time= 0.22 sec

 Checking input...
 Passed
1


                                         ***  PROGRAM SYSTEM MOLPRO  ***
                                       Copyright, TTI GmbH Stuttgart, 2015
                                    Version 2019.1 linked Jan 14 2019 13:09:19


 **********************************************************************************************************************************
 LABEL *                                                                                 
  64 bit mpp version                                                                     DATE: 11-Mar-20          TIME: 13:05:32  
 **********************************************************************************************************************************

 SHA1:             d688ac825633d238f2093ded1675ba87ccd55965
 **********************************************************************************************************************************

 THRESHOLDS:

 ZERO    =  1.00D-12  ONEINT  =  1.00D-12  TWOINT  =  1.00D-11  PREFAC  =  1.00D-14  XXXXXX  =  1.00D-09  EORDER  =  1.00D-04
 ENERGY  =  1.00D-10  ETEST   =  0.00D+00  EDENS   =  0.00D+00  THRDEDEF=  1.00D-06  GRADIENT=  1.00D-02  STEP    =  1.00D-03
 ORBITAL =  1.00D-10  CIVEC   =  1.00D-05  COEFF   =  1.00D-04  PRINTCI =  5.00D-02  PUNCHCI =  9.90D+01  OPTGRAD =  3.00D-04
 OPTENERG=  1.00D-06  OPTSTEP =  3.00D-04  THRGRAD =  1.00D-10  COMPRESS=  1.00D-11  VARMIN  =  1.00D-07  VARMAX  =  1.00D-03
 THRDOUB =  0.00D+00  THRDIV  =  1.00D-05  THRRED  =  1.00D-07  THRPSP  =  1.00D+00  THRDC   =  1.00D-10  THRCS   =  1.00D-10
 THRNRM  =  1.00D-08  THREQ   =  0.00D+00  THRDE   =  1.00D+00  THRREF  =  1.00D-05  SPARFAC =  1.00D+00  THRDLP  =  1.00D-07
 THRDIA  =  1.00D-10  THRDLS  =  1.00D-07  THRGPS  =  0.00D+00  THRKEX  =  0.00D+00  THRDIS  =  2.00D-01  THRVAR  =  1.00D-10
 THRLOC  =  1.00D-06  THRGAP  =  1.00D-06  THRLOCT = -1.00D+00  THRGAPT = -1.00D+00  THRORB  =  1.00D-06  THRMLTP =  0.00D+00
 THRCPQCI=  1.00D-10  KEXTA   =  0.00D+00  THRCOARS=  0.00D+00  SYMTOL  =  1.00D-06  GRADTOL =  1.00D-06  THROVL  =  1.00D-08
 THRORTH =  1.00D-08  GRID    =  1.00D-08  GRIDMAX =  1.00D-03  DTMAX   =  0.00D+00  THROCCDE=  1.00D-01  THROCCDE=  1.00D-01
 THRPRINT=  2.50D-01


 Variable memory set to 2000000000 words,  buffer space 

 ZSYMEL=NOSYM
 ZUNIT=ANG


Geometry recognized as XYZ

 SETTING NKERNA         =         1.00000000                                  
 SETTING NKERNB         =         1.00000000                                  
 SETTING GF             =     0.00000000D+00                                  
 SETTING SING           =         1.00000000                                  
 SETTING THRDUM         =     1.00000000D-04                                  
 SETTING GRIDTHR        =     1.00000000D-08                                  
 SETTING BASIS          =    AVTZ


 Recomputing integrals since basis changed


 Using spherical harmonics

 Library entry O      S aug-cc-pVTZ          selected for orbital group  1
 Library entry O      P aug-cc-pVTZ          selected for orbital group  1
 Library entry O      D aug-cc-pVTZ          selected for orbital group  1
 Library entry O      F aug-cc-pVTZ          selected for orbital group  1
 Library entry H      S aug-cc-pVTZ          selected for orbital group  2
 Library entry H      P aug-cc-pVTZ          selected for orbital group  2
 Library entry H      D aug-cc-pVTZ          selected for orbital group  2
 Library entry C      S aug-cc-pVTZ          selected for orbital group  3
 Library entry C      P aug-cc-pVTZ          selected for orbital group  3
 Library entry C      D aug-cc-pVTZ          selected for orbital group  3
 Library entry C      F aug-cc-pVTZ          selected for orbital group  3


 PROGRAM * SEWARD (Integral evaluation for generally contracted gaussian basis sets)     Author: Roland Lindh, 1990

 Geometry written to block  1 of record 700


 Point group  C1  



 ATOMIC COORDINATES

 NR  ATOM    CHARGE       X              Y              Z

   1  O19     8.00  -12.424571324    5.951692429   -0.288750152
   2  H37     1.00  -14.111151890    6.508027800   -0.711859831
   3  H38     1.00  -12.410587350    5.867599617    1.622329878
   4  C1      6.00   -6.193010455    2.801518980    2.403542658
   5  H41     1.00   -4.656285171    1.699997622    3.119937832
   6  H42     1.00   -5.973046335    4.726205038    2.982932688
   7  H43     1.00   -7.940251230    2.077186956    3.118237078
   8  H44     1.00   -6.176569838    2.685300823    0.384937212

 Bond lengths in Bohr (Angstrom)

 1-2  1.825673808  1-3  1.912980406  4-5  2.021904040  4-6  2.022002335  4-7  2.021953343
     ( 0.966104974)     ( 1.012305636)     ( 1.069945541)     ( 1.069997556)     ( 1.069971630)

 4-8  2.022015060
     ( 1.070004290)

 Bond angles

  2-1-3  104.57658282   5-4-6  109.53398059   5-4-7  109.65604535   5-4-8  108.43490854

  6-4-7  109.49436728   6-4-8  109.86987750   7-4-8  109.83468330

 NUCLEAR CHARGE:                   20
 NUMBER OF PRIMITIVE AOS:         296
 NUMBER OF SYMMETRY AOS:          266
 NUMBER OF CONTRACTIONS:          230   (  230A   )
 NUMBER OF CORE ORBITALS:           2   (    2A   )
 NUMBER OF VALENCE ORBITALS:       14   (   14A   )


 NUCLEAR REPULSION ENERGY   35.73898765


 Basis set:  JKFIT                   
 Basis size:   740
 Attributes:
 Sphericals:   T
 Basis set:  MP2FIT                  
 Basis size:   816
 Attributes:
 Sphericals:   T
 Basis set:  RI                      
 Basis size:   556
 Attributes:
 Sphericals:   T
 Basis set:  TDDFT                   
 Basis size:   816
 Attributes:
 Sphericals:   T

 **********************************************************************************************************************************


 Eigenvalues of metric

         1 0.568E-04 0.709E-04 0.104E-03 0.105E-03 0.336E-03 0.379E-03 0.666E-03 0.765E-03


 Contracted 2-electron integrals neglected if value below      1.0D-14
 AO integral compression algorithm  1   Integral accuracy      1.0D-14

     2096.366 MB (compressed) written to integral file ( 65.4%)

     Node minimum: 492.831 MB, node maximum: 547.881 MB


 NUMBER OF SORTED TWO-ELECTRON INTEGRALS:   88219044.     BUFFER LENGTH:  32768
 NUMBER OF SEGMENTS:   6  SEGMENT LENGTH:   15998348      RECORD LENGTH: 524288

 Memory used in sort:      16.56 MW

 SORT1 READ   400769927. AND WROTE    80016861. INTEGRALS IN    233 RECORDS. CPU TIME:     7.94 SEC, REAL TIME:     9.08 SEC
 SORT2 READ   320232326. AND WROTE   352862895. INTEGRALS IN   7520 RECORDS. CPU TIME:     1.73 SEC, REAL TIME:     2.53 SEC

 Node minimum:    88205762.  Node maximum:    88225686. integrals

 OPERATOR DM      FOR CENTER  0  COORDINATES:    0.000000    0.000000    0.000000


 **********************************************************************************************************************************
 DATASETS  * FILE   NREC   LENGTH (MB)   RECORD NAMES
              1      18       32.04       500      610      700      900      950      970     1000      129      960     1100   
                                          VAR    BASINP    GEOM    SYMINP    ZMAT    AOBASIS   BASIS     P2S    ABASIS      S 
                                         1400     1410     1200     1210     1080     1600     1650     1700   
                                           T        V       H0       H01     AOSYM     SMH    MOLCAS    OPER   

 PROGRAMS   *        TOTAL       INT
 CPU TIMES  *        14.55     14.32
 REAL TIME  *        19.23 SEC
 DISK USED  *        32.49 MB (local),        6.04 GB (total)
 GA USED    *         0.00 MB       (max)       0.00 MB       (current)
 **********************************************************************************************************************************


 PROGRAM * RHF-SCF (CLOSED SHELL)       Authors: W. Meyer, H.-J. Werner


 NUMBER OF ELECTRONS:      10+   10-    SPACE SYMMETRY=1    SPIN SYMMETRY: Singlet 
 CONVERGENCE THRESHOLDS:    1.00E-08 (Density)    1.00E-11 (Energy)
 MAX. NUMBER OF ITERATIONS:       60
 INTERPOLATION TYPE:            DIIS
 INTERPOLATION STEPS:              2 (START)      1 (STEP)
 LEVEL SHIFTS:                  0.00 (CLOSED)  0.00 (OPEN) 



 Orbital guess generated from atomic densities. Full valence occupancy:   16

 Molecular orbital dump at record        2100.2

 Initial occupancy:  10

 ITERATION    DDIFF          GRAD             ENERGY        2-EL.EN.            DIPOLE MOMENTS         DIIS   ORB.
    1      0.000D+00      0.000D+00      -116.21022620    157.205206   -0.84425    0.23588    0.77356    0    start
    2      0.000D+00      0.524D-02      -116.25428883    152.144959   -0.49495    0.14447    0.38909    1    diag
    3      0.553D-02      0.313D-02      -116.26823311    154.244416   -0.58641    0.16791    0.48505    2    diag
    4      0.185D-02      0.457D-03      -116.26889573    154.132550   -0.57954    0.16585    0.47549    3    diag
    5      0.412D-03      0.135D-03      -116.26896552    154.127002   -0.58006    0.16608    0.47417    4    diag
    6      0.145D-03      0.331D-04      -116.26896950    154.132906   -0.57972    0.16600    0.47330    5    diag
    7      0.396D-04      0.664D-05      -116.26896975    154.131335   -0.57981    0.16603    0.47322    6    diag
    8      0.110D-04      0.175D-05      -116.26896977    154.131492   -0.57979    0.16603    0.47313    7    diag
    9      0.263D-05      0.378D-06      -116.26896977    154.131466   -0.57978    0.16603    0.47311    8    diag
   10      0.785D-06      0.423D-07      -116.26896977    154.131467   -0.57978    0.16603    0.47311    9    orth
   11      0.605D-07      0.108D-07      -116.26896977    154.131469   -0.57978    0.16603    0.47311    9    diag
   12      0.236D-07      0.277D-08      -116.26896977    154.131468   -0.57978    0.16603    0.47311    9    diag
   13      0.378D-08      0.728D-09      -116.26896977    154.131469   -0.57978    0.16603    0.47311    0    orth

 Final occupancy:  10

 !RHF STATE  1.1 Energy              -116.268969769978
 Nuclear energy                        35.73898765
 One-electron energy                 -229.07369168
 Two-electron energy                   77.06573426
 Virial quotient                       -1.00138692
 !RHF STATE  1.1 Dipole moment         -0.57978288     0.16602909     0.47310674
 Dipole moment /Debye                  -1.47356456     0.42197622     1.20243862

 Orbital energies:

         1.1          2.1          3.1          4.1          5.1          6.1          7.1          8.1          9.1         10.1
    -20.572182   -11.192847    -1.337768    -0.946305    -0.700649    -0.578186    -0.547658    -0.545736    -0.542333    -0.507449

        11.1         12.1
      0.027393     0.038727


 HOMO     10.1    -0.507449 =     -13.8084eV
 LUMO     11.1     0.027393 =       0.7454eV
 LUMO-HOMO         0.534843 =      14.5538eV


 **********************************************************************************************************************************
 DATASETS  * FILE   NREC   LENGTH (MB)   RECORD NAMES
              1      18       32.04       500      610      700      900      950      970     1000      129      960     1100   
                                          VAR    BASINP    GEOM    SYMINP    ZMAT    AOBASIS   BASIS     P2S    ABASIS      S 
                                         1400     1410     1200     1210     1080     1600     1650     1700   
                                           T        V       H0       H01     AOSYM     SMH    MOLCAS    OPER   

              2       4        3.96       700     1000      520     2100   
                                         GEOM     BASIS   MCVARS     RHF  

 PROGRAMS   *        TOTAL    HF-SCF       INT
 CPU TIMES  *        29.26     14.71     14.32
 REAL TIME  *        35.54 SEC
 DISK USED  *        39.90 MB (local),        6.07 GB (total)
 SF USED    *         0.21 MB
 GA USED    *         0.00 MB       (max)       0.00 MB       (current)
 **********************************************************************************************************************************

 Basis set:  JKFIT                   
 Basis size:   740
 Attributes:
 Sphericals:   T
 Basis set:  MP2FIT                  
 Basis size:   816
 Attributes:
 Sphericals:   T
 Basis set:  RI                      
 Basis size:   556
 Attributes:
 Sphericals:   T
 Basis set:  TDDFT                   
 Basis size:   816
 Attributes:
 Sphericals:   T

 PROGRAM * CCSD (Closed-shell coupled cluster)     Authors: C. Hampel, H.-J. Werner, 1991, M. Deegan, P.J. Knowles, 1992


 Convergence thresholds:  THRVAR = 1.00D-08  THRDEN = 1.00D-10

 CCSD(T)     terms to be evaluated (factor= 1.000)


 Number of core orbitals:           2 (   2 )
 Number of closed-shell orbitals:   8 (   8 )
 Number of external orbitals:     220 ( 220 )

 Molecular orbitals read from record     2100.2  Type=RHF/CANONICAL (state 1.1)

 Number of N-1 electron functions:               8
 Number of N-2 electron functions:              36
 Number of singly external CSFs:              1760
 Number of doubly external CSFs:           1549680
 Total number of CSFs:                     1551441

 Length of J-op  integral file:               0.00 MB
 Length of K-op  integral file:               3.65 MB
 Length of 3-ext integral record:             0.00 MB

 Memory could be reduced to 116.39 Mwords without degradation in triples

 Integral transformation finished. Total CPU:  23.75 sec, npass=  1  Memory used:  59.35 MW

 Reference energy:                   -116.26896977

 MP2 singlet pair energy:              -0.31797671
 MP2 triplet pair energy:              -0.15399404
 MP2 correlation energy:               -0.47197075
 MP2 total energy:                   -116.74094052

 SCS-MP2 correlation energy:           -0.47739056   (PS=  1.200000  PT=  0.333333)
 SCS-MP2 total energy:               -116.74636033

 ITER.      SQ.NORM     CORR.ENERGY   TOTAL ENERGY   ENERGY CHANGE        DEN1      VAR(S)    VAR(P)  DIIS     TIME  TIME/IT
   1      1.13615862    -0.49450609  -116.76347586    -0.02253534    -0.01116419  0.14D-02  0.21D-02  1  1    38.20    14.38
   2      1.14534639    -0.49592869  -116.76489846    -0.00142260    -0.01046933  0.23D-04  0.25D-03  2  2    52.69    14.54
   3      1.14844182    -0.49606799  -116.76503776    -0.00013929    -0.00201842  0.15D-04  0.12D-04  3  3    67.08    14.58
   4      1.14927928    -0.49607014  -116.76503991    -0.00000216    -0.00037440  0.61D-06  0.12D-05  4  4    81.49    14.61
   5      1.14944244    -0.49606730  -116.76503707     0.00000285    -0.00005165  0.21D-06  0.80D-07  5  5    95.84    14.62
   6      1.14949230    -0.49606251  -116.76503228     0.00000478    -0.00001233  0.18D-07  0.51D-08  6  6   110.24    14.63
   7      1.14950086    -0.49606195  -116.76503172     0.00000057    -0.00000079  0.13D-08  0.83D-09  6  2   124.68    14.64
   8      1.14950268    -0.49606180  -116.76503157     0.00000014     0.00000001  0.24D-09  0.86D-10  6  1   139.14    14.65
   9      1.14950343    -0.49606174  -116.76503151     0.00000006     0.00000001  0.20D-10  0.12D-10  6  3   153.61    14.66
  10      1.14950359    -0.49606173  -116.76503150     0.00000001     0.00000001  0.29D-11  0.16D-11  6  4   168.01    14.66
  11      1.14950352    -0.49606174  -116.76503151    -0.00000001     0.00000007  0.54D-12  0.26D-12  6  6   182.50    14.66
  12      1.14950350    -0.49606174  -116.76503151    -0.00000000     0.00000002  0.92D-13  0.29D-13  6  5   196.96    14.66
  13      1.14950349    -0.49606174  -116.76503151    -0.00000000     0.00000000  0.16D-13  0.47D-14  6  2   211.35    14.67
  14      1.14950348    -0.49606174  -116.76503151    -0.00000000     0.00000000  0.19D-14  0.12D-14  6  1   225.76    14.67
  15      1.14950348    -0.49606174  -116.76503151    -0.00000000    -0.00000000  0.16D-15  0.11D-15  6  3   240.21    14.67
  16      1.14950348    -0.49606174  -116.76503151    -0.00000000    -0.00000000  0.24D-16  0.15D-16  6  4   254.67    14.68

 Norm of t1 vector:      0.05181307      S-energy:     0.00000000      T1 diagnostic:  0.00915934
                                                                       D1 diagnostic:  0.02265515


 Total CPU time for triples:    216.00 sec


 RESULTS
 =======

  Reference energy                   -116.268969769978
  CCSD singlet pair energy             -0.355198851675
  CCSD triplet pair energy             -0.140862893030
  CCSD correlation energy              -0.496061744675

  Triples (T) contribution             -0.015460240351
  Total correlation energy             -0.511521985026

  CCSD total energy                  -116.765031514653
  CCSD[T] energy                     -116.781026351548
  CCSD-T energy                      -116.780234259630
 !CCSD(T) total energy               -116.780491755004

 Timing summary (sec):

 STEP                 CPU(USER)    SYS     CPU(TOT)    WALL
 Transformation         23.94      0.83     24.77     24.84
 CCSD iterations       230.75      3.87    234.62    234.86
 Triples               216.00      0.89    216.89    217.13

 Program statistics:

 Available memory in ccsd:              1999999734
 Min. memory needed in ccsd:               4617529
 Max. memory used in ccsd:                 5944569
 Max. memory used in cckext:               4248553 (16 integral passes)



 **********************************************************************************************************************************
 DATASETS  * FILE   NREC   LENGTH (MB)   RECORD NAMES
              1      19      398.13       500      610      700      900      950      970     1000      129      960     1100   
                                          VAR    BASINP    GEOM    SYMINP    ZMAT    AOBASIS   BASIS     P2S    ABASIS      S 
                                         1400     1410     1200     1210     1080     1600     1650     1700     1380   
                                           T        V       H0       H01     AOSYM     SMH    MOLCAS    OPER     JKOP   

              2       4        3.96       700     1000      520     2100   
                                         GEOM     BASIS   MCVARS     RHF  

 PROGRAMS   *        TOTAL   CCSD(T)    HF-SCF       INT
 CPU TIMES  *       500.19    470.93     14.71     14.32
 REAL TIME  *       513.12 SEC
 DISK USED  *       570.36 MB (local),        7.68 GB (total)
 SF USED    *       504.31 MB
 GA USED    *         0.00 MB       (max)       0.00 MB       (current)
 **********************************************************************************************************************************

 Running procedure: SET_MONOMER1

 Dummy atoms: C1  H41  H42  H43  H44


 Recomputing one-electron integrals since nuclear charges changed


 PROGRAM * SEWARD (Integral evaluation for generally contracted gaussian basis sets)     Author: Roland Lindh, 1990

 Geometry written to block  1 of record 700


 Point group  C1  



 ATOMIC COORDINATES

 NR  ATOM    CHARGE       X              Y              Z

   1  O19     8.00  -12.424571324    5.951692429   -0.288750152
   2  H37     1.00  -14.111151890    6.508027800   -0.711859831
   3  H38     1.00  -12.410587350    5.867599617    1.622329878
   4  C1      0.00   -6.193010455    2.801518980    2.403542658
   5  H41     0.00   -4.656285171    1.699997622    3.119937832
   6  H42     0.00   -5.973046335    4.726205038    2.982932688
   7  H43     0.00   -7.940251230    2.077186956    3.118237078
   8  H44     0.00   -6.176569838    2.685300823    0.384937212

 Bond lengths in Bohr (Angstrom)

 1-2  1.825673808  1-3  1.912980406  4-5  2.021904040  4-6  2.022002335  4-7  2.021953343
     ( 0.966104974)     ( 1.012305636)     ( 1.069945541)     ( 1.069997556)     ( 1.069971630)

 4-8  2.022015060
     ( 1.070004290)

 Bond angles

  2-1-3  104.57658282   5-4-6  109.53398059   5-4-7  109.65604535   5-4-8  108.43490854

  6-4-7  109.49436728   6-4-8  109.86987750   7-4-8  109.83468330

 NUCLEAR CHARGE:                   10
 NUMBER OF PRIMITIVE AOS:         296
 NUMBER OF SYMMETRY AOS:          266
 NUMBER OF CONTRACTIONS:          230   (  230A   )
 NUMBER OF CORE ORBITALS:           1   (    1A   )
 NUMBER OF VALENCE ORBITALS:        6   (    6A   )

 MOLECULE CHANGED: INITIALIZING OCCUPATION AND DUMP RECORDS


 NUCLEAR REPULSION ENERGY    8.90195171

 Basis set:  JKFIT                   
 Basis size:   740
 Attributes:
 Sphericals:   T
 Basis set:  MP2FIT                  
 Basis size:   816
 Attributes:
 Sphericals:   T
 Basis set:  RI                      
 Basis size:   556
 Attributes:
 Sphericals:   T
 Basis set:  TDDFT                   
 Basis size:   816
 Attributes:
 Sphericals:   T

 Eigenvalues of metric

         1 0.568E-04 0.709E-04 0.104E-03 0.105E-03 0.336E-03 0.379E-03 0.666E-03 0.765E-03


 Contracted 2-electron integrals neglected if value below      1.0D-14

 OPERATOR DM      FOR CENTER  0  COORDINATES:    0.000000    0.000000    0.000000


 **********************************************************************************************************************************
 DATASETS  * FILE   NREC   LENGTH (MB)   RECORD NAMES
              1      18       32.04       500      610      700      900      950      970     1000      129      960     1100   
                                          VAR    BASINP    GEOM    SYMINP    ZMAT    AOBASIS   BASIS     P2S    ABASIS      S 
                                         1400     1410     1200     1210     1080     1600     1650     1700   
                                           T        V       H0       H01     AOSYM     SMH    MOLCAS    OPER   

              2       5        5.05       700     1000      520     2100      200   
                                         GEOM     BASIS   MCVARS     RHF    OPTIONS    

 PROGRAMS   *        TOTAL       INT   CCSD(T)    HF-SCF       INT
 CPU TIMES  *       500.42      0.23    470.93     14.71     14.32
 REAL TIME  *       513.85 SEC
 DISK USED  *       570.36 MB (local),        7.69 GB (total)
 SF USED    *       504.31 MB
 GA USED    *         0.00 MB       (max)       0.00 MB       (current)
 **********************************************************************************************************************************


 PROGRAM * RHF-SCF (CLOSED SHELL)       Authors: W. Meyer, H.-J. Werner


 NUMBER OF ELECTRONS:       5+    5-    SPACE SYMMETRY=1    SPIN SYMMETRY: Singlet 
 CONVERGENCE THRESHOLDS:    1.00E-08 (Density)    1.00E-11 (Energy)
 MAX. NUMBER OF ITERATIONS:       60
 INTERPOLATION TYPE:            DIIS
 INTERPOLATION STEPS:              2 (START)      1 (STEP)
 LEVEL SHIFTS:                  0.00 (CLOSED)  0.00 (OPEN) 



 Orbital guess generated from atomic densities. Full valence occupancy:    7

 Molecular orbital dump at record        2101.2

 Initial occupancy:   5

 ITERATION    DDIFF          GRAD             ENERGY        2-EL.EN.            DIPOLE MOMENTS         DIIS   ORB.
    1      0.000D+00      0.000D+00       -76.01699317     77.242762   -0.84897    0.23887    0.77546    0    start
    2      0.000D+00      0.641D-02       -76.04376357     73.563793   -0.49559    0.14017    0.43388    1    diag
    3      0.443D-02      0.414D-02       -76.05557578     75.199356   -0.58556    0.16548    0.51673    2    diag
    4      0.162D-02      0.381D-03       -76.05577624     75.109503   -0.58337    0.16502    0.51092    3    diag
    5      0.210D-03      0.109D-03       -76.05579878     75.124229   -0.58260    0.16487    0.50861    4    diag
    6      0.715D-04      0.220D-04       -76.05580028     75.123217   -0.58251    0.16487    0.50800    5    diag
    7      0.190D-04      0.444D-05       -76.05580035     75.123347   -0.58246    0.16486    0.50782    6    diag
    8      0.498D-05      0.783D-06       -76.05580035     75.123329   -0.58244    0.16486    0.50779    7    diag
    9      0.786D-06      0.105D-06       -76.05580035     75.123319   -0.58244    0.16485    0.50778    8    diag
   10      0.877D-07      0.285D-07       -76.05580035     75.123322   -0.58244    0.16485    0.50778    9    orth
   11      0.237D-07      0.705D-08       -76.05580035     75.123322   -0.58244    0.16485    0.50778    9    diag
   12      0.702D-08      0.135D-08       -76.05580035     75.123322   -0.58244    0.16485    0.50778    0    orth

 Final occupancy:   5

 !RHF STATE  1.1 Energy               -76.055800353205
 Nuclear energy                         8.90195171
 One-electron energy                 -122.51941283
 Two-electron energy                   37.56166077
 Virial quotient                       -1.00282295
 !RHF STATE  1.1 Dipole moment         -0.58243672     0.16485471     0.50778134
 Dipole moment /Debye                  -1.48030953     0.41899144     1.29056690

 Orbital energies:

         1.1          2.1          3.1          4.1          5.1          6.1          7.1
    -20.572579    -1.338136    -0.701000    -0.578482    -0.507849     0.023378     0.035027


 HOMO      5.1    -0.507849 =     -13.8193eV
 LUMO      6.1     0.023378 =       0.6361eV
 LUMO-HOMO         0.531227 =      14.4554eV


 **********************************************************************************************************************************
 DATASETS  * FILE   NREC   LENGTH (MB)   RECORD NAMES
              1      18       32.04       500      610      700      900      950      970     1000      129      960     1100   
                                          VAR    BASINP    GEOM    SYMINP    ZMAT    AOBASIS   BASIS     P2S    ABASIS      S 
                                         1400     1410     1200     1210     1080     1600     1650     1700   
                                           T        V       H0       H01     AOSYM     SMH    MOLCAS    OPER   

              2       6        9.09       700     1000      520     2100      200     2101   
                                         GEOM     BASIS   MCVARS     RHF    OPTIONS    RHF  

 PROGRAMS   *        TOTAL    HF-SCF       INT   CCSD(T)    HF-SCF       INT
 CPU TIMES  *       513.86     13.44      0.23    470.93     14.71     14.32
 REAL TIME  *       528.91 SEC
 DISK USED  *       570.36 MB (local),        7.69 GB (total)
 SF USED    *       504.31 MB
 GA USED    *         0.00 MB       (max)       0.00 MB       (current)
 **********************************************************************************************************************************

 Basis set:  JKFIT                   
 Basis size:   740
 Attributes:
 Sphericals:   T
 Basis set:  MP2FIT                  
 Basis size:   816
 Attributes:
 Sphericals:   T
 Basis set:  RI                      
 Basis size:   556
 Attributes:
 Sphericals:   T
 Basis set:  TDDFT                   
 Basis size:   816
 Attributes:
 Sphericals:   T

 PROGRAM * CCSD (Closed-shell coupled cluster)     Authors: C. Hampel, H.-J. Werner, 1991, M. Deegan, P.J. Knowles, 1992


 Convergence thresholds:  THRVAR = 1.00D-08  THRDEN = 1.00D-10

 CCSD(T)     terms to be evaluated (factor= 1.000)


 Number of core orbitals:           1 (   1 )
 Number of closed-shell orbitals:   4 (   4 )
 Number of external orbitals:     225 ( 225 )

 Molecular orbitals read from record     2101.2  Type=RHF/CANONICAL (state 1.1)

 Number of N-1 electron functions:               4
 Number of N-2 electron functions:              10
 Number of singly external CSFs:               900
 Number of doubly external CSFs:            405450
 Total number of CSFs:                      406351

 Length of J-op  integral file:               0.00 MB
 Length of K-op  integral file:               3.65 MB
 Length of 3-ext integral record:             0.00 MB

 Memory could be reduced to 75.63 Mwords without degradation in triples

 Integral transformation finished. Total CPU:  12.22 sec, npass=  1  Memory used:  32.52 MW

 Reference energy:                    -76.05580035

 MP2 singlet pair energy:              -0.17239897
 MP2 triplet pair energy:              -0.09857942
 MP2 correlation energy:               -0.27097839
 MP2 total energy:                    -76.32677874

 SCS-MP2 correlation energy:           -0.26821707   (PS=  1.200000  PT=  0.333333)
 SCS-MP2 total energy:                -76.32401742

 ITER.      SQ.NORM     CORR.ENERGY   TOTAL ENERGY   ENERGY CHANGE        DEN1      VAR(S)    VAR(P)  DIIS     TIME  TIME/IT
   1      1.06495645    -0.27500362   -76.33080398    -0.00402523     0.00188125  0.97D-03  0.11D-02  1  1    16.10     3.93
   2      1.06895281    -0.27532162   -76.33112198    -0.00031800    -0.00504382  0.13D-04  0.13D-03  2  2    19.98     4.00
   3      1.07050411    -0.27541391   -76.33121426    -0.00009228    -0.00098455  0.12D-04  0.63D-05  3  3    23.86     4.00
   4      1.07101475    -0.27540775   -76.33120811     0.00000615    -0.00023234  0.52D-06  0.75D-06  4  4    27.82     4.01
   5      1.07112647    -0.27540481   -76.33120516     0.00000294    -0.00003443  0.17D-06  0.48D-07  5  5    31.70     4.01
   6      1.07116563    -0.27540111   -76.33120146     0.00000370    -0.00000810  0.13D-07  0.32D-08  6  6    35.58     4.02
   7      1.07117256    -0.27540086   -76.33120121     0.00000025    -0.00000078  0.10D-08  0.56D-09  6  1    39.49     4.02
   8      1.07117376    -0.27540082   -76.33120117     0.00000004     0.00000033  0.16D-09  0.66D-10  6  2    43.40     4.03
   9      1.07117433    -0.27540077   -76.33120112     0.00000005     0.00000002  0.14D-10  0.73D-11  6  3    47.32     4.03
  10      1.07117443    -0.27540076   -76.33120111     0.00000001     0.00000001  0.29D-11  0.10D-11  6  4    51.22     4.03
  11      1.07117440    -0.27540077   -76.33120112    -0.00000001     0.00000003  0.55D-12  0.19D-12  6  6    55.07     4.03
  12      1.07117439    -0.27540077   -76.33120112    -0.00000000     0.00000001  0.80D-13  0.26D-13  6  5    58.97     4.03
  13      1.07117438    -0.27540077   -76.33120112    -0.00000000     0.00000000  0.10D-13  0.40D-14  6  1    62.81     4.04
  14      1.07117438    -0.27540077   -76.33120112    -0.00000000     0.00000000  0.12D-14  0.77D-15  6  2    66.67     4.04
  15      1.07117437    -0.27540077   -76.33120112    -0.00000000    -0.00000000  0.10D-15  0.84D-16  6  3    70.59     4.04
  16      1.07117437    -0.27540077   -76.33120112    -0.00000000    -0.00000000  0.14D-16  0.11D-16  6  4    74.48     4.04

 Norm of t1 vector:      0.04212216      S-energy:    -0.00000000      T1 diagnostic:  0.01053054
                                                                       D1 diagnostic:  0.02243745


 Total CPU time for triples:     33.95 sec


 RESULTS
 =======

  Reference energy                    -76.055800353205
  CCSD singlet pair energy             -0.188382619156
  CCSD triplet pair energy             -0.087018149629
  CCSD correlation energy              -0.275400768810

  Triples (T) contribution             -0.008958847243
  Total correlation energy             -0.284359616053

  CCSD total energy                   -76.331201122014
  CCSD[T] energy                      -76.340508044486
  CCSD-T energy                       -76.339972538884
 !CCSD(T) total energy                -76.340159969258

 Timing summary (sec):

 STEP                 CPU(USER)    SYS     CPU(TOT)    WALL
 Transformation         12.25      0.61     12.86     12.87
 CCSD iterations        62.24      2.39     64.63     64.70
 Triples                33.95      0.14     34.09     34.12

 Program statistics:

 Available memory in ccsd:              1999999921
 Min. memory needed in ccsd:               1865022
 Max. memory used in ccsd:                 2159652
 Max. memory used in cckext:               1451153 (16 integral passes)



 **********************************************************************************************************************************
 DATASETS  * FILE   NREC   LENGTH (MB)   RECORD NAMES
              1      19      222.33       500      610      700      900      950      970     1000      129      960     1100   
                                          VAR    BASINP    GEOM    SYMINP    ZMAT    AOBASIS   BASIS     P2S    ABASIS      S 
                                         1400     1410     1200     1210     1080     1600     1650     1700     1380   
                                           T        V       H0       H01     AOSYM     SMH    MOLCAS    OPER     JKOP   

              2       6        9.09       700     1000      520     2100      200     2101   
                                         GEOM     BASIS   MCVARS     RHF    OPTIONS    RHF  

 PROGRAMS   *        TOTAL   CCSD(T)    HF-SCF       INT   CCSD(T)    HF-SCF       INT
 CPU TIMES  *       622.53    108.65     13.44      0.23    470.93     14.71     14.32
 REAL TIME  *       641.29 SEC
 DISK USED  *       570.36 MB (local),        7.69 GB (total)
 SF USED    *       504.31 MB
 GA USED    *         0.00 MB       (max)       0.00 MB       (current)
 **********************************************************************************************************************************

 Running procedure: SET_MONOMER2

 Dummy atoms: O19  H37  H38


 Recomputing one-electron integrals since nuclear charges changed


 PROGRAM * SEWARD (Integral evaluation for generally contracted gaussian basis sets)     Author: Roland Lindh, 1990

 Geometry written to block  1 of record 700


 Point group  C1  



 ATOMIC COORDINATES

 NR  ATOM    CHARGE       X              Y              Z

   1  O19     0.00  -12.424571324    5.951692429   -0.288750152
   2  H37     0.00  -14.111151890    6.508027800   -0.711859831
   3  H38     0.00  -12.410587350    5.867599617    1.622329878
   4  C1      6.00   -6.193010455    2.801518980    2.403542658
   5  H41     1.00   -4.656285171    1.699997622    3.119937832
   6  H42     1.00   -5.973046335    4.726205038    2.982932688
   7  H43     1.00   -7.940251230    2.077186956    3.118237078
   8  H44     1.00   -6.176569838    2.685300823    0.384937212

 Bond lengths in Bohr (Angstrom)

 1-2  1.825673808  1-3  1.912980406  4-5  2.021904040  4-6  2.022002335  4-7  2.021953343
     ( 0.966104974)     ( 1.012305636)     ( 1.069945541)     ( 1.069997556)     ( 1.069971630)

 4-8  2.022015060
     ( 1.070004290)

 Bond angles

  2-1-3  104.57658282   5-4-6  109.53398059   5-4-7  109.65604535   5-4-8  108.43490854

  6-4-7  109.49436728   6-4-8  109.86987750   7-4-8  109.83468330

 NUCLEAR CHARGE:                   10
 NUMBER OF PRIMITIVE AOS:         296
 NUMBER OF SYMMETRY AOS:          266
 NUMBER OF CONTRACTIONS:          230   (  230A   )
 NUMBER OF CORE ORBITALS:           1   (    1A   )
 NUMBER OF VALENCE ORBITALS:        8   (    8A   )

 MOLECULE CHANGED: INITIALIZING OCCUPATION AND DUMP RECORDS


 NUCLEAR REPULSION ENERGY   13.68681606

 Basis set:  JKFIT                   
 Basis size:   740
 Attributes:
 Sphericals:   T
 Basis set:  MP2FIT                  
 Basis size:   816
 Attributes:
 Sphericals:   T
 Basis set:  RI                      
 Basis size:   556
 Attributes:
 Sphericals:   T
 Basis set:  TDDFT                   
 Basis size:   816
 Attributes:
 Sphericals:   T

 Eigenvalues of metric

         1 0.568E-04 0.709E-04 0.104E-03 0.105E-03 0.336E-03 0.379E-03 0.666E-03 0.765E-03


 Contracted 2-electron integrals neglected if value below      1.0D-14

 OPERATOR DM      FOR CENTER  0  COORDINATES:    0.000000    0.000000    0.000000


 **********************************************************************************************************************************
 DATASETS  * FILE   NREC   LENGTH (MB)   RECORD NAMES
              1      18       32.04       500      610      700      900      950      970     1000      129      960     1100   
                                          VAR    BASINP    GEOM    SYMINP    ZMAT    AOBASIS   BASIS     P2S    ABASIS      S 
                                         1400     1410     1200     1210     1080     1600     1650     1700   
                                           T        V       H0       H01     AOSYM     SMH    MOLCAS    OPER   

              2       6        9.09       700     1000      520     2100      200     2101   
                                         GEOM     BASIS   MCVARS     RHF    OPTIONS    RHF  

 PROGRAMS   *        TOTAL       INT   CCSD(T)    HF-SCF       INT   CCSD(T)    HF-SCF       INT
 CPU TIMES  *       622.75      0.21    108.65     13.44      0.23    470.93     14.71     14.32
 REAL TIME  *       642.00 SEC
 DISK USED  *       570.36 MB (local),        7.69 GB (total)
 SF USED    *       504.31 MB
 GA USED    *         0.00 MB       (max)       0.00 MB       (current)
 **********************************************************************************************************************************


 PROGRAM * RHF-SCF (CLOSED SHELL)       Authors: W. Meyer, H.-J. Werner


 NUMBER OF ELECTRONS:       5+    5-    SPACE SYMMETRY=1    SPIN SYMMETRY: Singlet 
 CONVERGENCE THRESHOLDS:    1.00E-08 (Density)    1.00E-11 (Energy)
 MAX. NUMBER OF ITERATIONS:       60
 INTERPOLATION TYPE:            DIIS
 INTERPOLATION STEPS:              2 (START)      1 (STEP)
 LEVEL SHIFTS:                  0.00 (CLOSED)  0.00 (OPEN) 



 Orbital guess generated from atomic densities. Full valence occupancy:    9

 Molecular orbital dump at record        2102.2

 Initial occupancy:   5

 ITERATION    DDIFF          GRAD             ENERGY        2-EL.EN.            DIPOLE MOMENTS         DIIS   ORB.
    1      0.000D+00      0.000D+00       -40.19358857     53.494048    0.00412   -0.00277   -0.00130    0    start
    2      0.000D+00      0.353D-02       -40.21070614     52.213683    0.00132   -0.00089   -0.00038    1    diag
    3      0.324D-02      0.137D-02       -40.21295466     52.664857    0.00185   -0.00125   -0.00055    2    diag
    4      0.919D-03      0.342D-03       -40.21327014     52.609829    0.00165   -0.00111   -0.00048    3    diag
    5      0.304D-03      0.444D-04       -40.21327554     52.612168    0.00162   -0.00110   -0.00047    4    diag
    6      0.743D-04      0.344D-05       -40.21327558     52.612266    0.00162   -0.00110   -0.00047    5    diag
    7      0.631D-05      0.264D-06       -40.21327558     52.612231    0.00162   -0.00109   -0.00047    6    diag
    8      0.962D-06      0.221D-07       -40.21327558     52.612232    0.00162   -0.00109   -0.00047    7    diag
    9      0.191D-06      0.285D-08       -40.21327558     52.612232    0.00162   -0.00109   -0.00047    8    diag
   10      0.119D-07      0.796D-09       -40.21327558     52.612232    0.00162   -0.00109   -0.00047    9    orth
   11      0.105D-08      0.106D-09       -40.21327558     52.612232    0.00162   -0.00109   -0.00047    0    orth

 Final occupancy:   5

 !RHF STATE  1.1 Energy               -40.213275576229
 Nuclear energy                        13.68681606
 One-electron energy                  -80.20620756
 Two-electron energy                   26.30611593
 Virial quotient                       -0.99870066
 !RHF STATE  1.1 Dipole moment          0.00161766    -0.00109452    -0.00046874
 Dipole moment /Debye                   0.00411140    -0.00278181    -0.00119135

 Orbital energies:

         1.1          2.1          3.1          4.1          5.1          6.1          7.1
    -11.197211    -0.950741    -0.551695    -0.549759    -0.547582     0.026367     0.038582


 HOMO      5.1    -0.547582 =     -14.9005eV
 LUMO      6.1     0.026367 =       0.7175eV
 LUMO-HOMO         0.573949 =      15.6179eV


 **********************************************************************************************************************************
 DATASETS  * FILE   NREC   LENGTH (MB)   RECORD NAMES
              1      18       32.04       500      610      700      900      950      970     1000      129      960     1100   
                                          VAR    BASINP    GEOM    SYMINP    ZMAT    AOBASIS   BASIS     P2S    ABASIS      S 
                                         1400     1410     1200     1210     1080     1600     1650     1700   
                                           T        V       H0       H01     AOSYM     SMH    MOLCAS    OPER   

              2       7       13.71       700     1000      520     2100      200     2101     2102   
                                         GEOM     BASIS   MCVARS     RHF    OPTIONS    RHF      RHF  

 PROGRAMS   *        TOTAL    HF-SCF       INT   CCSD(T)    HF-SCF       INT   CCSD(T)    HF-SCF       INT
 CPU TIMES  *       635.19     12.44      0.21    108.65     13.44      0.23    470.93     14.71     14.32
 REAL TIME  *       655.90 SEC
 DISK USED  *       570.36 MB (local),        7.69 GB (total)
 SF USED    *       504.31 MB
 GA USED    *         0.00 MB       (max)       0.00 MB       (current)
 **********************************************************************************************************************************

 Basis set:  JKFIT                   
 Basis size:   740
 Attributes:
 Sphericals:   T
 Basis set:  MP2FIT                  
 Basis size:   816
 Attributes:
 Sphericals:   T
 Basis set:  RI                      
 Basis size:   556
 Attributes:
 Sphericals:   T
 Basis set:  TDDFT                   
 Basis size:   816
 Attributes:
 Sphericals:   T

 PROGRAM * CCSD (Closed-shell coupled cluster)     Authors: C. Hampel, H.-J. Werner, 1991, M. Deegan, P.J. Knowles, 1992


 Convergence thresholds:  THRVAR = 1.00D-08  THRDEN = 1.00D-10

 CCSD(T)     terms to be evaluated (factor= 1.000)


 Number of core orbitals:           1 (   1 )
 Number of closed-shell orbitals:   4 (   4 )
 Number of external orbitals:     225 ( 225 )

 Molecular orbitals read from record     2102.2  Type=RHF/CANONICAL (state 1.1)

 Number of N-1 electron functions:               4
 Number of N-2 electron functions:              10
 Number of singly external CSFs:               900
 Number of doubly external CSFs:            405450
 Total number of CSFs:                      406351

 Length of J-op  integral file:               0.00 MB
 Length of K-op  integral file:               3.65 MB
 Length of 3-ext integral record:             0.00 MB

 Memory could be reduced to 75.63 Mwords without degradation in triples

 Integral transformation finished. Total CPU:  12.36 sec, npass=  1  Memory used:  32.52 MW

 Reference energy:                    -40.21327558

 MP2 singlet pair energy:              -0.14544374
 MP2 triplet pair energy:              -0.05506319
 MP2 correlation energy:               -0.20050694
 MP2 total energy:                    -40.41378251

 SCS-MP2 correlation energy:           -0.20879404   (PS=  1.200000  PT=  0.333333)
 SCS-MP2 total energy:                -40.42206961

 ITER.      SQ.NORM     CORR.ENERGY   TOTAL ENERGY   ENERGY CHANGE        DEN1      VAR(S)    VAR(P)  DIIS     TIME  TIME/IT
   1      1.07100966    -0.21905689   -40.43233247    -0.01854996    -0.01309653  0.46D-03  0.10D-02  1  1    16.25     4.02
   2      1.07650299    -0.22015801   -40.43343359    -0.00110112    -0.00567821  0.13D-04  0.71D-04  2  2    20.10     4.04
   3      1.07773128    -0.22021135   -40.43348692    -0.00005334    -0.00078797  0.16D-05  0.48D-05  3  3    24.01     4.05
   4      1.07803527    -0.22022035   -40.43349593    -0.00000900    -0.00012814  0.91D-07  0.22D-06  4  4    27.91     4.05
   5      1.07808146    -0.22021928   -40.43349486     0.00000107    -0.00001886  0.57D-08  0.16D-07  5  5    31.82     4.06
   6      1.07808629    -0.22021849   -40.43349406     0.00000079    -0.00000155  0.45D-09  0.11D-08  6  6    35.80     4.06
   7      1.07808699    -0.22021834   -40.43349392     0.00000015    -0.00000032  0.32D-10  0.89D-10  6  1    39.70     4.06
   8      1.07808702    -0.22021838   -40.43349395    -0.00000004     0.00000012  0.26D-11  0.49D-11  6  2    43.67     4.07
   9      1.07808703    -0.22021838   -40.43349395    -0.00000000     0.00000002  0.28D-12  0.45D-12  6  3    47.58     4.07
  10      1.07808703    -0.22021838   -40.43349395     0.00000000     0.00000001  0.26D-13  0.48D-13  6  4    51.51     4.07
  11      1.07808702    -0.22021838   -40.43349395     0.00000000     0.00000001  0.22D-14  0.48D-14  6  5    55.40     4.07
  12      1.07808702    -0.22021838   -40.43349395     0.00000000     0.00000000  0.48D-16  0.56D-15  6  6    59.27     4.07
  13      1.07808702    -0.22021838   -40.43349395    -0.00000000     0.00000000  0.73D-17  0.60D-16  6  1    63.18     4.07
  14      1.07808702    -0.22021838   -40.43349395    -0.00000000     0.00000000  0.14D-17  0.76D-17  6  2    67.09     4.07

 Norm of t1 vector:      0.02946846      S-energy:     0.00000000      T1 diagnostic:  0.00736711
                                                                       D1 diagnostic:  0.01186336

 Total CPU time for triples:     33.93 sec


 RESULTS
 =======

  Reference energy                    -40.213275576229
  CCSD singlet pair energy             -0.166725487971
  CCSD triplet pair energy             -0.053492888363
  CCSD correlation energy              -0.220218376310

  Triples (T) contribution             -0.006422164389
  Total correlation energy             -0.226640540699

  CCSD total energy                   -40.433493952539
  CCSD[T] energy                      -40.440098674156
  CCSD-T energy                       -40.439848205669
 !CCSD(T) total energy                -40.439916116928

 Timing summary (sec):

 STEP                 CPU(USER)    SYS     CPU(TOT)    WALL
 Transformation         12.41      0.44     12.85     12.87
 CCSD iterations        54.70      2.18     56.88     57.02
 Triples                33.93      0.16     34.09     34.11

 Program statistics:

 Available memory in ccsd:              1999999916
 Min. memory needed in ccsd:               1865022
 Max. memory used in ccsd:                 2159652
 Max. memory used in cckext:               1451153 (14 integral passes)



 **********************************************************************************************************************************
 DATASETS  * FILE   NREC   LENGTH (MB)   RECORD NAMES
              1      19      222.33       500      610      700      900      950      970     1000      129      960     1100   
                                          VAR    BASINP    GEOM    SYMINP    ZMAT    AOBASIS   BASIS     P2S    ABASIS      S 
                                         1400     1410     1200     1210     1080     1600     1650     1700     1380   
                                           T        V       H0       H01     AOSYM     SMH    MOLCAS    OPER     JKOP   

              2       7       13.71       700     1000      520     2100      200     2101     2102   
                                         GEOM     BASIS   MCVARS     RHF    OPTIONS    RHF      RHF  

 PROGRAMS   *        TOTAL   CCSD(T)    HF-SCF       INT   CCSD(T)    HF-SCF       INT   CCSD(T)    HF-SCF       INT
 CPU TIMES  *       736.46    101.27     12.44      0.21    108.65     13.44      0.23    470.93     14.71     14.32
 REAL TIME  *       760.59 SEC
 DISK USED  *       570.36 MB (local),        7.69 GB (total)
 SF USED    *       504.31 MB
 GA USED    *         0.00 MB       (max)       0.00 MB       (current)
 **********************************************************************************************************************************
 Molecular orbitals read from record     2102.2  Type=RHF/CANONICAL (state 1.1)
 Occupation numbers read from record     2102.2  Type=RHF/RHF (state 1.1)
 Orbital energies read from record       2102.2  Type=RHF/CANONICAL (state 1.1)
 Redundancy group numbers read from rec  2102.2  Type=RHF/RHF (state 1.1)

 CCSD(T)/aug-cc-pVTZ energy=    -40.439916116928

         CCSD(T)          HF-SCF         CCSD(T)          HF-SCF         CCSD(T)          HF-SCF
    -40.43991612    -40.21327558    -76.34015997    -76.05580035   -116.78049176   -116.26896977
 **********************************************************************************************************************************
 Molpro calculation terminated
