
 Primary working directories    : /scratch/klimes/383102/molpro.If0kJaL6vq
 Secondary working directories  : /scratch/klimes/383102/molpro.If0kJaL6vq
 Wavefunction directory         : /scratch/klimes/383102/
 Main file repository           : /scratch/klimes/383102/molpro.If0kJaL6vq/

 id        : karlovklimes

 Nodes                      nprocs
 nc-01.cc.karlov.mff.cuni.cz    4

 Using customized tuning parameters: mindgm=1; mindgv=20; mindgc=4; mindgr=1; noblas=0; minvec=7
 default implementation of scratch files=sf  


 Variables initialized (930), CPU time= 0.01 sec
                                                                                 !gdirect
 memory,2000,m
 gthresh,orbital=1d-10,energy=1d-10,grid=1d-8
 
 symmetry,nosym
 angstrom
 geometry={
 O20        -6.561800000000      3.004400000000      2.437800000000
 H39        -6.427800000000      2.081100000000      2.759600000000
 H40        -5.876000000000      3.542400000000      2.882400000000
 C1        -3.277200000000      1.482500000000      1.271900000000
 H41        -2.464000000000      0.899600000000      1.651000000000
 H42        -3.160800000000      2.501000000000      1.578500000000
 H43        -4.201800000000      1.099200000000      1.650100000000
 H44        -3.268500000000      1.421000000000      0.203700000000
 }
 
 nkerna=1
 nkernb=1
 
 gf=0
 sing=1
 thrdum=1d-4
 gridthr=1d-8
 
 basis={
 set,orbital
 default,avtz
 set,jkfit
 default,avqz/jkfit
 set,mp2fit
 default,avqz/mp2fit
 set,ri
 default,avqz/optri
 set,tddft
 default,avqz/mp2fit
 }
 
 proc set_monomer1
 dummy,4,5,6,7,8
 endproc
 
 proc set_monomer2
 dummy,1,2,3
 endproc
 
                                                                                 !1234 energy
 {hf,accu=1.d-16}
 ccsd(t)
 
 set_monomer1
 {hf,accu=1.d-16}
 ccsd(t)
 
 set_monomer2
 {hf,accu=1.d-16}
 ccsd(t)
 
 Commands  initialized (760), CPU time= 0.01 sec, 617 directives.
 Default parameters read. Elapsed time= 0.21 sec

 Checking input...
 Passed
1


                                         ***  PROGRAM SYSTEM MOLPRO  ***
                                       Copyright, TTI GmbH Stuttgart, 2015
                                    Version 2019.1 linked Jan 14 2019 13:09:19


 **********************************************************************************************************************************
 LABEL *                                                                                 
  64 bit mpp version                                                                     DATE: 11-Mar-20          TIME: 13:05:33  
 **********************************************************************************************************************************

 SHA1:             d688ac825633d238f2093ded1675ba87ccd55965
 **********************************************************************************************************************************

 THRESHOLDS:

 ZERO    =  1.00D-12  ONEINT  =  1.00D-12  TWOINT  =  1.00D-11  PREFAC  =  1.00D-14  XXXXXX  =  1.00D-09  EORDER  =  1.00D-04
 ENERGY  =  1.00D-10  ETEST   =  0.00D+00  EDENS   =  0.00D+00  THRDEDEF=  1.00D-06  GRADIENT=  1.00D-02  STEP    =  1.00D-03
 ORBITAL =  1.00D-10  CIVEC   =  1.00D-05  COEFF   =  1.00D-04  PRINTCI =  5.00D-02  PUNCHCI =  9.90D+01  OPTGRAD =  3.00D-04
 OPTENERG=  1.00D-06  OPTSTEP =  3.00D-04  THRGRAD =  1.00D-10  COMPRESS=  1.00D-11  VARMIN  =  1.00D-07  VARMAX  =  1.00D-03
 THRDOUB =  0.00D+00  THRDIV  =  1.00D-05  THRRED  =  1.00D-07  THRPSP  =  1.00D+00  THRDC   =  1.00D-10  THRCS   =  1.00D-10
 THRNRM  =  1.00D-08  THREQ   =  0.00D+00  THRDE   =  1.00D+00  THRREF  =  1.00D-05  SPARFAC =  1.00D+00  THRDLP  =  1.00D-07
 THRDIA  =  1.00D-10  THRDLS  =  1.00D-07  THRGPS  =  0.00D+00  THRKEX  =  0.00D+00  THRDIS  =  2.00D-01  THRVAR  =  1.00D-10
 THRLOC  =  1.00D-06  THRGAP  =  1.00D-06  THRLOCT = -1.00D+00  THRGAPT = -1.00D+00  THRORB  =  1.00D-06  THRMLTP =  0.00D+00
 THRCPQCI=  1.00D-10  KEXTA   =  0.00D+00  THRCOARS=  0.00D+00  SYMTOL  =  1.00D-06  GRADTOL =  1.00D-06  THROVL  =  1.00D-08
 THRORTH =  1.00D-08  GRID    =  1.00D-08  GRIDMAX =  1.00D-03  DTMAX   =  0.00D+00  THROCCDE=  1.00D-01  THROCCDE=  1.00D-01
 THRPRINT=  2.50D-01


 Variable memory set to 2000000000 words,  buffer space 

 ZSYMEL=NOSYM
 ZUNIT=ANG


Geometry recognized as XYZ

 SETTING NKERNA         =         1.00000000                                  
 SETTING NKERNB         =         1.00000000                                  
 SETTING GF             =     0.00000000D+00                                  
 SETTING SING           =         1.00000000                                  
 SETTING THRDUM         =     1.00000000D-04                                  
 SETTING GRIDTHR        =     1.00000000D-08                                  
 SETTING BASIS          =    AVTZ


 Recomputing integrals since basis changed


 Using spherical harmonics

 Library entry O      S aug-cc-pVTZ          selected for orbital group  1
 Library entry O      P aug-cc-pVTZ          selected for orbital group  1
 Library entry O      D aug-cc-pVTZ          selected for orbital group  1
 Library entry O      F aug-cc-pVTZ          selected for orbital group  1
 Library entry H      S aug-cc-pVTZ          selected for orbital group  2
 Library entry H      P aug-cc-pVTZ          selected for orbital group  2
 Library entry H      D aug-cc-pVTZ          selected for orbital group  2
 Library entry C      S aug-cc-pVTZ          selected for orbital group  3
 Library entry C      P aug-cc-pVTZ          selected for orbital group  3
 Library entry C      D aug-cc-pVTZ          selected for orbital group  3
 Library entry C      F aug-cc-pVTZ          selected for orbital group  3


 PROGRAM * SEWARD (Integral evaluation for generally contracted gaussian basis sets)     Author: Roland Lindh, 1990

 Geometry written to block  1 of record 700


 Point group  C1  



 ATOMIC COORDINATES

 NR  ATOM    CHARGE       X              Y              Z

   1  O20     8.00  -12.400004884    5.677493169    4.606774346
   2  H39     1.00  -12.146781583    3.932709038    5.214888213
   3  H40     1.00  -11.104030708    6.694165824    5.446946581
   4  C1      6.00   -6.193010455    2.801518980    2.403542658
   5  H41     1.00   -4.656285171    1.699997622    3.119937832
   6  H42     1.00   -5.973046335    4.726205038    2.982932688
   7  H43     1.00   -7.940251230    2.077186956    3.118237078
   8  H44     1.00   -6.176569838    2.685300823    0.384937212

 Bond lengths in Bohr (Angstrom)

 1-2  1.864992273  1-3  1.849070506  4-5  2.021904040  4-6  2.022002335  4-7  2.021953343
     ( 0.986911409)     ( 0.978485973)     ( 1.069945541)     ( 1.069997556)     ( 1.069971630)

 4-8  2.022015060
     ( 1.070004290)

 Bond angles

  2-1-3  105.72790617   5-4-6  109.53398059   5-4-7  109.65604535   5-4-8  108.43490854

  6-4-7  109.49436728   6-4-8  109.86987750   7-4-8  109.83468330

 NUCLEAR CHARGE:                   20
 NUMBER OF PRIMITIVE AOS:         296
 NUMBER OF SYMMETRY AOS:          266
 NUMBER OF CONTRACTIONS:          230   (  230A   )
 NUMBER OF CORE ORBITALS:           2   (    2A   )
 NUMBER OF VALENCE ORBITALS:       14   (   14A   )


 NUCLEAR REPULSION ENERGY   36.69183171


 Basis set:  JKFIT                   
 Basis size:   740
 Attributes:
 Sphericals:   T
 Basis set:  MP2FIT                  
 Basis size:   816
 Attributes:
 Sphericals:   T
 Basis set:  RI                      
 Basis size:   556
 Attributes:
 Sphericals:   T
 Basis set:  TDDFT                   
 Basis size:   816
 Attributes:
 Sphericals:   T

 **********************************************************************************************************************************


 Eigenvalues of metric

         1 0.657E-04 0.803E-04 0.967E-04 0.101E-03 0.342E-03 0.381E-03 0.656E-03 0.698E-03


 Contracted 2-electron integrals neglected if value below      1.0D-14
 AO integral compression algorithm  1   Integral accuracy      1.0D-14

     2280.391 MB (compressed) written to integral file ( 71.1%)

     Node minimum: 534.512 MB, node maximum: 596.902 MB


 NUMBER OF SORTED TWO-ELECTRON INTEGRALS:   88219044.     BUFFER LENGTH:  32768
 NUMBER OF SEGMENTS:   6  SEGMENT LENGTH:   15998348      RECORD LENGTH: 524288

 Memory used in sort:      16.56 MW

 SORT1 READ   400769927. AND WROTE    83144267. INTEGRALS IN    241 RECORDS. CPU TIME:     7.21 SEC, REAL TIME:     8.14 SEC
 SORT2 READ   332329507. AND WROTE   352862895. INTEGRALS IN   8868 RECORDS. CPU TIME:     1.76 SEC, REAL TIME:     2.33 SEC

 Node minimum:    88205762.  Node maximum:    88225686. integrals

 OPERATOR DM      FOR CENTER  0  COORDINATES:    0.000000    0.000000    0.000000


 **********************************************************************************************************************************
 DATASETS  * FILE   NREC   LENGTH (MB)   RECORD NAMES
              1      18       32.04       500      610      700      900      950      970     1000      129      960     1100   
                                          VAR    BASINP    GEOM    SYMINP    ZMAT    AOBASIS   BASIS     P2S    ABASIS      S 
                                         1400     1410     1200     1210     1080     1600     1650     1700   
                                           T        V       H0       H01     AOSYM     SMH    MOLCAS    OPER   

 PROGRAMS   *        TOTAL       INT
 CPU TIMES  *        13.79     13.60
 REAL TIME  *        18.24 SEC
 DISK USED  *        32.49 MB (local),        6.35 GB (total)
 GA USED    *         0.00 MB       (max)       0.00 MB       (current)
 **********************************************************************************************************************************


 PROGRAM * RHF-SCF (CLOSED SHELL)       Authors: W. Meyer, H.-J. Werner


 NUMBER OF ELECTRONS:      10+   10-    SPACE SYMMETRY=1    SPIN SYMMETRY: Singlet 
 CONVERGENCE THRESHOLDS:    1.00E-08 (Density)    1.00E-11 (Energy)
 MAX. NUMBER OF ITERATIONS:       60
 INTERPOLATION TYPE:            DIIS
 INTERPOLATION STEPS:              2 (START)      1 (STEP)
 LEVEL SHIFTS:                  0.00 (CLOSED)  0.00 (OPEN) 



 Orbital guess generated from atomic densities. Full valence occupancy:   16

 Molecular orbital dump at record        2100.2

 Initial occupancy:  10

 ITERATION    DDIFF          GRAD             ENERGY        2-EL.EN.            DIPOLE MOMENTS         DIIS   ORB.
    1      0.000D+00      0.000D+00      -116.21217435    158.771666    0.79888   -0.37774    0.74022    0    start
    2      0.000D+00      0.522D-02      -116.25609610    153.956346    0.47262   -0.21047    0.38406    1    diag
    3      0.551D-02      0.307D-02      -116.26955882    155.970588    0.55485   -0.25190    0.47597    2    diag
    4      0.183D-02      0.456D-03      -116.27021929    155.859734    0.54679   -0.24801    0.47009    3    diag
    5      0.399D-03      0.134D-03      -116.27028716    155.853919    0.54669   -0.24794    0.46957    4    diag
    6      0.146D-03      0.326D-04      -116.27029096    155.859862    0.54619   -0.24777    0.46903    5    diag
    7      0.419D-04      0.630D-05      -116.27029118    155.858285    0.54620   -0.24779    0.46905    6    diag
    8      0.117D-04      0.161D-05      -116.27029120    155.858438    0.54616   -0.24778    0.46900    7    diag
    9      0.240D-05      0.363D-06      -116.27029120    155.858411    0.54615   -0.24777    0.46898    8    diag
   10      0.780D-06      0.434D-07      -116.27029120    155.858413    0.54615   -0.24777    0.46898    9    orth
   11      0.574D-07      0.116D-07      -116.27029120    155.858414    0.54615   -0.24777    0.46898    9    diag
   12      0.246D-07      0.320D-08      -116.27029120    155.858413    0.54615   -0.24777    0.46898    9    diag
   13      0.490D-08      0.852D-09      -116.27029120    155.858414    0.54615   -0.24777    0.46898    0    orth

 Final occupancy:  10

 !RHF STATE  1.1 Energy              -116.270291200765
 Nuclear energy                        36.69183171
 One-electron energy                 -230.89132981
 Two-electron energy                   77.92920689
 Virial quotient                       -1.00121533
 !RHF STATE  1.1 Dipole moment          0.54614669    -0.24776695     0.46897995
 Dipole moment /Debye                   1.38807550    -0.62971952     1.19195007

 Orbital energies:

         1.1          2.1          3.1          4.1          5.1          6.1          7.1          8.1          9.1         10.1
    -20.570079   -11.201234    -1.339338    -0.954651    -0.705746    -0.577799    -0.555921    -0.554117    -0.551007    -0.506566

        11.1         12.1
      0.026462     0.042590


 HOMO     10.1    -0.506566 =     -13.7844eV
 LUMO     11.1     0.026462 =       0.7201eV
 LUMO-HOMO         0.533028 =      14.5044eV


 **********************************************************************************************************************************
 DATASETS  * FILE   NREC   LENGTH (MB)   RECORD NAMES
              1      18       32.04       500      610      700      900      950      970     1000      129      960     1100   
                                          VAR    BASINP    GEOM    SYMINP    ZMAT    AOBASIS   BASIS     P2S    ABASIS      S 
                                         1400     1410     1200     1210     1080     1600     1650     1700   
                                           T        V       H0       H01     AOSYM     SMH    MOLCAS    OPER   

              2       4        3.96       700     1000      520     2100   
                                         GEOM     BASIS   MCVARS     RHF  

 PROGRAMS   *        TOTAL    HF-SCF       INT
 CPU TIMES  *        29.05     15.26     13.60
 REAL TIME  *        34.83 SEC
 DISK USED  *        39.90 MB (local),        6.38 GB (total)
 SF USED    *         0.21 MB
 GA USED    *         0.00 MB       (max)       0.00 MB       (current)
 **********************************************************************************************************************************

 Basis set:  JKFIT                   
 Basis size:   740
 Attributes:
 Sphericals:   T
 Basis set:  MP2FIT                  
 Basis size:   816
 Attributes:
 Sphericals:   T
 Basis set:  RI                      
 Basis size:   556
 Attributes:
 Sphericals:   T
 Basis set:  TDDFT                   
 Basis size:   816
 Attributes:
 Sphericals:   T

 PROGRAM * CCSD (Closed-shell coupled cluster)     Authors: C. Hampel, H.-J. Werner, 1991, M. Deegan, P.J. Knowles, 1992


 Convergence thresholds:  THRVAR = 1.00D-08  THRDEN = 1.00D-10

 CCSD(T)     terms to be evaluated (factor= 1.000)


 Number of core orbitals:           2 (   2 )
 Number of closed-shell orbitals:   8 (   8 )
 Number of external orbitals:     220 ( 220 )

 Molecular orbitals read from record     2100.2  Type=RHF/CANONICAL (state 1.1)

 Number of N-1 electron functions:               8
 Number of N-2 electron functions:              36
 Number of singly external CSFs:              1760
 Number of doubly external CSFs:           1549680
 Total number of CSFs:                     1551441

 Length of J-op  integral file:               0.00 MB
 Length of K-op  integral file:               3.65 MB
 Length of 3-ext integral record:             0.00 MB

 Memory could be reduced to 116.39 Mwords without degradation in triples

 Integral transformation finished. Total CPU:  23.75 sec, npass=  1  Memory used:  59.35 MW

 Reference energy:                   -116.27029120

 MP2 singlet pair energy:              -0.31770709
 MP2 triplet pair energy:              -0.15400001
 MP2 correlation energy:               -0.47170710
 MP2 total energy:                   -116.74199830

 SCS-MP2 correlation energy:           -0.47707074   (PS=  1.200000  PT=  0.333333)
 SCS-MP2 total energy:               -116.74736194

 ITER.      SQ.NORM     CORR.ENERGY   TOTAL ENERGY   ENERGY CHANGE        DEN1      VAR(S)    VAR(P)  DIIS     TIME  TIME/IT
   1      1.13578807    -0.49434892  -116.76464012    -0.02264182    -0.01135057  0.14D-02  0.21D-02  1  1    38.84    15.00
   2      1.14491300    -0.49576905  -116.76606025    -0.00142014    -0.01041698  0.23D-04  0.25D-03  2  2    54.04    15.21
   3      1.14795667    -0.49590240  -116.76619361    -0.00013335    -0.00198801  0.15D-04  0.12D-04  3  3    69.16    15.23
   4      1.14877497    -0.49590336  -116.76619456    -0.00000096    -0.00036832  0.59D-06  0.12D-05  4  4    84.27    15.26
   5      1.14893590    -0.49590065  -116.76619185     0.00000271    -0.00005114  0.22D-06  0.80D-07  5  5    99.34    15.27
   6      1.14898469    -0.49589603  -116.76618723     0.00000462    -0.00001223  0.19D-07  0.58D-08  6  6   114.55    15.29
   7      1.14899335    -0.49589541  -116.76618661     0.00000062    -0.00000094  0.18D-08  0.11D-08  6  2   129.75    15.31
   8      1.14899542    -0.49589525  -116.76618645     0.00000015    -0.00000015  0.37D-09  0.12D-09  6  1   144.86    15.31
   9      1.14899623    -0.49589521  -116.76618641     0.00000004     0.00000015  0.30D-10  0.15D-10  6  3   160.03    15.32
  10      1.14899646    -0.49589519  -116.76618639     0.00000002    -0.00000001  0.37D-11  0.23D-11  6  4   175.19    15.33
  11      1.14899642    -0.49589520  -116.76618640    -0.00000001     0.00000006  0.71D-12  0.31D-12  6  6   190.30    15.34
  12      1.14899640    -0.49589520  -116.76618640    -0.00000000     0.00000002  0.12D-12  0.41D-13  6  5   205.43    15.34
  13      1.14899638    -0.49589520  -116.76618640    -0.00000000     0.00000001  0.21D-13  0.68D-14  6  2   220.67    15.35
  14      1.14899637    -0.49589520  -116.76618640    -0.00000000     0.00000000  0.28D-14  0.14D-14  6  1   235.82    15.34
  15      1.14899637    -0.49589520  -116.76618640    -0.00000000     0.00000000  0.22D-15  0.15D-15  6  3   251.03    15.35
  16      1.14899637    -0.49589520  -116.76618640    -0.00000000    -0.00000000  0.33D-16  0.21D-16  6  4   266.13    15.35
  17      1.14899637    -0.49589520  -116.76618640     0.00000000    -0.00000000  0.80D-17  0.33D-17  6  2   281.45    15.36

 Norm of t1 vector:      0.05160318      S-energy:    -0.00000000      T1 diagnostic:  0.00912224
                                                                       D1 diagnostic:  0.02255103


 Total CPU time for triples:    216.84 sec


 RESULTS
 =======

  Reference energy                   -116.270291200764
  CCSD singlet pair energy             -0.354816630139
  CCSD triplet pair energy             -0.141078573241
  CCSD correlation energy              -0.495895203398

  Triples (T) contribution             -0.015458379645
  Total correlation energy             -0.511353583043

  CCSD total energy                  -116.766186404162
  CCSD[T] energy                     -116.782174942059
  CCSD-T energy                      -116.781388956407
 !CCSD(T) total energy               -116.781644783807

 Timing summary (sec):

 STEP                 CPU(USER)    SYS     CPU(TOT)    WALL
 Transformation         23.94      0.79     24.73     24.76
 CCSD iterations       257.53      3.29    260.82    261.17
 Triples               216.84      0.85    217.69    218.00

 Program statistics:

 Available memory in ccsd:              1999999734
 Min. memory needed in ccsd:               4617529
 Max. memory used in ccsd:                 5944569
 Max. memory used in cckext:               4248553 (17 integral passes)



 **********************************************************************************************************************************
 DATASETS  * FILE   NREC   LENGTH (MB)   RECORD NAMES
              1      19      398.13       500      610      700      900      950      970     1000      129      960     1100   
                                          VAR    BASINP    GEOM    SYMINP    ZMAT    AOBASIS   BASIS     P2S    ABASIS      S 
                                         1400     1410     1200     1210     1080     1600     1650     1700     1380   
                                           T        V       H0       H01     AOSYM     SMH    MOLCAS    OPER     JKOP   

              2       4        3.96       700     1000      520     2100   
                                         GEOM     BASIS   MCVARS     RHF  

 PROGRAMS   *        TOTAL   CCSD(T)    HF-SCF       INT
 CPU TIMES  *       527.59    498.53     15.26     13.60
 REAL TIME  *       539.58 SEC
 DISK USED  *       570.36 MB (local),        8.00 GB (total)
 SF USED    *       504.31 MB
 GA USED    *         0.00 MB       (max)       0.00 MB       (current)
 **********************************************************************************************************************************

 Running procedure: SET_MONOMER1

 Dummy atoms: C1  H41  H42  H43  H44


 Recomputing one-electron integrals since nuclear charges changed


 PROGRAM * SEWARD (Integral evaluation for generally contracted gaussian basis sets)     Author: Roland Lindh, 1990

 Geometry written to block  1 of record 700


 Point group  C1  



 ATOMIC COORDINATES

 NR  ATOM    CHARGE       X              Y              Z

   1  O20     8.00  -12.400004884    5.677493169    4.606774346
   2  H39     1.00  -12.146781583    3.932709038    5.214888213
   3  H40     1.00  -11.104030708    6.694165824    5.446946581
   4  C1      0.00   -6.193010455    2.801518980    2.403542658
   5  H41     0.00   -4.656285171    1.699997622    3.119937832
   6  H42     0.00   -5.973046335    4.726205038    2.982932688
   7  H43     0.00   -7.940251230    2.077186956    3.118237078
   8  H44     0.00   -6.176569838    2.685300823    0.384937212

 Bond lengths in Bohr (Angstrom)

 1-2  1.864992273  1-3  1.849070506  4-5  2.021904040  4-6  2.022002335  4-7  2.021953343
     ( 0.986911409)     ( 0.978485973)     ( 1.069945541)     ( 1.069997556)     ( 1.069971630)

 4-8  2.022015060
     ( 1.070004290)

 Bond angles

  2-1-3  105.72790617   5-4-6  109.53398059   5-4-7  109.65604535   5-4-8  108.43490854

  6-4-7  109.49436728   6-4-8  109.86987750   7-4-8  109.83468330

 NUCLEAR CHARGE:                   10
 NUMBER OF PRIMITIVE AOS:         296
 NUMBER OF SYMMETRY AOS:          266
 NUMBER OF CONTRACTIONS:          230   (  230A   )
 NUMBER OF CORE ORBITALS:           1   (    1A   )
 NUMBER OF VALENCE ORBITALS:        6   (    6A   )

 MOLECULE CHANGED: INITIALIZING OCCUPATION AND DUMP RECORDS


 NUCLEAR REPULSION ENERGY    8.95379726

 Basis set:  JKFIT                   
 Basis size:   740
 Attributes:
 Sphericals:   T
 Basis set:  MP2FIT                  
 Basis size:   816
 Attributes:
 Sphericals:   T
 Basis set:  RI                      
 Basis size:   556
 Attributes:
 Sphericals:   T
 Basis set:  TDDFT                   
 Basis size:   816
 Attributes:
 Sphericals:   T

 Eigenvalues of metric

         1 0.657E-04 0.803E-04 0.967E-04 0.101E-03 0.342E-03 0.381E-03 0.656E-03 0.698E-03


 Contracted 2-electron integrals neglected if value below      1.0D-14

 OPERATOR DM      FOR CENTER  0  COORDINATES:    0.000000    0.000000    0.000000


 **********************************************************************************************************************************
 DATASETS  * FILE   NREC   LENGTH (MB)   RECORD NAMES
              1      18       32.04       500      610      700      900      950      970     1000      129      960     1100   
                                          VAR    BASINP    GEOM    SYMINP    ZMAT    AOBASIS   BASIS     P2S    ABASIS      S 
                                         1400     1410     1200     1210     1080     1600     1650     1700   
                                           T        V       H0       H01     AOSYM     SMH    MOLCAS    OPER   

              2       5        5.05       700     1000      520     2100      200   
                                         GEOM     BASIS   MCVARS     RHF    OPTIONS    

 PROGRAMS   *        TOTAL       INT   CCSD(T)    HF-SCF       INT
 CPU TIMES  *       527.82      0.23    498.53     15.26     13.60
 REAL TIME  *       540.40 SEC
 DISK USED  *       570.36 MB (local),        8.00 GB (total)
 SF USED    *       504.31 MB
 GA USED    *         0.00 MB       (max)       0.00 MB       (current)
 **********************************************************************************************************************************


 PROGRAM * RHF-SCF (CLOSED SHELL)       Authors: W. Meyer, H.-J. Werner


 NUMBER OF ELECTRONS:       5+    5-    SPACE SYMMETRY=1    SPIN SYMMETRY: Singlet 
 CONVERGENCE THRESHOLDS:    1.00E-08 (Density)    1.00E-11 (Energy)
 MAX. NUMBER OF ITERATIONS:       60
 INTERPOLATION TYPE:            DIIS
 INTERPOLATION STEPS:              2 (START)      1 (STEP)
 LEVEL SHIFTS:                  0.00 (CLOSED)  0.00 (OPEN) 



 Orbital guess generated from atomic densities. Full valence occupancy:    7

 Molecular orbital dump at record        2101.2

 Initial occupancy:   5

 ITERATION    DDIFF          GRAD             ENERGY        2-EL.EN.            DIPOLE MOMENTS         DIIS   ORB.
    1      0.000D+00      0.000D+00       -76.01944025     77.318368    0.79410   -0.37647    0.74338    0    start
    2      0.000D+00      0.639D-02       -76.04602040     73.672697    0.46127   -0.21593    0.43149    1    diag
    3      0.444D-02      0.410D-02       -76.05750630     75.287310    0.54393   -0.25518    0.50878    2    diag
    4      0.162D-02      0.377D-03       -76.05769974     75.197787    0.54076   -0.25311    0.50569    3    diag
    5      0.205D-03      0.106D-03       -76.05772036     75.212019    0.53955   -0.25231    0.50451    4    diag
    6      0.645D-04      0.208D-04       -76.05772166     75.211104    0.53932   -0.25212    0.50427    5    diag
    7      0.172D-04      0.413D-05       -76.05772173     75.211236    0.53923   -0.25206    0.50418    6    diag
    8      0.476D-05      0.760D-06       -76.05772173     75.211219    0.53920   -0.25204    0.50416    7    diag
    9      0.767D-06      0.989D-07       -76.05772173     75.211210    0.53920   -0.25204    0.50415    8    diag
   10      0.854D-07      0.247D-07       -76.05772173     75.211214    0.53920   -0.25204    0.50415    9    orth
   11      0.229D-07      0.444D-08       -76.05772173     75.211213    0.53920   -0.25204    0.50415    9    diag
   12      0.490D-08      0.699D-09       -76.05772173     75.211213    0.53920   -0.25204    0.50415    0    orth

 Final occupancy:   5

 !RHF STATE  1.1 Energy               -76.057721729057
 Nuclear energy                         8.95379726
 One-electron energy                 -122.61712555
 Two-electron energy                   37.60560656
 Virial quotient                       -1.00261009
 !RHF STATE  1.1 Dipole moment          0.53919626    -0.25203885     0.50415317
 Dipole moment /Debye                   1.37041042    -0.64057691     1.28134561

 Orbital energies:

         1.1          2.1          3.1          4.1          5.1          6.1          7.1
    -20.571020    -1.339999    -0.706310    -0.577688    -0.507940     0.019735     0.040212


 HOMO      5.1    -0.507940 =     -13.8218eV
 LUMO      6.1     0.019735 =       0.5370eV
 LUMO-HOMO         0.527675 =      14.3588eV


 **********************************************************************************************************************************
 DATASETS  * FILE   NREC   LENGTH (MB)   RECORD NAMES
              1      18       32.04       500      610      700      900      950      970     1000      129      960     1100   
                                          VAR    BASINP    GEOM    SYMINP    ZMAT    AOBASIS   BASIS     P2S    ABASIS      S 
                                         1400     1410     1200     1210     1080     1600     1650     1700   
                                           T        V       H0       H01     AOSYM     SMH    MOLCAS    OPER   

              2       6        9.09       700     1000      520     2100      200     2101   
                                         GEOM     BASIS   MCVARS     RHF    OPTIONS    RHF  

 PROGRAMS   *        TOTAL    HF-SCF       INT   CCSD(T)    HF-SCF       INT
 CPU TIMES  *       542.01     14.19      0.23    498.53     15.26     13.60
 REAL TIME  *       555.58 SEC
 DISK USED  *       570.36 MB (local),        8.00 GB (total)
 SF USED    *       504.31 MB
 GA USED    *         0.00 MB       (max)       0.00 MB       (current)
 **********************************************************************************************************************************

 Basis set:  JKFIT                   
 Basis size:   740
 Attributes:
 Sphericals:   T
 Basis set:  MP2FIT                  
 Basis size:   816
 Attributes:
 Sphericals:   T
 Basis set:  RI                      
 Basis size:   556
 Attributes:
 Sphericals:   T
 Basis set:  TDDFT                   
 Basis size:   816
 Attributes:
 Sphericals:   T

 PROGRAM * CCSD (Closed-shell coupled cluster)     Authors: C. Hampel, H.-J. Werner, 1991, M. Deegan, P.J. Knowles, 1992


 Convergence thresholds:  THRVAR = 1.00D-08  THRDEN = 1.00D-10

 CCSD(T)     terms to be evaluated (factor= 1.000)


 Number of core orbitals:           1 (   1 )
 Number of closed-shell orbitals:   4 (   4 )
 Number of external orbitals:     225 ( 225 )

 Molecular orbitals read from record     2101.2  Type=RHF/CANONICAL (state 1.1)

 Number of N-1 electron functions:               4
 Number of N-2 electron functions:              10
 Number of singly external CSFs:               900
 Number of doubly external CSFs:            405450
 Total number of CSFs:                      406351

 Length of J-op  integral file:               0.00 MB
 Length of K-op  integral file:               3.65 MB
 Length of 3-ext integral record:             0.00 MB

 Memory could be reduced to 75.63 Mwords without degradation in triples

 Integral transformation finished. Total CPU:  12.43 sec, npass=  1  Memory used:  32.52 MW

 Reference energy:                    -76.05772173

 MP2 singlet pair energy:              -0.17203703
 MP2 triplet pair energy:              -0.09838338
 MP2 correlation energy:               -0.27042041
 MP2 total energy:                    -76.32814214

 SCS-MP2 correlation energy:           -0.26766076   (PS=  1.200000  PT=  0.333333)
 SCS-MP2 total energy:                -76.32538249

 ITER.      SQ.NORM     CORR.ENERGY   TOTAL ENERGY   ENERGY CHANGE        DEN1      VAR(S)    VAR(P)  DIIS     TIME  TIME/IT
   1      1.06446930    -0.27451110   -76.33223282    -0.00409068     0.00172360  0.94D-03  0.10D-02  1  1    16.77     4.38
   2      1.06837960    -0.27482226   -76.33254399    -0.00031117    -0.00497661  0.12D-04  0.13D-03  2  2    21.23     4.46
   3      1.06986982    -0.27490939   -76.33263112    -0.00008713    -0.00095686  0.12D-04  0.61D-05  3  3    25.59     4.46
   4      1.07035608    -0.27490312   -76.33262485     0.00000627    -0.00022322  0.52D-06  0.75D-06  4  4    29.97     4.48
   5      1.07046530    -0.27490015   -76.33262187     0.00000297    -0.00003434  0.18D-06  0.50D-07  5  5    34.40     4.49
   6      1.07050299    -0.27489671   -76.33261844     0.00000344    -0.00000770  0.17D-07  0.41D-08  6  6    38.78     4.50
   7      1.07051064    -0.27489636   -76.33261809     0.00000035    -0.00000074  0.16D-08  0.87D-09  6  1    43.18     4.51
   8      1.07051258    -0.27489626   -76.33261799     0.00000010    -0.00000015  0.26D-09  0.10D-09  6  2    47.57     4.51
   9      1.07051316    -0.27489623   -76.33261795     0.00000004     0.00000021  0.21D-10  0.91D-11  6  3    51.92     4.51
  10      1.07051335    -0.27489621   -76.33261794     0.00000002    -0.00000002  0.31D-11  0.15D-11  6  4    56.39     4.51
  11      1.07051334    -0.27489621   -76.33261794    -0.00000001     0.00000002  0.68D-12  0.19D-12  6  5    60.78     4.52
  12      1.07051334    -0.27489621   -76.33261794     0.00000000     0.00000000  0.11D-12  0.36D-13  6  6    65.19     4.52
  13      1.07051333    -0.27489621   -76.33261794    -0.00000000     0.00000000  0.17D-13  0.66D-14  6  1    69.60     4.52
  14      1.07051333    -0.27489621   -76.33261794    -0.00000000     0.00000000  0.15D-14  0.79D-15  6  2    74.02     4.52
  15      1.07051333    -0.27489621   -76.33261794     0.00000000     0.00000000  0.38D-15  0.15D-15  6  1    78.44     4.52
  16      1.07051333    -0.27489621   -76.33261794    -0.00000000     0.00000000  0.39D-16  0.12D-16  6  3    82.83     4.52

 Norm of t1 vector:      0.04151134      S-energy:     0.00000000      T1 diagnostic:  0.01037783
                                                                       D1 diagnostic:  0.02206162


 Total CPU time for triples:     34.12 sec


 RESULTS
 =======

  Reference energy                    -76.057721729056
  CCSD singlet pair energy             -0.187919948084
  CCSD triplet pair energy             -0.086976265347
  CCSD correlation energy              -0.274896213400

  Triples (T) contribution             -0.008888707833
  Total correlation energy             -0.283784921232

  CCSD total energy                   -76.332617942456
  CCSD[T] energy                      -76.341847743927
  CCSD-T energy                       -76.341323030720
 !CCSD(T) total energy                -76.341506650288

 Timing summary (sec):

 STEP                 CPU(USER)    SYS     CPU(TOT)    WALL
 Transformation         12.49      0.41     12.90     12.92
 CCSD iterations        70.35      1.89     72.24     72.31
 Triples                34.12      0.12     34.24     34.30

 Program statistics:

 Available memory in ccsd:              1999999921
 Min. memory needed in ccsd:               1865022
 Max. memory used in ccsd:                 2159652
 Max. memory used in cckext:               1451153 (16 integral passes)



 **********************************************************************************************************************************
 DATASETS  * FILE   NREC   LENGTH (MB)   RECORD NAMES
              1      19      222.33       500      610      700      900      950      970     1000      129      960     1100   
                                          VAR    BASINP    GEOM    SYMINP    ZMAT    AOBASIS   BASIS     P2S    ABASIS      S 
                                         1400     1410     1200     1210     1080     1600     1650     1700     1380   
                                           T        V       H0       H01     AOSYM     SMH    MOLCAS    OPER     JKOP   

              2       6        9.09       700     1000      520     2100      200     2101   
                                         GEOM     BASIS   MCVARS     RHF    OPTIONS    RHF  

 PROGRAMS   *        TOTAL   CCSD(T)    HF-SCF       INT   CCSD(T)    HF-SCF       INT
 CPU TIMES  *       659.21    117.19     14.19      0.23    498.53     15.26     13.60
 REAL TIME  *       675.88 SEC
 DISK USED  *       570.36 MB (local),        8.00 GB (total)
 SF USED    *       504.31 MB
 GA USED    *         0.00 MB       (max)       0.00 MB       (current)
 **********************************************************************************************************************************

 Running procedure: SET_MONOMER2

 Dummy atoms: O20  H39  H40


 Recomputing one-electron integrals since nuclear charges changed


 PROGRAM * SEWARD (Integral evaluation for generally contracted gaussian basis sets)     Author: Roland Lindh, 1990

 Geometry written to block  1 of record 700


 Point group  C1  



 ATOMIC COORDINATES

 NR  ATOM    CHARGE       X              Y              Z

   1  O20     0.00  -12.400004884    5.677493169    4.606774346
   2  H39     0.00  -12.146781583    3.932709038    5.214888213
   3  H40     0.00  -11.104030708    6.694165824    5.446946581
   4  C1      6.00   -6.193010455    2.801518980    2.403542658
   5  H41     1.00   -4.656285171    1.699997622    3.119937832
   6  H42     1.00   -5.973046335    4.726205038    2.982932688
   7  H43     1.00   -7.940251230    2.077186956    3.118237078
   8  H44     1.00   -6.176569838    2.685300823    0.384937212

 Bond lengths in Bohr (Angstrom)

 1-2  1.864992273  1-3  1.849070506  4-5  2.021904040  4-6  2.022002335  4-7  2.021953343
     ( 0.986911409)     ( 0.978485973)     ( 1.069945541)     ( 1.069997556)     ( 1.069971630)

 4-8  2.022015060
     ( 1.070004290)

 Bond angles

  2-1-3  105.72790617   5-4-6  109.53398059   5-4-7  109.65604535   5-4-8  108.43490854

  6-4-7  109.49436728   6-4-8  109.86987750   7-4-8  109.83468330

 NUCLEAR CHARGE:                   10
 NUMBER OF PRIMITIVE AOS:         296
 NUMBER OF SYMMETRY AOS:          266
 NUMBER OF CONTRACTIONS:          230   (  230A   )
 NUMBER OF CORE ORBITALS:           1   (    1A   )
 NUMBER OF VALENCE ORBITALS:        8   (    8A   )

 MOLECULE CHANGED: INITIALIZING OCCUPATION AND DUMP RECORDS


 NUCLEAR REPULSION ENERGY   13.68681606

 Basis set:  JKFIT                   
 Basis size:   740
 Attributes:
 Sphericals:   T
 Basis set:  MP2FIT                  
 Basis size:   816
 Attributes:
 Sphericals:   T
 Basis set:  RI                      
 Basis size:   556
 Attributes:
 Sphericals:   T
 Basis set:  TDDFT                   
 Basis size:   816
 Attributes:
 Sphericals:   T

 Eigenvalues of metric

         1 0.657E-04 0.803E-04 0.967E-04 0.101E-03 0.342E-03 0.381E-03 0.656E-03 0.698E-03


 Contracted 2-electron integrals neglected if value below      1.0D-14

 OPERATOR DM      FOR CENTER  0  COORDINATES:    0.000000    0.000000    0.000000


 **********************************************************************************************************************************
 DATASETS  * FILE   NREC   LENGTH (MB)   RECORD NAMES
              1      18       32.04       500      610      700      900      950      970     1000      129      960     1100   
                                          VAR    BASINP    GEOM    SYMINP    ZMAT    AOBASIS   BASIS     P2S    ABASIS      S 
                                         1400     1410     1200     1210     1080     1600     1650     1700   
                                           T        V       H0       H01     AOSYM     SMH    MOLCAS    OPER   

              2       6        9.09       700     1000      520     2100      200     2101   
                                         GEOM     BASIS   MCVARS     RHF    OPTIONS    RHF  

 PROGRAMS   *        TOTAL       INT   CCSD(T)    HF-SCF       INT   CCSD(T)    HF-SCF       INT
 CPU TIMES  *       659.47      0.24    117.19     14.19      0.23    498.53     15.26     13.60
 REAL TIME  *       676.64 SEC
 DISK USED  *       570.36 MB (local),        8.00 GB (total)
 SF USED    *       504.31 MB
 GA USED    *         0.00 MB       (max)       0.00 MB       (current)
 **********************************************************************************************************************************


 PROGRAM * RHF-SCF (CLOSED SHELL)       Authors: W. Meyer, H.-J. Werner


 NUMBER OF ELECTRONS:       5+    5-    SPACE SYMMETRY=1    SPIN SYMMETRY: Singlet 
 CONVERGENCE THRESHOLDS:    1.00E-08 (Density)    1.00E-11 (Energy)
 MAX. NUMBER OF ITERATIONS:       60
 INTERPOLATION TYPE:            DIIS
 INTERPOLATION STEPS:              2 (START)      1 (STEP)
 LEVEL SHIFTS:                  0.00 (CLOSED)  0.00 (OPEN) 



 Orbital guess generated from atomic densities. Full valence occupancy:    9

 Molecular orbital dump at record        2102.2

 Initial occupancy:   5

 ITERATION    DDIFF          GRAD             ENERGY        2-EL.EN.            DIPOLE MOMENTS         DIIS   ORB.
    1      0.000D+00      0.000D+00       -40.19358733     53.494044    0.00411   -0.00277   -0.00132    0    start
    2      0.000D+00      0.353D-02       -40.21070467     52.213687    0.00129   -0.00089   -0.00040    1    diag
    3      0.323D-02      0.137D-02       -40.21295310     52.664858    0.00182   -0.00124   -0.00057    2    diag
    4      0.900D-03      0.342D-03       -40.21326854     52.609831    0.00162   -0.00111   -0.00050    3    diag
    5      0.297D-03      0.444D-04       -40.21327394     52.612170    0.00160   -0.00109   -0.00050    4    diag
    6      0.832D-04      0.345D-05       -40.21327398     52.612267    0.00160   -0.00109   -0.00050    5    diag
    7      0.684D-05      0.264D-06       -40.21327398     52.612233    0.00159   -0.00109   -0.00050    6    diag
    8      0.101D-05      0.222D-07       -40.21327398     52.612234    0.00159   -0.00109   -0.00050    7    diag
    9      0.188D-06      0.287D-08       -40.21327398     52.612234    0.00159   -0.00109   -0.00050    8    diag
   10      0.104D-07      0.804D-09       -40.21327398     52.612234    0.00159   -0.00109   -0.00049    9    orth
   11      0.119D-08      0.107D-09       -40.21327398     52.612234    0.00159   -0.00109   -0.00049    0    orth

 Final occupancy:   5

 !RHF STATE  1.1 Energy               -40.213273975886
 Nuclear energy                        13.68681606
 One-electron energy                  -80.20620680
 Two-electron energy                   26.30611677
 Virial quotient                       -0.99870197
 !RHF STATE  1.1 Dipole moment          0.00159431    -0.00108939    -0.00049500
 Dipole moment /Debye                   0.00405208    -0.00276876    -0.00125807

 Orbital energies:

         1.1          2.1          3.1          4.1          5.1          6.1          7.1
    -11.197209    -0.950741    -0.551695    -0.549760    -0.547581     0.027661     0.042262


 HOMO      5.1    -0.547581 =     -14.9004eV
 LUMO      6.1     0.027661 =       0.7527eV
 LUMO-HOMO         0.575242 =      15.6531eV


 **********************************************************************************************************************************
 DATASETS  * FILE   NREC   LENGTH (MB)   RECORD NAMES
              1      18       32.04       500      610      700      900      950      970     1000      129      960     1100   
                                          VAR    BASINP    GEOM    SYMINP    ZMAT    AOBASIS   BASIS     P2S    ABASIS      S 
                                         1400     1410     1200     1210     1080     1600     1650     1700   
                                           T        V       H0       H01     AOSYM     SMH    MOLCAS    OPER   

              2       7       13.71       700     1000      520     2100      200     2101     2102   
                                         GEOM     BASIS   MCVARS     RHF    OPTIONS    RHF      RHF  

 PROGRAMS   *        TOTAL    HF-SCF       INT   CCSD(T)    HF-SCF       INT   CCSD(T)    HF-SCF       INT
 CPU TIMES  *       672.44     12.97      0.24    117.19     14.19      0.23    498.53     15.26     13.60
 REAL TIME  *       690.62 SEC
 DISK USED  *       570.36 MB (local),        8.00 GB (total)
 SF USED    *       504.31 MB
 GA USED    *         0.00 MB       (max)       0.00 MB       (current)
 **********************************************************************************************************************************

 Basis set:  JKFIT                   
 Basis size:   740
 Attributes:
 Sphericals:   T
 Basis set:  MP2FIT                  
 Basis size:   816
 Attributes:
 Sphericals:   T
 Basis set:  RI                      
 Basis size:   556
 Attributes:
 Sphericals:   T
 Basis set:  TDDFT                   
 Basis size:   816
 Attributes:
 Sphericals:   T

 PROGRAM * CCSD (Closed-shell coupled cluster)     Authors: C. Hampel, H.-J. Werner, 1991, M. Deegan, P.J. Knowles, 1992


 Convergence thresholds:  THRVAR = 1.00D-08  THRDEN = 1.00D-10

 CCSD(T)     terms to be evaluated (factor= 1.000)


 Number of core orbitals:           1 (   1 )
 Number of closed-shell orbitals:   4 (   4 )
 Number of external orbitals:     225 ( 225 )

 Molecular orbitals read from record     2102.2  Type=RHF/CANONICAL (state 1.1)

 Number of N-1 electron functions:               4
 Number of N-2 electron functions:              10
 Number of singly external CSFs:               900
 Number of doubly external CSFs:            405450
 Total number of CSFs:                      406351

 Length of J-op  integral file:               0.00 MB
 Length of K-op  integral file:               3.65 MB
 Length of 3-ext integral record:             0.00 MB

 Memory could be reduced to 75.63 Mwords without degradation in triples

 Integral transformation finished. Total CPU:  12.49 sec, npass=  1  Memory used:  32.52 MW

 Reference energy:                    -40.21327398

 MP2 singlet pair energy:              -0.14546130
 MP2 triplet pair energy:              -0.05506577
 MP2 correlation energy:               -0.20052706
 MP2 total energy:                    -40.41380104

 SCS-MP2 correlation energy:           -0.20881670   (PS=  1.200000  PT=  0.333333)
 SCS-MP2 total energy:                -40.42209067

 ITER.      SQ.NORM     CORR.ENERGY   TOTAL ENERGY   ENERGY CHANGE        DEN1      VAR(S)    VAR(P)  DIIS     TIME  TIME/IT
   1      1.07101064    -0.21907288   -40.43234685    -0.01854581    -0.01309244  0.46D-03  0.10D-02  1  1    16.89     4.40
   2      1.07650384    -0.22017418   -40.43344816    -0.00110130    -0.00567784  0.13D-04  0.71D-04  2  2    21.36     4.47
   3      1.07773238    -0.22022746   -40.43350143    -0.00005328    -0.00078833  0.16D-05  0.48D-05  3  3    25.74     4.49
   4      1.07803646    -0.22023646   -40.43351044    -0.00000901    -0.00012819  0.92D-07  0.22D-06  4  4    30.18     4.50
   5      1.07808266    -0.22023540   -40.43350937     0.00000107    -0.00001887  0.57D-08  0.16D-07  5  5    34.49     4.51
   6      1.07808757    -0.22023461   -40.43350858     0.00000079    -0.00000159  0.47D-09  0.11D-08  6  6    38.88     4.51
   7      1.07808828    -0.22023445   -40.43350843     0.00000015    -0.00000033  0.33D-10  0.94D-10  6  1    43.23     4.51
   8      1.07808832    -0.22023449   -40.43350846    -0.00000003     0.00000011  0.28D-11  0.56D-11  6  2    47.68     4.52
   9      1.07808833    -0.22023449   -40.43350846    -0.00000000     0.00000002  0.32D-12  0.49D-12  6  3    52.12     4.52
  10      1.07808833    -0.22023449   -40.43350846     0.00000000     0.00000001  0.27D-13  0.50D-13  6  4    56.52     4.52
  11      1.07808832    -0.22023449   -40.43350846     0.00000000     0.00000001  0.22D-14  0.50D-14  6  5    60.98     4.52
  12      1.07808831    -0.22023449   -40.43350846     0.00000000     0.00000000  0.52D-16  0.58D-15  6  6    65.41     4.53

 Norm of t1 vector:      0.02947118      S-energy:     0.00000000      T1 diagnostic:  0.00736779
                                                                       D1 diagnostic:  0.01186415

 Total CPU time for triples:     34.13 sec


 RESULTS
 =======

  Reference energy                    -40.213273975886
  CCSD singlet pair energy             -0.166739331846
  CCSD triplet pair energy             -0.053495155524
  CCSD correlation energy              -0.220234487310

  Triples (T) contribution             -0.006423601816
  Total correlation energy             -0.226658089126

  CCSD total energy                   -40.433508463196
  CCSD[T] energy                      -40.440114605259
  CCSD-T energy                       -40.439864171533
 !CCSD(T) total energy                -40.439932065012

 Timing summary (sec):

 STEP                 CPU(USER)    SYS     CPU(TOT)    WALL
 Transformation         12.55      0.43     12.98     12.99
 CCSD iterations        52.86      1.41     54.27     54.34
 Triples                34.13      0.12     34.25     34.29

 Program statistics:

 Available memory in ccsd:              1999999916
 Min. memory needed in ccsd:               1865022
 Max. memory used in ccsd:                 2159652
 Max. memory used in cckext:               1451153 (12 integral passes)



 **********************************************************************************************************************************
 DATASETS  * FILE   NREC   LENGTH (MB)   RECORD NAMES
              1      19      222.33       500      610      700      900      950      970     1000      129      960     1100   
                                          VAR    BASINP    GEOM    SYMINP    ZMAT    AOBASIS   BASIS     P2S    ABASIS      S 
                                         1400     1410     1200     1210     1080     1600     1650     1700     1380   
                                           T        V       H0       H01     AOSYM     SMH    MOLCAS    OPER     JKOP   

              2       7       13.71       700     1000      520     2100      200     2101     2102   
                                         GEOM     BASIS   MCVARS     RHF    OPTIONS    RHF      RHF  

 PROGRAMS   *        TOTAL   CCSD(T)    HF-SCF       INT   CCSD(T)    HF-SCF       INT   CCSD(T)    HF-SCF       INT
 CPU TIMES  *       772.19     99.75     12.97      0.24    117.19     14.19      0.23    498.53     15.26     13.60
 REAL TIME  *       793.00 SEC
 DISK USED  *       570.36 MB (local),        8.00 GB (total)
 SF USED    *       504.31 MB
 GA USED    *         0.00 MB       (max)       0.00 MB       (current)
 **********************************************************************************************************************************
 Molecular orbitals read from record     2102.2  Type=RHF/CANONICAL (state 1.1)
 Occupation numbers read from record     2102.2  Type=RHF/RHF (state 1.1)
 Orbital energies read from record       2102.2  Type=RHF/CANONICAL (state 1.1)
 Redundancy group numbers read from rec  2102.2  Type=RHF/RHF (state 1.1)

 CCSD(T)/aug-cc-pVTZ energy=    -40.439932065012

         CCSD(T)          HF-SCF         CCSD(T)          HF-SCF         CCSD(T)          HF-SCF
    -40.43993207    -40.21327398    -76.34150665    -76.05772173   -116.78164478   -116.27029120
 **********************************************************************************************************************************
 Molpro calculation terminated
