
 Primary working directories    : /scratch.ssd/kelum/job_380580.cerit-pbs.cerit-sc.cz/molpro.iKslCn6plh
 Secondary working directories  : /scratch.ssd/kelum/job_380580.cerit-pbs.cerit-sc.cz/molpro.iKslCn6plh
 Wavefunction directory         : /scratch.ssd/kelum/job_380580.cerit-pbs.cerit-sc.cz/
 Main file repository           : /scratch.ssd/kelum/job_380580.cerit-pbs.cerit-sc.cz/molpro.iKslCn6plh/

 id        : karlovklimes

 Nodes            nprocs
 elan4.cerit-sc.cz    4

 Using customized tuning parameters: mindgm=1; mindgv=20; mindgc=4; mindgr=1; noblas=0; minvec=7
 default implementation of scratch files=sf  


 Variables initialized (934), CPU time= 0.00 sec
                                                                                 !gdirect
 memory,4000,m
 gthresh,orbital=1d-10,energy=1d-10
 
 symmetry,nosym
 angstrom
 geometry={
 O1         0.000000000000      0.000000000000      0.000000000000
 H1         0.000000000000      0.000000000000      0.974900000000
 H2         0.000000000000      0.942300000000     -0.261200000000
 C1        -3.277200000000      1.482500000000      1.271900000000
 H41        -2.464000000000      0.899600000000      1.651000000000
 H42        -3.160800000000      2.501000000000      1.578500000000
 H43        -4.201800000000      1.099200000000      1.650100000000
 H44        -3.268500000000      1.421000000000      0.203700000000
 }
 
 nkerna=1
 nkernb=1
 
 gf=0
 sing=1
 thrdum=1d-4
 gridthr=1d-8
 
 basis={
 set,orbital
 default,av5z
 set,jkfit
 default,av5z/jkfit
 set,mp2fit
 default,av5z/mp2fit
 set,ri
 default,av5z/optri
 set,tddft
 default,av5z/mp2fit
 }
 
 proc set_monomer1
 dummy,4,5,6,7,8
 endproc
 
 proc set_monomer2
 dummy,1,2,3
 endproc
 
                                                                                 !12 energy
 {hf,accu=1.d-16}
 {ccsd(t)-f12,df_basis=mp2fit,df_basis_exch=jkfit,ri_basis=ri,scale_trip=1,THRAOF12=1d-10}
 
 set_monomer1
 {hf,accu=1.d-16}
 {ccsd(t)-f12,df_basis=mp2fit,df_basis_exch=jkfit,ri_basis=ri,scale_trip=1,THRAOF12=1d-10}
 
 set_monomer2
 {hf,accu=1.d-16}
 {ccsd(t)-f12,df_basis=mp2fit,df_basis_exch=jkfit,ri_basis=ri,scale_trip=1,THRAOF12=1d-10}
 
 Commands  initialized (763), CPU time= 0.01 sec, 617 directives.
 Default parameters read. Elapsed time= 0.36 sec

 Checking input...
 Passed
1


                                         ***  PROGRAM SYSTEM MOLPRO  ***
                                       Copyright, TTI GmbH Stuttgart, 2015
                                    Version 2019.2 linked Jun  8 2019 11:26:33


 **********************************************************************************************************************************
 LABEL *                                                                                 
  64 bit mpp version                                                                     DATE: 24-Mar-20          TIME: 09:16:55  
 **********************************************************************************************************************************

 SHA1:             8135a10abc80eafa5b3ae28ffc55be4890dc4c84
 **********************************************************************************************************************************

 THRESHOLDS:

 ZERO    =  1.00D-12  ONEINT  =  1.00D-12  TWOINT  =  1.00D-11  PREFAC  =  1.00D-14  XXXXXX  =  1.00D-09  EORDER  =  1.00D-04
 ENERGY  =  1.00D-10  ETEST   =  0.00D+00  EDENS   =  0.00D+00  THRDEDEF=  1.00D-06  GRADIENT=  1.00D-02  STEP    =  1.00D-03
 ORBITAL =  1.00D-10  CIVEC   =  1.00D-05  COEFF   =  1.00D-04  PRINTCI =  5.00D-02  PUNCHCI =  9.90D+01  OPTGRAD =  3.00D-04
 OPTENERG=  1.00D-06  OPTSTEP =  3.00D-04  THRGRAD =  1.00D-10  COMPRESS=  1.00D-11  VARMIN  =  1.00D-07  VARMAX  =  1.00D-03
 THRDOUB =  0.00D+00  THRDIV  =  1.00D-05  THRRED  =  1.00D-07  THRPSP  =  1.00D+00  THRDC   =  1.00D-10  THRCS   =  1.00D-10
 THRNRM  =  1.00D-08  THREQ   =  0.00D+00  THRDE   =  1.00D+00  THRREF  =  1.00D-05  SPARFAC =  1.00D+00  THRDLP  =  1.00D-07
 THRDIA  =  1.00D-10  THRDLS  =  1.00D-07  THRGPS  =  0.00D+00  THRKEX  =  0.00D+00  THRDIS  =  2.00D-01  THRVAR  =  1.00D-10
 THRLOC  =  1.00D-06  THRGAP  =  1.00D-06  THRLOCT = -1.00D+00  THRGAPT = -1.00D+00  THRORB  =  1.00D-06  THRMLTP =  0.00D+00
 THRCPQCI=  1.00D-10  KEXTA   =  0.00D+00  THRCOARS=  0.00D+00  SYMTOL  =  1.00D-06  GRADTOL =  1.00D-06  THROVL  =  1.00D-08
 THRORTH =  1.00D-08  GRID    =  1.00D-06  GRIDMAX =  1.00D-03  DTMAX   =  0.00D+00  THROCCDE=  1.00D-01  THROCCDE=  1.00D-01
 THRPRINT=  2.50D-01


 Variable memory set to 4000000000 words,  buffer space 

 ZSYMEL=NOSYM
 ZUNIT=ANG


Geometry recognized as XYZ

 SETTING NKERNA         =         1.00000000                                  
 SETTING NKERNB         =         1.00000000                                  
 SETTING GF             =     0.00000000D+00                                  
 SETTING SING           =         1.00000000                                  
 SETTING THRDUM         =     1.00000000D-04                                  
 SETTING GRIDTHR        =     1.00000000D-08                                  
 SETTING BASIS          =    AV5Z


 Recomputing integrals since basis changed


 Using spherical harmonics

 Library entry O      S aug-cc-pV5Z          selected for orbital group  1
 Library entry O      P aug-cc-pV5Z          selected for orbital group  1
 Library entry O      D aug-cc-pV5Z          selected for orbital group  1
 Library entry O      F aug-cc-pV5Z          selected for orbital group  1
 Library entry O      G aug-cc-pV5Z          selected for orbital group  1
 Library entry O      H aug-cc-pV5Z          selected for orbital group  1
 Library entry H      S aug-cc-pV5Z          selected for orbital group  2
 Library entry H      P aug-cc-pV5Z          selected for orbital group  2
 Library entry H      D aug-cc-pV5Z          selected for orbital group  2
 Library entry H      F aug-cc-pV5Z          selected for orbital group  2
 Library entry H      G aug-cc-pV5Z          selected for orbital group  2
 Library entry C      S aug-cc-pV5Z          selected for orbital group  3
 Library entry C      P aug-cc-pV5Z          selected for orbital group  3
 Library entry C      D aug-cc-pV5Z          selected for orbital group  3
 Library entry C      F aug-cc-pV5Z          selected for orbital group  3
 Library entry C      G aug-cc-pV5Z          selected for orbital group  3
 Library entry C      H aug-cc-pV5Z          selected for orbital group  3


 PROGRAM * SEWARD (Integral evaluation for generally contracted gaussian basis sets)     Author: Roland Lindh, 1990

 Geometry written to block  1 of record 700


 Point group  C1  



 ATOMIC COORDINATES

 NR  ATOM    CHARGE       X              Y              Z

   1  O1      8.00    0.000000000    0.000000000    0.000000000
   2  H1      1.00    0.000000000    0.000000000    1.842293999
   3  H2      1.00    0.000000000    1.780688927   -0.493596464
   4  C1      6.00   -6.193010455    2.801518980    2.403542658
   5  H41     1.00   -4.656285171    1.699997622    3.119937832
   6  H42     1.00   -5.973046335    4.726205038    2.982932688
   7  H43     1.00   -7.940251230    2.077186956    3.118237078
   8  H44     1.00   -6.176569838    2.685300823    0.384937212

 Bond lengths in Bohr (Angstrom)

 1-2  1.842293999  1-3  1.847834009  4-5  2.021904040  4-6  2.022002335  4-7  2.021953343
     ( 0.974900000)     ( 0.977831647)     ( 1.069945541)     ( 1.069997556)     ( 1.069971630)

 4-8  2.022015060
     ( 1.070004290)

 Bond angles

  2-1-3  105.49305961   5-4-6  109.53398059   5-4-7  109.65604535   5-4-8  108.43490854

  6-4-7  109.49436728   6-4-8  109.86987750   7-4-8  109.83468330

 NUCLEAR CHARGE:                   20
 NUMBER OF PRIMITIVE AOS:        1046
 NUMBER OF SYMMETRY AOS:          786
 NUMBER OF CONTRACTIONS:          734   (  734A   )
 NUMBER OF CORE ORBITALS:           2   (    2A   )
 NUMBER OF VALENCE ORBITALS:       14   (   14A   )


 NUCLEAR REPULSION ENERGY   36.71209306


 Basis set:  JKFIT                   
 Basis size:  1104
 Attributes:
 Sphericals:   T
 Basis set:  MP2FIT                  
 Basis size:  1246
 Attributes:
 Sphericals:   T
 Basis set:  RI                      
 Basis size:   730
 Attributes:
 Sphericals:   T
 Basis set:  TDDFT                   
 Basis size:  1246
 Attributes:
 Sphericals:   T

 **********************************************************************************************************************************


 Eigenvalues of metric

         1 0.184E-05 0.252E-05 0.354E-05 0.360E-05 0.530E-05 0.695E-05 0.832E-05 0.903E-05


 Contracted 2-electron integrals neglected if value below      1.0D-14
 AO integral compression algorithm  1   Integral accuracy      1.0D-14

     152195.564 MB (compressed) written to integral file ( 48.2%)

     Node minimum: 36173.775 MB, node maximum: 40043.545 MB


 NUMBER OF SORTED TWO-ELECTRON INTEGRALS: 9095363064.     BUFFER LENGTH:  32768
 NUMBER OF SEGMENTS: 190  SEGMENT LENGTH:   47999780      RECORD LENGTH: 131072

 Memory used in sort:      48.16 MW

 SORT1 READ 39471791889. AND WROTE  7022837377. INTEGRALS IN  80469 RECORDS. CPU TIME:   931.69 SEC, REAL TIME:  1071.35 SEC
 SORT2 READ 28097729288. AND WROTE 36381317385. INTEGRALS IN 556332 RECORDS. CPU TIME:   139.06 SEC, REAL TIME:   758.95 SEC

 Node minimum:  9095228192.  Node maximum:  9095430501. integrals

 OPERATOR DM      FOR CENTER  0  COORDINATES:    0.000000    0.000000    0.000000


 **********************************************************************************************************************************
 DATASETS  * FILE   NREC   LENGTH (MB)   RECORD NAMES
              1      18       49.80       500      610      700      900      950      970     1000      129      960     1100   
                                          VAR    BASINP    GEOM    SYMINP    ZMAT    AOBASIS   BASIS     P2S    ABASIS      S 
                                         1400     1410     1200     1210     1080     1600     1650     1700   
                                           T        V       H0       H01     AOSYM     SMH    MOLCAS    OPER   

 PROGRAMS   *        TOTAL       INT
 CPU TIMES  *      1742.68   1742.43
 REAL TIME  *      2543.86 SEC
 DISK USED  *        50.44 MB (local),      489.20 GB (total)
 GA USED    *         0.00 MB       (max)       0.00 MB       (current)
 **********************************************************************************************************************************


 PROGRAM * RHF-SCF (CLOSED SHELL)       Authors: W. Meyer, H.-J. Werner


 NUMBER OF ELECTRONS:      10+   10-    SPACE SYMMETRY=1    SPIN SYMMETRY: Singlet 
 CONVERGENCE THRESHOLDS:    1.00E-08 (Density)    1.00E-11 (Energy)
 MAX. NUMBER OF ITERATIONS:       60
 INTERPOLATION TYPE:            DIIS
 INTERPOLATION STEPS:              2 (START)      1 (STEP)
 LEVEL SHIFTS:                  0.00 (CLOSED)  0.00 (OPEN) 



 Orbital guess generated from atomic densities. Full valence occupancy:   16

 Molecular orbital dump at record        2100.2

 Initial occupancy:  10

 ITERATION    DDIFF          GRAD             ENERGY        2-EL.EN.            DIPOLE MOMENTS         DIIS   ORB.
    1      0.000D+00      0.000D+00      -116.22292492    158.838994    0.00398    0.91033    0.68736    0    start
    2      0.000D+00      0.291D-02      -116.26711077    154.011028   -0.03241    0.51247    0.37904    1    diag
    3      0.162D-02      0.170D-02      -116.28060862    156.031908   -0.02161    0.61392    0.45753    2    diag
    4      0.554D-03      0.254D-03      -116.28126989    155.919917   -0.02044    0.60512    0.45146    3    diag
    5      0.126D-03      0.744D-04      -116.28133884    155.914757   -0.02095    0.60469    0.45138    4    diag
    6      0.519D-04      0.181D-04      -116.28134270    155.920432   -0.02105    0.60398    0.45101    5    diag
    7      0.189D-04      0.363D-05      -116.28134293    155.918719   -0.02107    0.60398    0.45106    6    diag
    8      0.561D-05      0.922D-06      -116.28134295    155.918897   -0.02109    0.60392    0.45103    7    diag
    9      0.130D-05      0.218D-06      -116.28134295    155.918871   -0.02110    0.60390    0.45102    8    diag
   10      0.299D-06      0.265D-07      -116.28134295    155.918872   -0.02110    0.60390    0.45102    9    orth
   11      0.600D-07      0.637D-08      -116.28134295    155.918873   -0.02110    0.60390    0.45102    9    diag
   12      0.485D-08      0.176D-08      -116.28134295    155.918873   -0.02110    0.60390    0.45102    0    orth

 Final occupancy:  10

 !RHF STATE  1.1 Energy              -116.281342947240
 Nuclear energy                        36.71209306
 One-electron energy                 -230.95287258
 Two-electron energy                   77.95943657
 Virial quotient                       -1.00059093
 !RHF STATE  1.1 Dipole moment         -0.02109850     0.60390239     0.45101635
 Dipole moment /Debye                  -0.05362353     1.53486623     1.14629413

 Orbital energies:

         1.1          2.1          3.1          4.1          5.1          6.1          7.1          8.1          9.1         10.1
    -20.566193   -11.199171    -1.341900    -0.953861    -0.708885    -0.579568    -0.555403    -0.553353    -0.551192    -0.507473

        11.1         12.1
      0.020029     0.032912


 HOMO     10.1    -0.507473 =     -13.8090eV
 LUMO     11.1     0.020029 =       0.5450eV
 LUMO-HOMO         0.527502 =      14.3541eV


 **********************************************************************************************************************************
 DATASETS  * FILE   NREC   LENGTH (MB)   RECORD NAMES
              1      18       49.80       500      610      700      900      950      970     1000      129      960     1100   
                                          VAR    BASINP    GEOM    SYMINP    ZMAT    AOBASIS   BASIS     P2S    ABASIS      S 
                                         1400     1410     1200     1210     1080     1600     1650     1700   
                                           T        V       H0       H01     AOSYM     SMH    MOLCAS    OPER   

              2       4       13.79       700     1000      520     2100   
                                         GEOM     BASIS   MCVARS     RHF  

 PROGRAMS   *        TOTAL    HF-SCF       INT
 CPU TIMES  *      3472.68   1730.00   1742.43
 REAL TIME  *      4468.12 SEC
 DISK USED  *       102.61 MB (local),      489.41 GB (total)
 SF USED    *         2.16 MB
 GA USED    *         0.00 MB       (max)       0.00 MB       (current)
 **********************************************************************************************************************************

 Basis set:  JKFIT                   
 Basis size:  1104
 Attributes:
 Sphericals:   T
 Basis set:  MP2FIT                  
 Basis size:  1246
 Attributes:
 Sphericals:   T
 Basis set:  RI                      
 Basis size:   730
 Attributes:
 Sphericals:   T
 Basis set:  TDDFT                   
 Basis size:  1246
 Attributes:
 Sphericals:   T

 PROGRAM * CCSD (Closed-shell coupled cluster)     Authors: C. Hampel, H.-J. Werner, 1991, M. Deegan, P.J. Knowles, 1992

                                  CCSD-F12 implementation by  H.-J. Werner, 2007

                   Density fitting integral evaluation by F.R. Manby, 2003,2007, G. Knizia, 2010



 Convergence thresholds:  THRVAR = 1.00D-08  THRDEN = 1.00D-10

 CCSD(T)     terms to be evaluated (factor= 1.000)


 Number of core orbitals:           2 (   2 )
 Number of closed-shell orbitals:   8 (   8 )
 Number of external orbitals:     724 ( 724 )

 Molecular orbitals read from record     2100.2  Type=RHF/CANONICAL (state 1.1)

 MP2-F12 correlation treatment (H.-J. Werner, 2006)
 ==================================================

 Using MP2-F12 with ansatz 3C(FIX)

 Using projected zeroth-order Hamiltonian (+Z)

 FOCKRIB=T FOCKRIC=T FOCKRIP=T CABSP=T CABSA=T CABSK=T CABSF=T GBC=F EBC=F DMAT=T NOFIK=T NOPAO=1 SOLVE=-1  USEPAO=0
 EXCH_A= T EXCH_B= F EXCH_C= F EXCH_P= F

 Geminal basis:    OPTFULL  GEM_TYPE=SLATER  BETA=1.0  NGEM=6

 Optimizing Gaussian exponents for each gem_beta

 Geminal optimization for beta= 1.0000
 Weight function:   m=0, omega= 1.4646

 Augmented Hessian optimization of geminal fit. Trust ratio= 0.40000
 Convergence reached after   2 iterations. Final gradient= 8.53D-16, Step= 4.26D-06, Delta= 1.28D-09

 Alpha:                 0.19532     0.81920     2.85917     9.50073    35.69989   197.79328
 Coeff:                 0.27070     0.30552     0.18297     0.10986     0.06810     0.04224


 All pairs explicitly correlated. Number of r12-pairs:           36

 Excluding core orbitals from MO domains

 AO(A)-basis ORBITAL           loaded. Number of functions:     734
 RI(R)-basis RI                loaded. Number of functions:     730
 DF-basis JKFIT                loaded. Number of functions:    1104

 Screening thresholds:   THRAO=  1.00D-10  THRMO=  1.00D-09  THRPROD=  1.00D-09
                         THRSW=  1.00D-05  THROV=  1.00D-12  THRAOF12= 1.00D-10

 CPU time for Fock operators                      9.94 sec

 Construction of ABS:
 Smallest eigenvalue of S          2.27E-04  (threshold= 1.00E-08)
 Ratio eigmin/eigmax               3.94E-05  (threshold= 1.00E-09)
 Smallest eigenvalue of S kept     2.27E-04  (threshold= 2.27E-04, 0 functions deleted, 730 kept)

 Construction of CABS:
 Smallest eigenvalue of S          9.71E-09  (threshold= 1.00E-08)
 Ratio eigmin/eigmax               9.71E-09  (threshold= 1.00E-09)
 Smallest eigenvalue of S kept     8.20E-08  (threshold= 8.20E-08, 1 functions deleted, 729 kept)

 CPU time for CABS singles                        1.16 sec

 CABS-singles contribution of  -0.00007952 patched into reference energy.
 New reference energy        -116.28142247

 AO(A)-basis ORBITAL           loaded. Number of functions:     734
 RI(R)-basis RI                loaded. Number of functions:     730
 DF-basis MP2FIT               loaded. Number of functions:    1246

 Screening thresholds:   THRAO=  1.00D-10  THRMO=  1.00D-09  THRPROD=  1.00D-09
                         THRSW=  1.00D-05  THROV=  1.00D-12  THRAOF12= 1.00D-10

 CPU time for 3-index integral evaluation        28.21 sec
 CPU time for first  half transformation          3.52 sec ( 8380.2 MFLOP/sec)
 CPU time for second half transformation          0.08 sec ( 2927.2 MFLOP/sec)
 CPU time for sorting                             0.31 sec
 CPU time for fitting                             0.36 sec (25771.8 MFLOP/sec)
 CPU time for tilde quantities                    0.54 sec (25507.3 MFLOP/sec)
 CPU time for assembly                            4.52 sec (28178.5 MFLOP/sec)
 CPU time for tranop_f12                          6.00 sec (27801.7 MFLOP/sec)
 CPU time for f12 integrals (total)              51.40 sec, Elapsed time:     55.61 sec
 F12-matrices built in  4 passes.
 F12-matrices built in  4 passes.
 F12-matrices built in  4 passes.
 F12-matrices built in  4 passes.
 FC-matrix built in  4 passes.
 CPU time for f12 matrices (total)                4.49 sec, Elapsed time:      4.66 sec

 Diagonal F12 approximation with fixed coefficients:  TSING= 0.500,  TTRIP= 0.250 (scaled by -1/beta)

 DF-MP2-F12 energy corrections:
 ==============================
 Approx.                                    Singlet             Triplet             Total
 DF-MP2-F12/3*C(DX,FIX)                -0.011195866809     -0.000787095663     -0.011982962472
 DF-MP2-F12/3*C(FIX)                   -0.010386681497     -0.000516376246     -0.010903057743
 DF-MP2-F12/3C(FIX)                    -0.010498186269     -0.000532020813     -0.011030207082

 DF-MP2-F12 correlation energies:
 ================================
 Approx.                                    Singlet             Triplet             Ecorr            Total Energy
 DF-MP2                                -0.350164027553     -0.159630101853     -0.509794129406   -116.791216594653
 DF-MP2-F12/3*C(DX,FIX)                -0.361359894362     -0.160417197516     -0.521777091878   -116.803199557125
 DF-MP2-F12/3*C(FIX)                   -0.360550709050     -0.160146478099     -0.520697187149   -116.802119652397
 DF-MP2-F12/3C(FIX)                    -0.360662213822     -0.160162122665     -0.520824336488   -116.802246801735

 SCS-DF-MP2 energies (F_SING= 1.20000  F_TRIP= 0.62222  F_PARALLEL= 0.33333):
 ============================================================================
 SCS-DF-MP2                            -0.519522229772   -116.800944695020
 SCS-DF-MP2-F12/3*C(DX,FIX)            -0.533447018355   -116.814869483603
 SCS-DF-MP2-F12/3*C(FIX)               -0.532307548344   -116.813730013591
 SCS-DF-MP2-F12/3C(FIX)                -0.532451088467   -116.813873553715
 Symmetry transformation completed.

 Number of N-1 electron functions:               8
 Number of N-2 electron functions:              36
 Number of singly external CSFs:              5792
 Number of doubly external CSFs:          16776528
 Total number of CSFs:                    16782321

 Pair and operator lists are different

 Length of J-op  integral file:               1.47 GB
 Length of K-op  integral file:               2.18 GB
 Length of 3-ext integral record:             0.00 MB

 For full I/O caching in triples, increase memory by 34.16 Mwords to 4034.21 Mwords.

 Integral transformation finished. Total CPU:1090.31 sec, npass=  1  Memory used:1826.21 MW

 Reference energy:                   -116.28142247

 Adding F12 terms to K(Cij), methodcc=6,  factor= 1.0

 ITER.      SQ.NORM     CORR.ENERGY   TOTAL ENERGY   ENERGY CHANGE        DEN1      VAR(S)    VAR(P)  DIIS     TIME  TIME/IT
   1      1.13418502    -0.52182462  -116.80324709    -0.01201769    -0.00011396  0.14D-02  0.20D-02  1  1  1453.60   306.27
   2      1.14242468    -0.52287588  -116.80429834    -0.00105126    -0.01019760  0.33D-04  0.25D-03  2  2  1748.94   309.23
   3      1.14565217    -0.52303958  -116.80446205    -0.00016370    -0.00234112  0.11D-04  0.14D-04  3  3  2043.59   310.54
   4      1.14660794    -0.52304420  -116.80446667    -0.00000462    -0.00052893  0.67D-06  0.13D-05  4  4  2336.02   310.55
   5      1.14677631    -0.52304599  -116.80446846    -0.00000179    -0.00004229  0.20D-06  0.93D-07  5  5  2628.26   310.37
   6      1.14682204    -0.52304328  -116.80446574     0.00000272    -0.00000805  0.22D-07  0.82D-08  6  6  2912.42   309.15
   7      1.14683273    -0.52304207  -116.80446453     0.00000121    -0.00000266  0.23D-08  0.11D-08  6  2  3198.96   308.49
   8      1.14683552    -0.52304181  -116.80446428     0.00000025    -0.00000044  0.36D-09  0.11D-09  6  1  3477.12   306.81
   9      1.14683638    -0.52304178  -116.80446425     0.00000003    -0.00000000  0.35D-10  0.18D-10  6  3  3775.25   307.50
  10      1.14683656    -0.52304178  -116.80446425     0.00000000     0.00000007  0.37D-11  0.24D-11  6  4  4061.29   306.94
  11      1.14683653    -0.52304179  -116.80446425    -0.00000001     0.00000008  0.60D-12  0.31D-12  6  5  4340.07   305.78
  12      1.14683651    -0.52304179  -116.80446425    -0.00000000     0.00000002  0.11D-12  0.42D-13  6  6  4612.18   304.21
  13      1.14683649    -0.52304179  -116.80446426    -0.00000000     0.00000001  0.23D-13  0.61D-14  6  2  4899.77   304.35
  14      1.14683649    -0.52304179  -116.80446426    -0.00000000     0.00000000  0.41D-14  0.14D-14  6  1  5187.69   304.48
  15      1.14683649    -0.52304179  -116.80446426    -0.00000000    -0.00000000  0.61D-15  0.25D-15  6  3  5475.38   304.58
  16      1.14683649    -0.52304179  -116.80446426    -0.00000000    -0.00000000  0.12D-15  0.40D-16  6  4  5763.46   304.74
  17      1.14683649    -0.52304179  -116.80446426     0.00000000    -0.00000000  0.37D-16  0.91D-17  6  5  6050.18   304.78

 Norm of t1 vector:      0.04968928      S-energy:    -0.00000000      T1 diagnostic:  0.00878391
                                                                       D1 diagnostic:  0.01925895

 Adding energy correction from Wij-K(Fij), methodcc=6  factor= 1.0

  CCSD correlation energy              -0.523041791044
  MP2-F12 correction (uncoupled)       -0.010851260640
  C*T doubles correction               -0.000160416270
  f12b correction                       0.002683425388

   CPU time for triples:   2190.90 sec for i =  1 -  6 /  8 (~  44.6 % done)
   CPU time for triples:   2194.91 sec for i =  7 -  8 /  8 (  100.0 % done)

 Total CPU time for triples:   4436.75 sec

  Ecorr(MP2)                           -0.509806927588
  Ecorr(MP2-F12)                       -0.520837134670
  Scale factor for triples energy       1.021636047854


 RESULTS
 =======

  Reference energy                   -116.281342947238
  F12 singles correction               -0.000079518009

 F12 singles corrections added to reference energy

  New reference energy               -116.281422465248

  F12a singlet correction              -0.010439334643
  F12a triplet correction              -0.000572342267
  F12a total correction                -0.011011676910

 F12a corrections for ansatz F12/3C(FIX) added to CCSD energy

  CCSD-F12a singlet pair energy        -0.387483815564
  CCSD-F12a triplet pair energy        -0.146569652057
  CCSD-F12a correlation energy         -0.534053467954

  Triples (T) contribution (scaled)    -0.017289102748
  Total correlation energy             -0.551342570702

  CCSD-F12a total energy             -116.815475933201
  CCSD[T]-F12a energy                -116.833321322739
  CCSD-T-F12a energy                 -116.832555768594
 !CCSD(T)-F12a total energy          -116.832765035949

 F12b corrections for ansatz F12/3C(FIX) added to CCSD(T)-F12a energy

  CCSD-F12b singlet pair energy        -0.384893180784
  CCSD-F12b triplet pair energy        -0.146476861450
  CCSD-F12b correlation energy         -0.531370042566

  Triples (T) contribution (scaled)    -0.017289102748
  Total correlation energy             -0.548659145314

  CCSD-F12b total energy             -116.812792507813
  CCSD[T]-F12b energy                -116.830637897352
  CCSD-T-F12b energy                 -116.829872343206
 !CCSD(T)-F12b total energy          -116.830081610562

 Timing summary (sec):

 STEP                 CPU(USER)    SYS     CPU(TOT)    WALL
 Transformation       1091.95     51.82   1143.77   1145.26
 CCSD iterations      4887.38    288.34   5175.72   5181.83
 Triples              4436.75     29.42   4466.17   4492.77
 MP2-F12                71.08      5.12     76.20     76.73
 F12b energy           263.62     14.46    278.08    279.73

 Program statistics:

 Available memory in ccsd:              3999999554
 Min. memory needed in ccsd:              48689265
 Max. memory used in ccsd:                63255345
 Max. memory used in cckext:              42753482 (18 integral passes)



 **********************************************************************************************************************************
 DATASETS  * FILE   NREC   LENGTH (MB)   RECORD NAMES
              1      19    12452.16       500      610      700      900      950      970     1000      129      960     1100   
                                          VAR    BASINP    GEOM    SYMINP    ZMAT    AOBASIS   BASIS     P2S    ABASIS      S 
                                         1400     1410     1200     1210     1080     1600     1650     1700     1380   
                                           T        V       H0       H01     AOSYM     SMH    MOLCAS    OPER     JKOP   

              2       6       24.60       700     1000      520     2100     7360     7350   
                                         GEOM     BASIS   MCVARS     RHF    F12ABS    EF12   

 PROGRAMS   *        TOTAL   CCSD(T)    HF-SCF       INT
 CPU TIMES  *     14223.63  10750.93   1730.00   1742.43
 REAL TIME  *     15646.89 SEC
 DISK USED  *        14.29 GB (local),      540.72 GB (total)
 SF USED    *        17.68 GB
 GA USED    *         4.87 MB       (max)       0.00 MB       (current)
 **********************************************************************************************************************************

 Running procedure: SET_MONOMER1

 Dummy atoms: C1  H41  H42  H43  H44


 Recomputing one-electron integrals since nuclear charges changed


 PROGRAM * SEWARD (Integral evaluation for generally contracted gaussian basis sets)     Author: Roland Lindh, 1990

 Geometry written to block  1 of record 700


 Point group  C1  



 ATOMIC COORDINATES

 NR  ATOM    CHARGE       X              Y              Z

   1  O1      8.00    0.000000000    0.000000000    0.000000000
   2  H1      1.00    0.000000000    0.000000000    1.842293999
   3  H2      1.00    0.000000000    1.780688927   -0.493596464
   4  C1      0.00   -6.193010455    2.801518980    2.403542658
   5  H41     0.00   -4.656285171    1.699997622    3.119937832
   6  H42     0.00   -5.973046335    4.726205038    2.982932688
   7  H43     0.00   -7.940251230    2.077186956    3.118237078
   8  H44     0.00   -6.176569838    2.685300823    0.384937212

 Bond lengths in Bohr (Angstrom)

 1-2  1.842293999  1-3  1.847834009  4-5  2.021904040  4-6  2.022002335  4-7  2.021953343
     ( 0.974900000)     ( 0.977831647)     ( 1.069945541)     ( 1.069997556)     ( 1.069971630)

 4-8  2.022015060
     ( 1.070004290)

 Bond angles

  2-1-3  105.49305961   5-4-6  109.53398059   5-4-7  109.65604535   5-4-8  108.43490854

  6-4-7  109.49436728   6-4-8  109.86987750   7-4-8  109.83468330

 NUCLEAR CHARGE:                   10
 NUMBER OF PRIMITIVE AOS:        1046
 NUMBER OF SYMMETRY AOS:          786
 NUMBER OF CONTRACTIONS:          734   (  734A   )
 NUMBER OF CORE ORBITALS:           1   (    1A   )
 NUMBER OF VALENCE ORBITALS:        6   (    6A   )

 MOLECULE CHANGED: INITIALIZING OCCUPATION AND DUMP RECORDS


 NUCLEAR REPULSION ENERGY    9.01226390

 Basis set:  JKFIT                   
 Basis size:  1104
 Attributes:
 Sphericals:   T
 Basis set:  MP2FIT                  
 Basis size:  1246
 Attributes:
 Sphericals:   T
 Basis set:  RI                      
 Basis size:   730
 Attributes:
 Sphericals:   T
 Basis set:  TDDFT                   
 Basis size:  1246
 Attributes:
 Sphericals:   T

 Eigenvalues of metric

         1 0.184E-05 0.252E-05 0.354E-05 0.360E-05 0.530E-05 0.695E-05 0.832E-05 0.903E-05


 Contracted 2-electron integrals neglected if value below      1.0D-14

 OPERATOR DM      FOR CENTER  0  COORDINATES:    0.000000    0.000000    0.000000


 **********************************************************************************************************************************
 DATASETS  * FILE   NREC   LENGTH (MB)   RECORD NAMES
              1      18       49.80       500      610      700      900      950      970     1000      129      960     1100   
                                          VAR    BASINP    GEOM    SYMINP    ZMAT    AOBASIS   BASIS     P2S    ABASIS      S 
                                         1400     1410     1200     1210     1080     1600     1650     1700   
                                           T        V       H0       H01     AOSYM     SMH    MOLCAS    OPER   

              2       7       24.63       700     1000      520     2100     7360     7350      200   
                                         GEOM     BASIS   MCVARS     RHF    F12ABS    EF12    OPTIONS    

 PROGRAMS   *        TOTAL       INT   CCSD(T)    HF-SCF       INT
 CPU TIMES  *     14224.25      0.62  10750.93   1730.00   1742.43
 REAL TIME  *     15649.47 SEC
 DISK USED  *        14.29 GB (local),      540.72 GB (total)
 SF USED    *        17.68 GB
 GA USED    *         4.87 MB       (max)       0.00 MB       (current)
 **********************************************************************************************************************************


 PROGRAM * RHF-SCF (CLOSED SHELL)       Authors: W. Meyer, H.-J. Werner


 NUMBER OF ELECTRONS:       5+    5-    SPACE SYMMETRY=1    SPIN SYMMETRY: Singlet 
 CONVERGENCE THRESHOLDS:    1.00E-08 (Density)    1.00E-11 (Energy)
 MAX. NUMBER OF ITERATIONS:       60
 INTERPOLATION TYPE:            DIIS
 INTERPOLATION STEPS:              2 (START)      1 (STEP)
 LEVEL SHIFTS:                  0.00 (CLOSED)  0.00 (OPEN) 



 Orbital guess generated from atomic densities. Full valence occupancy:    7

 Molecular orbital dump at record        2101.2

 Initial occupancy:   5

 ITERATION    DDIFF          GRAD             ENERGY        2-EL.EN.            DIPOLE MOMENTS         DIIS   ORB.
    1      0.000D+00      0.000D+00       -76.02672722     77.438342    0.00001    0.91372    0.69082    0    start
    2      0.000D+00      0.360D-02       -76.05352140     73.785664    0.00000    0.53108    0.40268    1    diag
    3      0.130D-02      0.229D-02       -76.06505834     75.407061    0.00000    0.62634    0.47466    2    diag
    4      0.493D-03      0.215D-03       -76.06525224     75.315632    0.00000    0.62245    0.47194    3    diag
    5      0.629D-04      0.599D-04       -76.06527298     75.330086    0.00000    0.62102    0.47094    4    diag
    6      0.202D-04      0.119D-04       -76.06527433     75.329028    0.00000    0.62069    0.47072    5    diag
    7      0.534D-05      0.243D-05       -76.06527440     75.329173    0.00000    0.62058    0.47065    6    diag
    8      0.149D-05      0.464D-06       -76.06527440     75.329162    0.00000    0.62054    0.47063    7    diag
    9      0.304D-06      0.633D-07       -76.06527440     75.329152    0.00000    0.62054    0.47062    8    diag
   10      0.346D-07      0.139D-07       -76.06527440     75.329155    0.00000    0.62054    0.47062    9    orth
   11      0.812D-08      0.241D-08       -76.06527440     75.329154    0.00000    0.62054    0.47062    0    orth

 Final occupancy:   5

 !RHF STATE  1.1 Energy               -76.065274401474
 Nuclear energy                         9.01226390
 One-electron energy                 -122.74211552
 Two-electron energy                   37.66457722
 Virial quotient                       -1.00185449
 !RHF STATE  1.1 Dipole moment          0.00000107     0.62054013     0.47062206
 Dipole moment /Debye                   0.00000271     1.57715238     1.19612361

 Orbital energies:

         1.1          2.1          3.1          4.1          5.1          6.1          7.1
    -20.566878    -1.342287    -0.709228    -0.579409    -0.508679     0.015256     0.031426


 HOMO      5.1    -0.508679 =     -13.8419eV
 LUMO      6.1     0.015256 =       0.4152eV
 LUMO-HOMO         0.523935 =      14.2570eV


 **********************************************************************************************************************************
 DATASETS  * FILE   NREC   LENGTH (MB)   RECORD NAMES
              1      18       49.80       500      610      700      900      950      970     1000      129      960     1100   
                                          VAR    BASINP    GEOM    SYMINP    ZMAT    AOBASIS   BASIS     P2S    ABASIS      S 
                                         1400     1410     1200     1210     1080     1600     1650     1700   
                                           T        V       H0       H01     AOSYM     SMH    MOLCAS    OPER   

              2       8       38.40       700     1000      520     2100     7360     7350      200     2101   
                                         GEOM     BASIS   MCVARS     RHF    F12ABS    EF12    OPTIONS    RHF  

 PROGRAMS   *        TOTAL    HF-SCF       INT   CCSD(T)    HF-SCF       INT
 CPU TIMES  *     15813.77   1589.52      0.62  10750.93   1730.00   1742.43
 REAL TIME  *     17413.46 SEC
 DISK USED  *        14.29 GB (local),      540.72 GB (total)
 SF USED    *        17.68 GB
 GA USED    *         4.87 MB       (max)       0.00 MB       (current)
 **********************************************************************************************************************************

 Basis set:  JKFIT                   
 Basis size:  1104
 Attributes:
 Sphericals:   T
 Basis set:  MP2FIT                  
 Basis size:  1246
 Attributes:
 Sphericals:   T
 Basis set:  RI                      
 Basis size:   730
 Attributes:
 Sphericals:   T
 Basis set:  TDDFT                   
 Basis size:  1246
 Attributes:
 Sphericals:   T

 PROGRAM * CCSD (Closed-shell coupled cluster)     Authors: C. Hampel, H.-J. Werner, 1991, M. Deegan, P.J. Knowles, 1992

                                  CCSD-F12 implementation by  H.-J. Werner, 2007

                   Density fitting integral evaluation by F.R. Manby, 2003,2007, G. Knizia, 2010



 Convergence thresholds:  THRVAR = 1.00D-08  THRDEN = 1.00D-10

 CCSD(T)     terms to be evaluated (factor= 1.000)


 Number of core orbitals:           1 (   1 )
 Number of closed-shell orbitals:   4 (   4 )
 Number of external orbitals:     729 ( 729 )

 Molecular orbitals read from record     2101.2  Type=RHF/CANONICAL (state 1.1)

 MP2-F12 correlation treatment (H.-J. Werner, 2006)
 ==================================================

 Using MP2-F12 with ansatz 3C(FIX)

 Using projected zeroth-order Hamiltonian (+Z)

 FOCKRIB=T FOCKRIC=T FOCKRIP=T CABSP=T CABSA=T CABSK=T CABSF=T GBC=F EBC=F DMAT=T NOFIK=T NOPAO=1 SOLVE=-1  USEPAO=0
 EXCH_A= T EXCH_B= F EXCH_C= F EXCH_P= F

 Geminal basis:    OPTFULL  GEM_TYPE=SLATER  BETA=1.0  NGEM=6

 Optimizing Gaussian exponents for each gem_beta

 Geminal optimization for beta= 1.0000
 Weight function:   m=0, omega= 1.4646

 Augmented Hessian optimization of geminal fit. Trust ratio= 0.40000
 Convergence reached after   2 iterations. Final gradient= 8.53D-16, Step= 4.26D-06, Delta= 1.28D-09

 Alpha:                 0.19532     0.81920     2.85917     9.50073    35.69989   197.79328
 Coeff:                 0.27070     0.30552     0.18297     0.10986     0.06810     0.04224


 All pairs explicitly correlated. Number of r12-pairs:           10

 Excluding core orbitals from MO domains

 AO(A)-basis ORBITAL           loaded. Number of functions:     734
 RI(R)-basis RI                loaded. Number of functions:     730
 DF-basis JKFIT                loaded. Number of functions:    1104

 Screening thresholds:   THRAO=  1.00D-10  THRMO=  1.00D-09  THRPROD=  1.00D-09
                         THRSW=  1.00D-05  THROV=  1.00D-12  THRAOF12= 1.00D-10

 CPU time for Fock operators                      9.21 sec

 Construction of ABS:
 Smallest eigenvalue of S          2.27E-04  (threshold= 1.00E-08)
 Ratio eigmin/eigmax               3.94E-05  (threshold= 1.00E-09)
 Smallest eigenvalue of S kept     2.27E-04  (threshold= 2.27E-04, 0 functions deleted, 730 kept)

 Construction of CABS:
 Smallest eigenvalue of S          9.72E-09  (threshold= 1.00E-08)
 Ratio eigmin/eigmax               9.72E-09  (threshold= 1.00E-09)
 Smallest eigenvalue of S kept     8.20E-08  (threshold= 8.20E-08, 1 functions deleted, 729 kept)

 CPU time for CABS singles                        1.19 sec

 CABS-singles contribution of  -0.00003875 patched into reference energy.
 New reference energy         -76.06531315

 AO(A)-basis ORBITAL           loaded. Number of functions:     734
 RI(R)-basis RI                loaded. Number of functions:     730
 DF-basis MP2FIT               loaded. Number of functions:    1246

 Screening thresholds:   THRAO=  1.00D-10  THRMO=  1.00D-09  THRPROD=  1.00D-09
                         THRSW=  1.00D-05  THROV=  1.00D-12  THRAOF12= 1.00D-10

 CPU time for 3-index integral evaluation        29.29 sec
 CPU time for first  half transformation          2.60 sec ( 5568.6 MFLOP/sec)
 CPU time for second half transformation          0.03 sec ( 2254.8 MFLOP/sec)
 CPU time for sorting                             0.16 sec
 CPU time for fitting                             0.33 sec (27644.2 MFLOP/sec)
 CPU time for tilde quantities                    0.50 sec (13718.0 MFLOP/sec)
 CPU time for assembly                            1.41 sec (24680.3 MFLOP/sec)
 CPU time for tranop_f12                          1.61 sec (24067.8 MFLOP/sec)
 CPU time for f12 integrals (total)              38.80 sec, Elapsed time:     40.83 sec
 F12-matrices built in  4 passes.
 F12-matrices built in  4 passes.
 F12-matrices built in  4 passes.
 F12-matrices built in  4 passes.
 FC-matrix built in  4 passes.
 CPU time for f12 matrices (total)                1.34 sec, Elapsed time:      1.41 sec

 Diagonal F12 approximation with fixed coefficients:  TSING= 0.500,  TTRIP= 0.250 (scaled by -1/beta)

 DF-MP2-F12 energy corrections:
 ==============================
 Approx.                                    Singlet             Triplet             Total
 DF-MP2-F12/3*C(DX,FIX)                -0.007256652674     -0.000572110911     -0.007828763585
 DF-MP2-F12/3*C(FIX)                   -0.006610688626     -0.000353100621     -0.006963789247
 DF-MP2-F12/3C(FIX)                    -0.006675051778     -0.000365343776     -0.007040395554

 DF-MP2-F12 correlation energies:
 ================================
 Approx.                                    Singlet             Triplet             Ecorr            Total Energy
 DF-MP2                                -0.192080908526     -0.102223969940     -0.294304878465    -76.359618032856
 DF-MP2-F12/3*C(DX,FIX)                -0.199337561200     -0.102796080850     -0.302133642050    -76.367446796441
 DF-MP2-F12/3*C(FIX)                   -0.198691597152     -0.102577070561     -0.301268667713    -76.366581822103
 DF-MP2-F12/3C(FIX)                    -0.198755960304     -0.102589313715     -0.301345274019    -76.366658428410

 SCS-DF-MP2 energies (F_SING= 1.20000  F_TRIP= 0.62222  F_PARALLEL= 0.33333):
 ============================================================================
 SCS-DF-MP2                            -0.294103115971    -76.359416270362
 SCS-DF-MP2-F12/3*C(DX,FIX)            -0.303167079302    -76.368480233693
 SCS-DF-MP2-F12/3*C(FIX)               -0.302255649376    -76.367568803766
 SCS-DF-MP2-F12/3C(FIX)                -0.302340503121    -76.367653657512
 Symmetry transformation completed.

 Number of N-1 electron functions:               4
 Number of N-2 electron functions:              10
 Number of singly external CSFs:              2916
 Number of doubly external CSFs:           4252986
 Total number of CSFs:                     4255903

 Pair and operator lists are different

 Length of J-op  integral file:             411.24 MB
 Length of K-op  integral file:             721.80 MB
 Length of 3-ext integral record:             0.00 MB

 Memory could be reduced to 2535.14 Mwords without degradation in triples

 Integral transformation finished. Total CPU: 580.59 sec, npass=  1  Memory used:1009.99 MW

 Reference energy:                    -76.06531315

 Adding F12 terms to K(Cij), methodcc=6,  factor= 1.0

 ITER.      SQ.NORM     CORR.ENERGY   TOTAL ENERGY   ENERGY CHANGE        DEN1      VAR(S)    VAR(P)  DIIS     TIME  TIME/IT
   1      1.06355141    -0.29277024   -76.35808340     0.00154083     0.00757693  0.78D-03  0.10D-02  1  1   785.57   167.75
   2      1.06705886    -0.29286446   -76.35817762    -0.00009422    -0.00496437  0.15D-04  0.11D-03  2  2   937.58   167.41
   3      1.06838341    -0.29295585   -76.35826900    -0.00009138    -0.00094268  0.81D-05  0.72D-05  3  3  1089.42   167.14
   4      1.06889158    -0.29296125   -76.35827440    -0.00000540    -0.00027807  0.53D-06  0.73D-06  4  4  1241.43   167.21
   5      1.06899491    -0.29295998   -76.35827314     0.00000127    -0.00003074  0.17D-06  0.55D-07  5  5  1394.79   167.56
   6      1.06902881    -0.29295778   -76.35827093     0.00000221    -0.00000574  0.19D-07  0.47D-08  6  6  1548.18   167.70
   7      1.06903721    -0.29295722   -76.35827038     0.00000056    -0.00000133  0.17D-08  0.85D-09  6  2  1700.56   167.58
   8      1.06903923    -0.29295709   -76.35827024     0.00000013    -0.00000010  0.24D-09  0.92D-10  6  1  1852.76   167.59
   9      1.06903969    -0.29295708   -76.35827023     0.00000001     0.00000010  0.46D-10  0.22D-10  6  2  2006.86   167.79
  10      1.06904004    -0.29295705   -76.35827021     0.00000002    -0.00000002  0.25D-11  0.14D-11  6  3  2158.54   167.63
  11      1.06904002    -0.29295706   -76.35827021    -0.00000000     0.00000005  0.45D-12  0.19D-12  6  5  2310.68   167.63
  12      1.06904003    -0.29295706   -76.35827021     0.00000000    -0.00000000  0.84D-13  0.23D-13  6  4  2462.60   167.55
  13      1.06904003    -0.29295706   -76.35827021    -0.00000000    -0.00000000  0.15D-13  0.39D-14  6  6  2616.99   167.73
  14      1.06904003    -0.29295706   -76.35827021    -0.00000000     0.00000000  0.24D-14  0.87D-15  6  1  2769.49   167.74
  15      1.06904003    -0.29295706   -76.35827021    -0.00000000    -0.00000000  0.30D-15  0.14D-15  6  2  2922.95   167.81
  16      1.06904003    -0.29295706   -76.35827021    -0.00000000     0.00000000  0.30D-16  0.18D-16  6  3  3075.18   167.79

 Norm of t1 vector:      0.03657457      S-energy:    -0.00000000      T1 diagnostic:  0.00914364
                                                                       D1 diagnostic:  0.01862971

 Adding energy correction from Wij-K(Fij), methodcc=6  factor= 1.0

  CCSD correlation energy              -0.292957056138
  MP2-F12 correction (uncoupled)       -0.006959927929
  C*T doubles correction               -0.000090673142
  f12b correction                       0.001580710227


 Total CPU time for triples:    634.11 sec

  Ecorr(MP2)                           -0.294311073204
  Ecorr(MP2-F12)                       -0.301351468758
  Scale factor for triples energy       1.023921612862


 RESULTS
 =======

  Reference energy                    -76.065274401471
  F12 singles correction               -0.000038752919

 F12 singles corrections added to reference energy

  New reference energy                -76.065313154391

  F12a singlet correction              -0.006651936871
  F12a triplet correction              -0.000398664201
  F12a total correction                -0.007050601072

 F12a corrections for ansatz F12/3C(FIX) added to CCSD energy

  CCSD-F12a singlet pair energy        -0.209233103697
  CCSD-F12a triplet pair energy        -0.090774552997
  CCSD-F12a correlation energy         -0.300007657209

  Triples (T) contribution (scaled)    -0.010025118978
  Total correlation energy             -0.310032776188

  CCSD-F12a total energy              -76.365320811600
  CCSD[T]-F12a energy                 -76.375661737156
  CCSD-T-F12a energy                  -76.375207574368
 !CCSD(T)-F12a total energy           -76.375345930578

 F12b corrections for ansatz F12/3C(FIX) added to CCSD(T)-F12a energy

  CCSD-F12b singlet pair energy        -0.207715654010
  CCSD-F12b triplet pair energy        -0.090711292456
  CCSD-F12b correlation energy         -0.298426946982

  Triples (T) contribution (scaled)    -0.010025118978
  Total correlation energy             -0.308452065960

  CCSD-F12b total energy              -76.363740101373
  CCSD[T]-F12b energy                 -76.374081026929
  CCSD-T-F12b energy                  -76.373626864140
 !CCSD(T)-F12b total energy           -76.373765220351

 Timing summary (sec):

 STEP                 CPU(USER)    SYS     CPU(TOT)    WALL
 Transformation        581.13     29.73    610.86    613.36
 CCSD iterations      2441.48    235.22   2676.70   2685.09
 Triples               634.11      5.88    639.99    642.39
 MP2-F12                52.75      2.40     55.15     55.40
 F12b energy           147.44     13.58    161.02    161.57

 Program statistics:

 Available memory in ccsd:              3999999871
 Min. memory needed in ccsd:              19260852
 Max. memory used in ccsd:                22423154
 Max. memory used in cckext:              14628952 (17 integral passes)



 **********************************************************************************************************************************
 DATASETS  * FILE   NREC   LENGTH (MB)   RECORD NAMES
              1      19     6330.34       500      610      700      900      950      970     1000      129      960     1100   
                                          VAR    BASINP    GEOM    SYMINP    ZMAT    AOBASIS   BASIS     P2S    ABASIS      S 
                                         1400     1410     1200     1210     1080     1600     1650     1700     1380   
                                           T        V       H0       H01     AOSYM     SMH    MOLCAS    OPER     JKOP   

              2       8       38.40       700     1000      520     2100     7360     7350      200     2101   
                                         GEOM     BASIS   MCVARS     RHF    F12ABS    EF12    OPTIONS    RHF  

 PROGRAMS   *        TOTAL   CCSD(T)    HF-SCF       INT   CCSD(T)    HF-SCF       INT
 CPU TIMES  *     19670.89   3857.10   1589.52      0.62  10750.93   1730.00   1742.43
 REAL TIME  *     21572.64 SEC
 DISK USED  *        14.29 GB (local),      540.72 GB (total)
 SF USED    *        17.68 GB
 GA USED    *         4.87 MB       (max)       0.00 MB       (current)
 **********************************************************************************************************************************

 Running procedure: SET_MONOMER2

 Dummy atoms: O1  H1  H2


 Recomputing one-electron integrals since nuclear charges changed


 PROGRAM * SEWARD (Integral evaluation for generally contracted gaussian basis sets)     Author: Roland Lindh, 1990

 Geometry written to block  1 of record 700


 Point group  C1  



 ATOMIC COORDINATES

 NR  ATOM    CHARGE       X              Y              Z

   1  O1      0.00    0.000000000    0.000000000    0.000000000
   2  H1      0.00    0.000000000    0.000000000    1.842293999
   3  H2      0.00    0.000000000    1.780688927   -0.493596464
   4  C1      6.00   -6.193010455    2.801518980    2.403542658
   5  H41     1.00   -4.656285171    1.699997622    3.119937832
   6  H42     1.00   -5.973046335    4.726205038    2.982932688
   7  H43     1.00   -7.940251230    2.077186956    3.118237078
   8  H44     1.00   -6.176569838    2.685300823    0.384937212

 Bond lengths in Bohr (Angstrom)

 1-2  1.842293999  1-3  1.847834009  4-5  2.021904040  4-6  2.022002335  4-7  2.021953343
     ( 0.974900000)     ( 0.977831647)     ( 1.069945541)     ( 1.069997556)     ( 1.069971630)

 4-8  2.022015060
     ( 1.070004290)

 Bond angles

  2-1-3  105.49305961   5-4-6  109.53398059   5-4-7  109.65604535   5-4-8  108.43490854

  6-4-7  109.49436728   6-4-8  109.86987750   7-4-8  109.83468330

 NUCLEAR CHARGE:                   10
 NUMBER OF PRIMITIVE AOS:        1046
 NUMBER OF SYMMETRY AOS:          786
 NUMBER OF CONTRACTIONS:          734   (  734A   )
 NUMBER OF CORE ORBITALS:           1   (    1A   )
 NUMBER OF VALENCE ORBITALS:        8   (    8A   )

 MOLECULE CHANGED: INITIALIZING OCCUPATION AND DUMP RECORDS


 NUCLEAR REPULSION ENERGY   13.68681606

 Basis set:  JKFIT                   
 Basis size:  1104
 Attributes:
 Sphericals:   T
 Basis set:  MP2FIT                  
 Basis size:  1246
 Attributes:
 Sphericals:   T
 Basis set:  RI                      
 Basis size:   730
 Attributes:
 Sphericals:   T
 Basis set:  TDDFT                   
 Basis size:  1246
 Attributes:
 Sphericals:   T

 Eigenvalues of metric

         1 0.184E-05 0.252E-05 0.354E-05 0.360E-05 0.530E-05 0.695E-05 0.832E-05 0.903E-05


 Contracted 2-electron integrals neglected if value below      1.0D-14

 OPERATOR DM      FOR CENTER  0  COORDINATES:    0.000000    0.000000    0.000000


 **********************************************************************************************************************************
 DATASETS  * FILE   NREC   LENGTH (MB)   RECORD NAMES
              1      18       49.80       500      610      700      900      950      970     1000      129      960     1100   
                                          VAR    BASINP    GEOM    SYMINP    ZMAT    AOBASIS   BASIS     P2S    ABASIS      S 
                                         1400     1410     1200     1210     1080     1600     1650     1700   
                                           T        V       H0       H01     AOSYM     SMH    MOLCAS    OPER   

              2       8       38.40       700     1000      520     2100     7360     7350      200     2101   
                                         GEOM     BASIS   MCVARS     RHF    F12ABS    EF12    OPTIONS    RHF  

 PROGRAMS   *        TOTAL       INT   CCSD(T)    HF-SCF       INT   CCSD(T)    HF-SCF       INT
 CPU TIMES  *     19671.40      0.50   3857.10   1589.52      0.62  10750.93   1730.00   1742.43
 REAL TIME  *     21574.20 SEC
 DISK USED  *        14.29 GB (local),      540.72 GB (total)
 SF USED    *        17.68 GB
 GA USED    *         4.87 MB       (max)       0.00 MB       (current)
 **********************************************************************************************************************************


 PROGRAM * RHF-SCF (CLOSED SHELL)       Authors: W. Meyer, H.-J. Werner


 NUMBER OF ELECTRONS:       5+    5-    SPACE SYMMETRY=1    SPIN SYMMETRY: Singlet 
 CONVERGENCE THRESHOLDS:    1.00E-08 (Density)    1.00E-11 (Energy)
 MAX. NUMBER OF ITERATIONS:       60
 INTERPOLATION TYPE:            DIIS
 INTERPOLATION STEPS:              2 (START)      1 (STEP)
 LEVEL SHIFTS:                  0.00 (CLOSED)  0.00 (OPEN) 



 Orbital guess generated from atomic densities. Full valence occupancy:    9

 Molecular orbital dump at record        2102.2

 Initial occupancy:   5

 ITERATION    DDIFF          GRAD             ENERGY        2-EL.EN.            DIPOLE MOMENTS         DIIS   ORB.
    1      0.000D+00      0.000D+00       -40.19676538     53.509904    0.00411   -0.00276   -0.00131    0    start
    2      0.000D+00      0.198D-02       -40.21405758     52.218480    0.00128   -0.00087   -0.00039    1    diag
    3      0.948D-03      0.769D-03       -40.21634100     52.673987    0.00182   -0.00123   -0.00055    2    diag
    4      0.259D-03      0.192D-03       -40.21666133     52.619249    0.00161   -0.00110   -0.00049    3    diag
    5      0.101D-03      0.248D-04       -40.21666681     52.621407    0.00159   -0.00108   -0.00048    4    diag
    6      0.348D-04      0.204D-05       -40.21666686     52.621535    0.00159   -0.00108   -0.00048    5    diag
    7      0.608D-05      0.166D-06       -40.21666686     52.621498    0.00158   -0.00108   -0.00048    6    diag
    8      0.351D-06      0.136D-07       -40.21666686     52.621498    0.00159   -0.00108   -0.00048    7    diag
    9      0.560D-07      0.167D-08       -40.21666686     52.621498    0.00158   -0.00108   -0.00048    8    diag
   10      0.105D-07      0.465D-09       -40.21666686     52.621498    0.00158   -0.00108   -0.00048    9    orth
   11      0.112D-08      0.666D-10       -40.21666686     52.621498    0.00158   -0.00108   -0.00048    0    orth

 Final occupancy:   5

 !RHF STATE  1.1 Energy               -40.216666856294
 Nuclear energy                        13.68681606
 One-electron energy                  -80.21423203
 Two-electron energy                   26.31074912
 Virial quotient                       -0.99832814
 !RHF STATE  1.1 Dipole moment          0.00158491    -0.00107669    -0.00047672
 Dipole moment /Debye                   0.00402819    -0.00273649    -0.00121163

 Orbital energies:

         1.1          2.1          3.1          4.1          5.1          6.1          7.1
    -11.196017    -0.950605    -0.551931    -0.549996    -0.547817     0.021611     0.033166


 HOMO      5.1    -0.547817 =     -14.9069eV
 LUMO      6.1     0.021611 =       0.5881eV
 LUMO-HOMO         0.569428 =      15.4949eV


 **********************************************************************************************************************************
 DATASETS  * FILE   NREC   LENGTH (MB)   RECORD NAMES
              1      18       49.80       500      610      700      900      950      970     1000      129      960     1100   
                                          VAR    BASINP    GEOM    SYMINP    ZMAT    AOBASIS   BASIS     P2S    ABASIS      S 
                                         1400     1410     1200     1210     1080     1600     1650     1700   
                                           T        V       H0       H01     AOSYM     SMH    MOLCAS    OPER   

              2       9       62.49       700     1000      520     2100     7360     7350      200     2101     2102   
                                         GEOM     BASIS   MCVARS     RHF    F12ABS    EF12    OPTIONS    RHF      RHF  

 PROGRAMS   *        TOTAL    HF-SCF       INT   CCSD(T)    HF-SCF       INT   CCSD(T)    HF-SCF       INT
 CPU TIMES  *     21246.30   1574.90      0.50   3857.10   1589.52      0.62  10750.93   1730.00   1742.43
 REAL TIME  *     23320.23 SEC
 DISK USED  *        14.29 GB (local),      540.72 GB (total)
 SF USED    *        17.68 GB
 GA USED    *         4.87 MB       (max)       0.00 MB       (current)
 **********************************************************************************************************************************

 Basis set:  JKFIT                   
 Basis size:  1104
 Attributes:
 Sphericals:   T
 Basis set:  MP2FIT                  
 Basis size:  1246
 Attributes:
 Sphericals:   T
 Basis set:  RI                      
 Basis size:   730
 Attributes:
 Sphericals:   T
 Basis set:  TDDFT                   
 Basis size:  1246
 Attributes:
 Sphericals:   T

 PROGRAM * CCSD (Closed-shell coupled cluster)     Authors: C. Hampel, H.-J. Werner, 1991, M. Deegan, P.J. Knowles, 1992

                                  CCSD-F12 implementation by  H.-J. Werner, 2007

                   Density fitting integral evaluation by F.R. Manby, 2003,2007, G. Knizia, 2010



 Convergence thresholds:  THRVAR = 1.00D-08  THRDEN = 1.00D-10

 CCSD(T)     terms to be evaluated (factor= 1.000)


 Number of core orbitals:           1 (   1 )
 Number of closed-shell orbitals:   4 (   4 )
 Number of external orbitals:     729 ( 729 )

 Molecular orbitals read from record     2102.2  Type=RHF/CANONICAL (state 1.1)

 MP2-F12 correlation treatment (H.-J. Werner, 2006)
 ==================================================

 Using MP2-F12 with ansatz 3C(FIX)

 Using projected zeroth-order Hamiltonian (+Z)

 FOCKRIB=T FOCKRIC=T FOCKRIP=T CABSP=T CABSA=T CABSK=T CABSF=T GBC=F EBC=F DMAT=T NOFIK=T NOPAO=1 SOLVE=-1  USEPAO=0
 EXCH_A= T EXCH_B= F EXCH_C= F EXCH_P= F

 Geminal basis:    OPTFULL  GEM_TYPE=SLATER  BETA=1.0  NGEM=6

 Optimizing Gaussian exponents for each gem_beta

 Geminal optimization for beta= 1.0000
 Weight function:   m=0, omega= 1.4646

 Augmented Hessian optimization of geminal fit. Trust ratio= 0.40000
 Convergence reached after   2 iterations. Final gradient= 8.53D-16, Step= 4.26D-06, Delta= 1.28D-09

 Alpha:                 0.19532     0.81920     2.85917     9.50073    35.69989   197.79328
 Coeff:                 0.27070     0.30552     0.18297     0.10986     0.06810     0.04224


 All pairs explicitly correlated. Number of r12-pairs:           10

 Excluding core orbitals from MO domains

 AO(A)-basis ORBITAL           loaded. Number of functions:     734
 RI(R)-basis RI                loaded. Number of functions:     730
 DF-basis JKFIT                loaded. Number of functions:    1104

 Screening thresholds:   THRAO=  1.00D-10  THRMO=  1.00D-09  THRPROD=  1.00D-09
                         THRSW=  1.00D-05  THROV=  1.00D-12  THRAOF12= 1.00D-10

 CPU time for Fock operators                      9.32 sec

 Construction of ABS:
 Smallest eigenvalue of S          2.27E-04  (threshold= 1.00E-08)
 Ratio eigmin/eigmax               3.94E-05  (threshold= 1.00E-09)
 Smallest eigenvalue of S kept     2.27E-04  (threshold= 2.27E-04, 0 functions deleted, 730 kept)

 Construction of CABS:
 Smallest eigenvalue of S          9.71E-09  (threshold= 1.00E-08)
 Ratio eigmin/eigmax               9.71E-09  (threshold= 1.00E-09)
 Smallest eigenvalue of S kept     8.20E-08  (threshold= 8.20E-08, 1 functions deleted, 729 kept)

 CPU time for CABS singles                        1.19 sec

 CABS-singles contribution of  -0.00004077 patched into reference energy.
 New reference energy         -40.21670762

 AO(A)-basis ORBITAL           loaded. Number of functions:     734
 RI(R)-basis RI                loaded. Number of functions:     730
 DF-basis MP2FIT               loaded. Number of functions:    1246

 Screening thresholds:   THRAO=  1.00D-10  THRMO=  1.00D-09  THRPROD=  1.00D-09
                         THRSW=  1.00D-05  THROV=  1.00D-12  THRAOF12= 1.00D-10

 CPU time for 3-index integral evaluation        29.28 sec
 CPU time for first  half transformation          2.60 sec ( 5680.5 MFLOP/sec)
 CPU time for second half transformation          0.03 sec ( 2071.8 MFLOP/sec)
 CPU time for sorting                             0.15 sec
 CPU time for fitting                             0.34 sec (20255.8 MFLOP/sec)
 CPU time for tilde quantities                    0.39 sec (29274.9 MFLOP/sec)
 CPU time for assembly                            1.40 sec (25815.3 MFLOP/sec)
 CPU time for tranop_f12                          1.70 sec (27860.0 MFLOP/sec)
 CPU time for f12 integrals (total)              38.70 sec, Elapsed time:     40.60 sec
 F12-matrices built in  4 passes.
 F12-matrices built in  4 passes.
 F12-matrices built in  4 passes.
 F12-matrices built in  4 passes.
 FC-matrix built in  4 passes.
 CPU time for f12 matrices (total)                1.37 sec, Elapsed time:      1.41 sec

 Diagonal F12 approximation with fixed coefficients:  TSING= 0.500,  TTRIP= 0.250 (scaled by -1/beta)

 DF-MP2-F12 energy corrections:
 ==============================
 Approx.                                    Singlet             Triplet             Total
 DF-MP2-F12/3*C(DX,FIX)                -0.003932988381     -0.000213005220     -0.004145993600
 DF-MP2-F12/3*C(FIX)                   -0.003769857738     -0.000160887316     -0.003930745054
 DF-MP2-F12/3C(FIX)                    -0.003816700300     -0.000163914245     -0.003980614545

 DF-MP2-F12 correlation energies:
 ================================
 Approx.                                    Singlet             Triplet             Ecorr            Total Energy
 DF-MP2                                -0.157870540522     -0.056825018925     -0.214695559447    -40.431403182556
 DF-MP2-F12/3*C(DX,FIX)                -0.161803528903     -0.057038024145     -0.218841553047    -40.435549176157
 DF-MP2-F12/3*C(FIX)                   -0.161640398260     -0.056985906241     -0.218626304501    -40.435333927611
 DF-MP2-F12/3C(FIX)                    -0.161687240822     -0.056988933170     -0.218676173992    -40.435383797101

 SCS-DF-MP2 energies (F_SING= 1.20000  F_TRIP= 0.62222  F_PARALLEL= 0.33333):
 ============================================================================
 SCS-DF-MP2                            -0.224802438180    -40.441510061289
 SCS-DF-MP2-F12/3*C(DX,FIX)            -0.229654560818    -40.446362183927
 SCS-DF-MP2-F12/3*C(FIX)               -0.229426375129    -40.446133998238
 SCS-DF-MP2-F12/3C(FIX)                -0.229484469625    -40.446192092734
 Symmetry transformation completed.

 Number of N-1 electron functions:               4
 Number of N-2 electron functions:              10
 Number of singly external CSFs:              2916
 Number of doubly external CSFs:           4252986
 Total number of CSFs:                     4255903

 Pair and operator lists are different

 Length of J-op  integral file:             411.24 MB
 Length of K-op  integral file:             721.80 MB
 Length of 3-ext integral record:             0.00 MB

 Memory could be reduced to 2535.14 Mwords without degradation in triples

 Integral transformation finished. Total CPU: 584.42 sec, npass=  1  Memory used:1009.99 MW

 Reference energy:                    -40.21670762

 Adding F12 terms to K(Cij), methodcc=6,  factor= 1.0

 ITER.      SQ.NORM     CORR.ENERGY   TOTAL ENERGY   ENERGY CHANGE        DEN1      VAR(S)    VAR(P)  DIIS     TIME  TIME/IT
   1      1.07033690    -0.22827332   -40.44498094    -0.01357105    -0.00771664  0.62D-03  0.94D-03  1  1   787.15   163.67
   2      1.07515865    -0.22923048   -40.44593810    -0.00095716    -0.00531230  0.16D-04  0.11D-03  2  2   937.82   164.45
   3      1.07694843    -0.22929784   -40.44600546    -0.00006736    -0.00133789  0.22D-05  0.64D-05  3  3  1090.19   165.44
   4      1.07735123    -0.22930028   -40.44600790    -0.00000244    -0.00021862  0.16D-06  0.39D-06  4  4  1242.94   166.21
   5      1.07740853    -0.22930385   -40.44601147    -0.00000357    -0.00000966  0.14D-07  0.24D-07  5  5  1395.91   166.65
   6      1.07741878    -0.22930250   -40.44601013     0.00000134    -0.00000403  0.90D-09  0.19D-08  6  6  1546.93   166.56
   7      1.07742031    -0.22930211   -40.44600973     0.00000040    -0.00000090  0.56D-10  0.13D-09  6  1  1698.49   166.60
   8      1.07742024    -0.22930217   -40.44600979    -0.00000006     0.00000024  0.62D-11  0.89D-11  6  3  1852.05   166.85
   9      1.07742038    -0.22930215   -40.44600977     0.00000002    -0.00000009  0.42D-12  0.62D-12  6  2  2003.08   166.84
  10      1.07742038    -0.22930215   -40.44600977     0.00000000     0.00000001  0.59D-13  0.65D-13  6  4  2152.72   166.63
  11      1.07742038    -0.22930215   -40.44600977     0.00000000    -0.00000000  0.60D-14  0.66D-14  6  5  2301.77   166.37
  12      1.07742038    -0.22930215   -40.44600977     0.00000000     0.00000000  0.17D-15  0.66D-15  6  6  2453.34   166.36
  13      1.07742038    -0.22930215   -40.44600977    -0.00000000     0.00000000  0.13D-16  0.72D-16  6  1  2602.84   166.25
  14      1.07742038    -0.22930215   -40.44600977    -0.00000000     0.00000000  0.19D-17  0.11D-16  6  3  2754.20   166.26

 Norm of t1 vector:      0.03268890      S-energy:     0.00000000      T1 diagnostic:  0.00817222
                                                                       D1 diagnostic:  0.01311244

 Adding energy correction from Wij-K(Fij), methodcc=6  factor= 1.0

  CCSD correlation energy              -0.229302145650
  MP2-F12 correction (uncoupled)       -0.003883794812
  C*T doubles correction               -0.000068793224
  f12b correction                       0.001100183466

 Total CPU time for triples:    636.06 sec

  Ecorr(MP2)                           -0.214702272488
  Ecorr(MP2-F12)                       -0.218682887032
  Scale factor for triples energy       1.018540160281


 RESULTS
 =======

  Reference energy                    -40.216666856294
  F12 singles correction               -0.000040766815

 F12 singles corrections added to reference energy

  New reference energy                -40.216707623109

  F12a singlet correction              -0.003781374591
  F12a triplet correction              -0.000171213444
  F12a total correction                -0.003952588036

 F12a corrections for ansatz F12/3C(FIX) added to CCSD energy

  CCSD-F12a singlet pair energy        -0.178096160605
  CCSD-F12a triplet pair energy        -0.055158573085
  CCSD-F12a correlation energy         -0.233254733686

  Triples (T) contribution (scaled)    -0.007109326395
  Total correlation energy             -0.240364060081

  CCSD-F12a total energy              -40.449962356795
  CCSD[T]-F12a energy                 -40.457307299651
  CCSD-T-F12a energy                  -40.457003840072
 !CCSD(T)-F12a total energy           -40.457071683190

 F12b corrections for ansatz F12/3C(FIX) added to CCSD(T)-F12a energy

  CCSD-F12b singlet pair energy        -0.177025109277
  CCSD-F12b triplet pair energy        -0.055129440947
  CCSD-F12b correlation energy         -0.232154550220

  Triples (T) contribution (scaled)    -0.007109326395
  Total correlation energy             -0.239263876615

  CCSD-F12b total energy              -40.448862173329
  CCSD[T]-F12b energy                 -40.456207116185
  CCSD-T-F12b energy                  -40.455903656607
 !CCSD(T)-F12b total energy           -40.455971499724

 Timing summary (sec):

 STEP                 CPU(USER)    SYS     CPU(TOT)    WALL
 Transformation        584.95     27.09    612.04    614.31
 CCSD iterations      2116.56    204.78   2321.34   2328.01
 Triples               636.06      4.97    641.03    643.22
 MP2-F12                52.87      2.26     55.13     55.32
 F12b energy           146.78     13.56    160.34    161.05

 Program statistics:

 Available memory in ccsd:              3999999866
 Min. memory needed in ccsd:              19260852
 Max. memory used in ccsd:                22423154
 Max. memory used in cckext:              14628952 (15 integral passes)



 **********************************************************************************************************************************
 DATASETS  * FILE   NREC   LENGTH (MB)   RECORD NAMES
              1      19     6330.34       500      610      700      900      950      970     1000      129      960     1100   
                                          VAR    BASINP    GEOM    SYMINP    ZMAT    AOBASIS   BASIS     P2S    ABASIS      S 
                                         1400     1410     1200     1210     1080     1600     1650     1700     1380   
                                           T        V       H0       H01     AOSYM     SMH    MOLCAS    OPER     JKOP   

              2       9       62.49       700     1000      520     2100     7360     7350      200     2101     2102   
                                         GEOM     BASIS   MCVARS     RHF    F12ABS    EF12    OPTIONS    RHF      RHF  

 PROGRAMS   *        TOTAL   CCSD(T)    HF-SCF       INT   CCSD(T)    HF-SCF       INT   CCSD(T)    HF-SCF       INT
 CPU TIMES  *     24783.70   3537.39   1574.90      0.50   3857.10   1589.52      0.62  10750.93   1730.00   1742.43
 REAL TIME  *     27123.50 SEC
 DISK USED  *        14.29 GB (local),      540.72 GB (total)
 SF USED    *        17.68 GB
 GA USED    *         4.87 MB       (max)       0.00 MB       (current)
 **********************************************************************************************************************************
 Molecular orbitals read from record     2102.2  Type=RHF/CANONICAL (state 1.1)
 Occupation numbers read from record     2102.2  Type=RHF/RHF (state 1.1)
 Orbital energies read from record       2102.2  Type=RHF/CANONICAL (state 1.1)
 Redundancy group numbers read from rec  2102.2  Type=RHF/RHF (state 1.1)

 CCSD(T)-F12/aug-cc-pV5Z energy=    -40.455971499724

     CCSD(T)-F12          HF-SCF     CCSD(T)-F12          HF-SCF     CCSD(T)-F12          HF-SCF
    -40.45597150    -40.21666686    -76.37376522    -76.06527440   -116.83008161   -116.28134295
 **********************************************************************************************************************************
 Molpro calculation terminated
