
 Primary working directories    : /scratch.ssd/kelum/job_380586.cerit-pbs.cerit-sc.cz/molpro.RBkAOiJIfG
 Secondary working directories  : /scratch.ssd/kelum/job_380586.cerit-pbs.cerit-sc.cz/molpro.RBkAOiJIfG
 Wavefunction directory         : /scratch.ssd/kelum/job_380586.cerit-pbs.cerit-sc.cz/
 Main file repository           : /scratch.ssd/kelum/job_380586.cerit-pbs.cerit-sc.cz/molpro.RBkAOiJIfG/

 id        : karlovklimes

 Nodes            nprocs
 elan5.cerit-sc.cz    4

 Using customized tuning parameters: mindgm=1; mindgv=20; mindgc=4; mindgr=1; noblas=0; minvec=7
 default implementation of scratch files=sf  


 Variables initialized (934), CPU time= 0.01 sec
                                                                                 !gdirect
 memory,4000,m
 gthresh,orbital=1d-10,energy=1d-10
 
 symmetry,nosym
 angstrom
 geometry={
 O2        -0.069900000000     -0.226200000000      2.872700000000
 H3         0.635400000000     -0.815900000000      3.168900000000
 H4        -0.918500000000     -0.721300000000      3.072500000000
 C1        -3.277200000000      1.482500000000      1.271900000000
 H41        -2.464000000000      0.899600000000      1.651000000000
 H42        -3.160800000000      2.501000000000      1.578500000000
 H43        -4.201800000000      1.099200000000      1.650100000000
 H44        -3.268500000000      1.421000000000      0.203700000000
 }
 
 nkerna=1
 nkernb=1
 
 gf=0
 sing=1
 thrdum=1d-4
 gridthr=1d-8
 
 basis={
 set,orbital
 default,av5z
 set,jkfit
 default,av5z/jkfit
 set,mp2fit
 default,av5z/mp2fit
 set,ri
 default,av5z/optri
 set,tddft
 default,av5z/mp2fit
 }
 
 proc set_monomer1
 dummy,4,5,6,7,8
 endproc
 
 proc set_monomer2
 dummy,1,2,3
 endproc
 
                                                                                 !12 energy
 {hf,accu=1.d-16}
 {ccsd(t)-f12,df_basis=mp2fit,df_basis_exch=jkfit,ri_basis=ri,scale_trip=1,THRAOF12=1d-10}
 
 set_monomer1
 {hf,accu=1.d-16}
 {ccsd(t)-f12,df_basis=mp2fit,df_basis_exch=jkfit,ri_basis=ri,scale_trip=1,THRAOF12=1d-10}
 
 set_monomer2
 {hf,accu=1.d-16}
 {ccsd(t)-f12,df_basis=mp2fit,df_basis_exch=jkfit,ri_basis=ri,scale_trip=1,THRAOF12=1d-10}
 
 Commands  initialized (763), CPU time= 0.01 sec, 617 directives.
 Default parameters read. Elapsed time= 0.17 sec

 Checking input...
 Passed
1


                                         ***  PROGRAM SYSTEM MOLPRO  ***
                                       Copyright, TTI GmbH Stuttgart, 2015
                                    Version 2019.2 linked Jun  8 2019 11:26:33


 **********************************************************************************************************************************
 LABEL *                                                                                 
  64 bit mpp version                                                                     DATE: 24-Mar-20          TIME: 09:19:20  
 **********************************************************************************************************************************

 SHA1:             8135a10abc80eafa5b3ae28ffc55be4890dc4c84
 **********************************************************************************************************************************

 THRESHOLDS:

 ZERO    =  1.00D-12  ONEINT  =  1.00D-12  TWOINT  =  1.00D-11  PREFAC  =  1.00D-14  XXXXXX  =  1.00D-09  EORDER  =  1.00D-04
 ENERGY  =  1.00D-10  ETEST   =  0.00D+00  EDENS   =  0.00D+00  THRDEDEF=  1.00D-06  GRADIENT=  1.00D-02  STEP    =  1.00D-03
 ORBITAL =  1.00D-10  CIVEC   =  1.00D-05  COEFF   =  1.00D-04  PRINTCI =  5.00D-02  PUNCHCI =  9.90D+01  OPTGRAD =  3.00D-04
 OPTENERG=  1.00D-06  OPTSTEP =  3.00D-04  THRGRAD =  1.00D-10  COMPRESS=  1.00D-11  VARMIN  =  1.00D-07  VARMAX  =  1.00D-03
 THRDOUB =  0.00D+00  THRDIV  =  1.00D-05  THRRED  =  1.00D-07  THRPSP  =  1.00D+00  THRDC   =  1.00D-10  THRCS   =  1.00D-10
 THRNRM  =  1.00D-08  THREQ   =  0.00D+00  THRDE   =  1.00D+00  THRREF  =  1.00D-05  SPARFAC =  1.00D+00  THRDLP  =  1.00D-07
 THRDIA  =  1.00D-10  THRDLS  =  1.00D-07  THRGPS  =  0.00D+00  THRKEX  =  0.00D+00  THRDIS  =  2.00D-01  THRVAR  =  1.00D-10
 THRLOC  =  1.00D-06  THRGAP  =  1.00D-06  THRLOCT = -1.00D+00  THRGAPT = -1.00D+00  THRORB  =  1.00D-06  THRMLTP =  0.00D+00
 THRCPQCI=  1.00D-10  KEXTA   =  0.00D+00  THRCOARS=  0.00D+00  SYMTOL  =  1.00D-06  GRADTOL =  1.00D-06  THROVL  =  1.00D-08
 THRORTH =  1.00D-08  GRID    =  1.00D-06  GRIDMAX =  1.00D-03  DTMAX   =  0.00D+00  THROCCDE=  1.00D-01  THROCCDE=  1.00D-01
 THRPRINT=  2.50D-01


 Variable memory set to 4000000000 words,  buffer space 

 ZSYMEL=NOSYM
 ZUNIT=ANG


Geometry recognized as XYZ

 SETTING NKERNA         =         1.00000000                                  
 SETTING NKERNB         =         1.00000000                                  
 SETTING GF             =     0.00000000D+00                                  
 SETTING SING           =         1.00000000                                  
 SETTING THRDUM         =     1.00000000D-04                                  
 SETTING GRIDTHR        =     1.00000000D-08                                  
 SETTING BASIS          =    AV5Z


 Recomputing integrals since basis changed


 Using spherical harmonics

 Library entry O      S aug-cc-pV5Z          selected for orbital group  1
 Library entry O      P aug-cc-pV5Z          selected for orbital group  1
 Library entry O      D aug-cc-pV5Z          selected for orbital group  1
 Library entry O      F aug-cc-pV5Z          selected for orbital group  1
 Library entry O      G aug-cc-pV5Z          selected for orbital group  1
 Library entry O      H aug-cc-pV5Z          selected for orbital group  1
 Library entry H      S aug-cc-pV5Z          selected for orbital group  2
 Library entry H      P aug-cc-pV5Z          selected for orbital group  2
 Library entry H      D aug-cc-pV5Z          selected for orbital group  2
 Library entry H      F aug-cc-pV5Z          selected for orbital group  2
 Library entry H      G aug-cc-pV5Z          selected for orbital group  2
 Library entry C      S aug-cc-pV5Z          selected for orbital group  3
 Library entry C      P aug-cc-pV5Z          selected for orbital group  3
 Library entry C      D aug-cc-pV5Z          selected for orbital group  3
 Library entry C      F aug-cc-pV5Z          selected for orbital group  3
 Library entry C      G aug-cc-pV5Z          selected for orbital group  3
 Library entry C      H aug-cc-pV5Z          selected for orbital group  3


 PROGRAM * SEWARD (Integral evaluation for generally contracted gaussian basis sets)     Author: Roland Lindh, 1990

 Geometry written to block  1 of record 700


 Point group  C1  



 ATOMIC COORDINATES

 NR  ATOM    CHARGE       X              Y              Z

   1  O2      8.00   -0.132091856   -0.427456049    5.428616238
   2  H3      1.00    1.200731980   -1.541827545    5.988353116
   3  H4      1.00   -1.735713445   -1.363059454    5.806183518
   4  C1      6.00   -6.193010455    2.801518980    2.403542658
   5  H41     1.00   -4.656285171    1.699997622    3.119937832
   6  H42     1.00   -5.973046335    4.726205038    2.982932688
   7  H43     1.00   -7.940251230    2.077186956    3.118237078
   8  H44     1.00   -6.176569838    2.685300823    0.384937212

 Bond lengths in Bohr (Angstrom)

 1-2  1.825253018  1-3  1.894601009  4-5  2.021904040  4-6  2.022002335  4-7  2.021953343
     ( 0.965882301)     ( 1.002579678)     ( 1.069945541)     ( 1.069997556)     ( 1.069971630)

 4-8  2.022015060
     ( 1.070004290)

 Bond angles

  2-1-3  104.80057086   5-4-6  109.53398059   5-4-7  109.65604535   5-4-8  108.43490854

  6-4-7  109.49436728   6-4-8  109.86987750   7-4-8  109.83468330

 NUCLEAR CHARGE:                   20
 NUMBER OF PRIMITIVE AOS:        1046
 NUMBER OF SYMMETRY AOS:          786
 NUMBER OF CONTRACTIONS:          734   (  734A   )
 NUMBER OF CORE ORBITALS:           2   (    2A   )
 NUMBER OF VALENCE ORBITALS:       14   (   14A   )


 NUCLEAR REPULSION ENERGY   35.86337232


 Basis set:  JKFIT                   
 Basis size:  1104
 Attributes:
 Sphericals:   T
 Basis set:  MP2FIT                  
 Basis size:  1246
 Attributes:
 Sphericals:   T
 Basis set:  RI                      
 Basis size:   730
 Attributes:
 Sphericals:   T
 Basis set:  TDDFT                   
 Basis size:  1246
 Attributes:
 Sphericals:   T

 **********************************************************************************************************************************


 Eigenvalues of metric

         1 0.106E-05 0.206E-05 0.316E-05 0.466E-05 0.486E-05 0.663E-05 0.878E-05 0.902E-05


 Contracted 2-electron integrals neglected if value below      1.0D-14
 AO integral compression algorithm  1   Integral accuracy      1.0D-14

     145385.325 MB (compressed) written to integral file ( 46.0%)

     Node minimum: 34674.835 MB, node maximum: 38455.738 MB


 NUMBER OF SORTED TWO-ELECTRON INTEGRALS: 9095363064.     BUFFER LENGTH:  32768
 NUMBER OF SEGMENTS: 190  SEGMENT LENGTH:   47999780      RECORD LENGTH: 131072

 Memory used in sort:      48.16 MW

 SORT1 READ 39469907505. AND WROTE  6607677924. INTEGRALS IN  75710 RECORDS. CPU TIME:  1086.04 SEC, REAL TIME:  1196.28 SEC
 SORT2 READ 26438801384. AND WROTE 36381317385. INTEGRALS IN 540472 RECORDS. CPU TIME:   122.71 SEC, REAL TIME:   903.55 SEC

 Node minimum:  9095228192.  Node maximum:  9095430501. integrals

 OPERATOR DM      FOR CENTER  0  COORDINATES:    0.000000    0.000000    0.000000


 **********************************************************************************************************************************
 DATASETS  * FILE   NREC   LENGTH (MB)   RECORD NAMES
              1      18       49.80       500      610      700      900      950      970     1000      129      960     1100   
                                          VAR    BASINP    GEOM    SYMINP    ZMAT    AOBASIS   BASIS     P2S    ABASIS      S 
                                         1400     1410     1200     1210     1080     1600     1650     1700   
                                           T        V       H0       H01     AOSYM     SMH    MOLCAS    OPER   

 PROGRAMS   *        TOTAL       INT
 CPU TIMES  *      1776.89   1776.70
 REAL TIME  *      2703.68 SEC
 DISK USED  *        50.44 MB (local),      462.48 GB (total)
 GA USED    *         0.00 MB       (max)       0.00 MB       (current)
 **********************************************************************************************************************************


 PROGRAM * RHF-SCF (CLOSED SHELL)       Authors: W. Meyer, H.-J. Werner


 NUMBER OF ELECTRONS:      10+   10-    SPACE SYMMETRY=1    SPIN SYMMETRY: Singlet 
 CONVERGENCE THRESHOLDS:    1.00E-08 (Density)    1.00E-11 (Energy)
 MAX. NUMBER OF ITERATIONS:       60
 INTERPOLATION TYPE:            DIIS
 INTERPOLATION STEPS:              2 (START)      1 (STEP)
 LEVEL SHIFTS:                  0.00 (CLOSED)  0.00 (OPEN) 



 Orbital guess generated from atomic densities. Full valence occupancy:   16

 Molecular orbital dump at record        2100.2

 Initial occupancy:  10

 ITERATION    DDIFF          GRAD             ENERGY        2-EL.EN.            DIPOLE MOMENTS         DIIS   ORB.
    1      0.000D+00      0.000D+00      -116.22122333    157.417114   -0.14354   -1.05285    0.47900    0    start
    2      0.000D+00      0.291D-02      -116.26540574    152.399084   -0.02214   -0.59331    0.27833    1    diag
    3      0.162D-02      0.172D-02      -116.27920621    154.489719   -0.05178   -0.71184    0.32923    2    diag
    4      0.561D-03      0.256D-03      -116.27987390    154.376159   -0.04908   -0.70191    0.32433    3    diag
    5      0.128D-03      0.755D-04      -116.27994497    154.372084   -0.04824   -0.70140    0.32411    4    diag
    6      0.525D-04      0.183D-04      -116.27994899    154.377727   -0.04797   -0.70063    0.32372    5    diag
    7      0.183D-04      0.376D-05      -116.27994924    154.376091   -0.04794   -0.70062    0.32370    6    diag
    8      0.529D-05      0.970D-06      -116.27994926    154.376281   -0.04790   -0.70056    0.32367    7    diag
    9      0.121D-05      0.229D-06      -116.27994926    154.376254   -0.04789   -0.70053    0.32366    8    diag
   10      0.327D-06      0.267D-07      -116.27994926    154.376254   -0.04788   -0.70053    0.32366    9    orth
   11      0.589D-07      0.610D-08      -116.27994926    154.376256   -0.04788   -0.70053    0.32366    9    diag
   12      0.640D-08      0.159D-08      -116.27994926    154.376256   -0.04788   -0.70053    0.32366    0    orth

 Final occupancy:  10

 !RHF STATE  1.1 Energy              -116.279949259881
 Nuclear energy                        35.86337232
 One-electron energy                 -229.33144940
 Two-electron energy                   77.18812782
 Virial quotient                       -1.00080666
 !RHF STATE  1.1 Dipole moment         -0.04788288    -0.70053184     0.32366043
 Dipole moment /Debye                  -0.12169817    -1.78045771     0.82260887

 Orbital energies:

         1.1          2.1          3.1          4.1          5.1          6.1          7.1          8.1          9.1         10.1
    -20.569525   -11.191067    -1.340492    -0.945851    -0.705495    -0.580683    -0.547068    -0.545431    -0.542536    -0.509448

        11.1         12.1
      0.019772     0.031387


 HOMO     10.1    -0.509448 =     -13.8628eV
 LUMO     11.1     0.019772 =       0.5380eV
 LUMO-HOMO         0.529220 =      14.4008eV


 **********************************************************************************************************************************
 DATASETS  * FILE   NREC   LENGTH (MB)   RECORD NAMES
              1      18       49.80       500      610      700      900      950      970     1000      129      960     1100   
                                          VAR    BASINP    GEOM    SYMINP    ZMAT    AOBASIS   BASIS     P2S    ABASIS      S 
                                         1400     1410     1200     1210     1080     1600     1650     1700   
                                           T        V       H0       H01     AOSYM     SMH    MOLCAS    OPER   

              2       4       13.79       700     1000      520     2100   
                                         GEOM     BASIS   MCVARS     RHF  

 PROGRAMS   *        TOTAL    HF-SCF       INT
 CPU TIMES  *      3191.56   1414.66   1776.70
 REAL TIME  *      4332.54 SEC
 DISK USED  *       102.61 MB (local),      462.69 GB (total)
 SF USED    *         2.16 MB
 GA USED    *         0.00 MB       (max)       0.00 MB       (current)
 **********************************************************************************************************************************

 Basis set:  JKFIT                   
 Basis size:  1104
 Attributes:
 Sphericals:   T
 Basis set:  MP2FIT                  
 Basis size:  1246
 Attributes:
 Sphericals:   T
 Basis set:  RI                      
 Basis size:   730
 Attributes:
 Sphericals:   T
 Basis set:  TDDFT                   
 Basis size:  1246
 Attributes:
 Sphericals:   T

 PROGRAM * CCSD (Closed-shell coupled cluster)     Authors: C. Hampel, H.-J. Werner, 1991, M. Deegan, P.J. Knowles, 1992

                                  CCSD-F12 implementation by  H.-J. Werner, 2007

                   Density fitting integral evaluation by F.R. Manby, 2003,2007, G. Knizia, 2010



 Convergence thresholds:  THRVAR = 1.00D-08  THRDEN = 1.00D-10

 CCSD(T)     terms to be evaluated (factor= 1.000)


 Number of core orbitals:           2 (   2 )
 Number of closed-shell orbitals:   8 (   8 )
 Number of external orbitals:     724 ( 724 )

 Molecular orbitals read from record     2100.2  Type=RHF/CANONICAL (state 1.1)

 MP2-F12 correlation treatment (H.-J. Werner, 2006)
 ==================================================

 Using MP2-F12 with ansatz 3C(FIX)

 Using projected zeroth-order Hamiltonian (+Z)

 FOCKRIB=T FOCKRIC=T FOCKRIP=T CABSP=T CABSA=T CABSK=T CABSF=T GBC=F EBC=F DMAT=T NOFIK=T NOPAO=1 SOLVE=-1  USEPAO=0
 EXCH_A= T EXCH_B= F EXCH_C= F EXCH_P= F

 Geminal basis:    OPTFULL  GEM_TYPE=SLATER  BETA=1.0  NGEM=6

 Optimizing Gaussian exponents for each gem_beta

 Geminal optimization for beta= 1.0000
 Weight function:   m=0, omega= 1.4646

 Augmented Hessian optimization of geminal fit. Trust ratio= 0.40000
 Convergence reached after   2 iterations. Final gradient= 8.53D-16, Step= 4.26D-06, Delta= 1.28D-09

 Alpha:                 0.19532     0.81920     2.85917     9.50073    35.69989   197.79328
 Coeff:                 0.27070     0.30552     0.18297     0.10986     0.06810     0.04224


 All pairs explicitly correlated. Number of r12-pairs:           36

 Excluding core orbitals from MO domains

 AO(A)-basis ORBITAL           loaded. Number of functions:     734
 RI(R)-basis RI                loaded. Number of functions:     730
 DF-basis JKFIT                loaded. Number of functions:    1104

 Screening thresholds:   THRAO=  1.00D-10  THRMO=  1.00D-09  THRPROD=  1.00D-09
                         THRSW=  1.00D-05  THROV=  1.00D-12  THRAOF12= 1.00D-10

 CPU time for Fock operators                      7.97 sec

 Construction of ABS:
 Smallest eigenvalue of S          2.24E-04  (threshold= 1.00E-08)
 Ratio eigmin/eigmax               3.90E-05  (threshold= 1.00E-09)
 Smallest eigenvalue of S kept     2.24E-04  (threshold= 2.24E-04, 0 functions deleted, 730 kept)

 Construction of CABS:
 Smallest eigenvalue of S          8.34E-09  (threshold= 1.00E-08)
 Ratio eigmin/eigmax               8.34E-09  (threshold= 1.00E-09)
 Smallest eigenvalue of S kept     7.34E-08  (threshold= 7.34E-08, 1 functions deleted, 729 kept)

 CPU time for CABS singles                        0.98 sec

 CABS-singles contribution of  -0.00007876 patched into reference energy.
 New reference energy        -116.28002802

 AO(A)-basis ORBITAL           loaded. Number of functions:     734
 RI(R)-basis RI                loaded. Number of functions:     730
 DF-basis MP2FIT               loaded. Number of functions:    1246

 Screening thresholds:   THRAO=  1.00D-10  THRMO=  1.00D-09  THRPROD=  1.00D-09
                         THRSW=  1.00D-05  THROV=  1.00D-12  THRAOF12= 1.00D-10

 CPU time for 3-index integral evaluation        24.28 sec
 CPU time for first  half transformation          2.94 sec (10207.0 MFLOP/sec)
 CPU time for second half transformation          0.08 sec ( 3031.4 MFLOP/sec)
 CPU time for sorting                             0.32 sec
 CPU time for fitting                             0.27 sec (34362.4 MFLOP/sec)
 CPU time for tilde quantities                    0.47 sec (29306.2 MFLOP/sec)
 CPU time for assembly                            3.72 sec (34238.0 MFLOP/sec)
 CPU time for tranop_f12                          4.78 sec (34908.8 MFLOP/sec)
 CPU time for f12 integrals (total)              43.63 sec, Elapsed time:     47.52 sec
 F12-matrices built in  4 passes.
 F12-matrices built in  4 passes.
 F12-matrices built in  4 passes.
 F12-matrices built in  4 passes.
 FC-matrix built in  4 passes.
 CPU time for f12 matrices (total)                3.92 sec, Elapsed time:      4.13 sec

 Diagonal F12 approximation with fixed coefficients:  TSING= 0.500,  TTRIP= 0.250 (scaled by -1/beta)

 DF-MP2-F12 energy corrections:
 ==============================
 Approx.                                    Singlet             Triplet             Total
 DF-MP2-F12/3*C(DX,FIX)                -0.011197278993     -0.000786403850     -0.011983682843
 DF-MP2-F12/3*C(FIX)                   -0.010388070686     -0.000515470219     -0.010903540904
 DF-MP2-F12/3C(FIX)                    -0.010501429581     -0.000530875577     -0.011032305158

 DF-MP2-F12 correlation energies:
 ================================
 Approx.                                    Singlet             Triplet             Ecorr            Total Energy
 DF-MP2                                -0.350549152442     -0.159805237143     -0.510354389584   -116.790382411632
 DF-MP2-F12/3*C(DX,FIX)                -0.361746431434     -0.160591640993     -0.522338072427   -116.802366094475
 DF-MP2-F12/3*C(FIX)                   -0.360937223127     -0.160320707361     -0.521257930489   -116.801285952536
 DF-MP2-F12/3C(FIX)                    -0.361050582022     -0.160336112719     -0.521386694742   -116.801414716789

 SCS-DF-MP2 energies (F_SING= 1.20000  F_TRIP= 0.62222  F_PARALLEL= 0.33333):
 ============================================================================
 SCS-DF-MP2                            -0.520093352708   -116.800121374755
 SCS-DF-MP2-F12/3*C(DX,FIX)            -0.534019405450   -116.814047427497
 SCS-DF-MP2-F12/3*C(FIX)               -0.532879774556   -116.812907796603
 SCS-DF-MP2-F12/3C(FIX)                -0.533025390786   -116.813053412833
 Symmetry transformation completed.

 Number of N-1 electron functions:               8
 Number of N-2 electron functions:              36
 Number of singly external CSFs:              5792
 Number of doubly external CSFs:          16776528
 Total number of CSFs:                    16782321

 Pair and operator lists are different

 Length of J-op  integral file:               1.47 GB
 Length of K-op  integral file:               2.18 GB
 Length of 3-ext integral record:             0.00 MB

 For full I/O caching in triples, increase memory by 34.16 Mwords to 4034.21 Mwords.

 Integral transformation finished. Total CPU:1053.25 sec, npass=  1  Memory used:1826.21 MW

 Reference energy:                   -116.28002802

 Adding F12 terms to K(Cij), methodcc=6,  factor= 1.0

 ITER.      SQ.NORM     CORR.ENERGY   TOTAL ENERGY   ENERGY CHANGE        DEN1      VAR(S)    VAR(P)  DIIS     TIME  TIME/IT
   1      1.13466087    -0.52225270  -116.80228072    -0.01188545     0.00011329  0.14D-02  0.20D-02  1  1  1408.62   309.28
   2      1.14296825    -0.52329845  -116.80332647    -0.00104575    -0.01026570  0.33D-04  0.25D-03  2  2  1698.08   307.73
   3      1.14622958    -0.52346601  -116.80349403    -0.00016756    -0.00236099  0.11D-04  0.14D-04  3  3  2005.42   313.47
   4      1.14719963    -0.52347167  -116.80349970    -0.00000566    -0.00053541  0.69D-06  0.13D-05  4  4  2307.80   315.22
   5      1.14736919    -0.52347363  -116.80350165    -0.00000196    -0.00004236  0.20D-06  0.94D-07  5  5  2608.63   315.89
   6      1.14741524    -0.52347091  -116.80349893     0.00000272    -0.00000814  0.23D-07  0.81D-08  6  6  2901.77   315.10
   7      1.14742614    -0.52346970  -116.80349772     0.00000121    -0.00000271  0.23D-08  0.10D-08  6  2  3204.73   316.04
   8      1.14742898    -0.52346947  -116.80349749     0.00000023    -0.00000036  0.32D-09  0.99D-10  6  1  3497.63   315.28
   9      1.14742985    -0.52346944  -116.80349746     0.00000003    -0.00000003  0.26D-10  0.16D-10  6  3  3794.42   315.07
  10      1.14742998    -0.52346944  -116.80349747    -0.00000001     0.00000010  0.26D-11  0.18D-11  6  4  4090.20   314.90
  11      1.14742995    -0.52346945  -116.80349747    -0.00000001     0.00000008  0.40D-12  0.24D-12  6  5  4393.01   315.46
  12      1.14742992    -0.52346945  -116.80349747    -0.00000000     0.00000002  0.87D-13  0.33D-13  6  6  4700.33   316.30
  13      1.14742990    -0.52346945  -116.80349747    -0.00000000     0.00000001  0.18D-13  0.45D-14  6  2  5006.40   316.90
  14      1.14742990    -0.52346945  -116.80349747    -0.00000000     0.00000000  0.30D-14  0.99D-15  6  1  5310.45   317.26
  15      1.14742989    -0.52346945  -116.80349747    -0.00000000    -0.00000000  0.42D-15  0.16D-15  6  3  5618.98   317.84
  16      1.14742989    -0.52346945  -116.80349747    -0.00000000    -0.00000000  0.78D-16  0.29D-16  6  4  5923.05   318.13
  17      1.14742989    -0.52346945  -116.80349747    -0.00000000    -0.00000000  0.27D-16  0.81D-17  6  5  6229.33   318.49

 Norm of t1 vector:      0.04971739      S-energy:    -0.00000000      T1 diagnostic:  0.00878888
                                                                       D1 diagnostic:  0.01919439

 Adding energy correction from Wij-K(Fij), methodcc=6  factor= 1.0

  CCSD correlation energy              -0.523469452864
  MP2-F12 correction (uncoupled)       -0.010850194049
  C*T doubles correction               -0.000161708747
  f12b correction                       0.002686371181

   CPU time for triples:   2086.01 sec for i =  1 -  6 /  8 (~  44.6 % done)
   CPU time for triples:   2782.67 sec for i =  7 -  8 /  8 (  100.0 % done)

 Total CPU time for triples:   4868.77 sec

  Ecorr(MP2)                           -0.510367253126
  Ecorr(MP2-F12)                       -0.521399558284
  Scale factor for triples energy       1.021616404834


 RESULTS
 =======

  Reference energy                   -116.279949259883
  F12 singles correction               -0.000078762164

 F12 singles corrections added to reference energy

  New reference energy               -116.280028022047

  F12a singlet correction              -0.010440439231
  F12a triplet correction              -0.000571463565
  F12a total correction                -0.011011902796

 F12a corrections for ansatz F12/3C(FIX) added to CCSD energy

  CCSD-F12a singlet pair energy        -0.387947059649
  CCSD-F12a triplet pair energy        -0.146534295729
  CCSD-F12a correlation energy         -0.534481355661

  Triples (T) contribution (scaled)    -0.017347264284
  Total correlation energy             -0.551828619945

  CCSD-F12a total energy             -116.814509377708
  CCSD[T]-F12a energy                -116.832417595802
  CCSD-T-F12a energy                 -116.831645067663
 !CCSD(T)-F12a total energy          -116.831856641992

 F12b corrections for ansatz F12/3C(FIX) added to CCSD(T)-F12a energy

  CCSD-F12b singlet pair energy        -0.385353428058
  CCSD-F12b triplet pair energy        -0.146441556139
  CCSD-F12b correlation energy         -0.531794984479

  Triples (T) contribution (scaled)    -0.017347264284
  Total correlation energy             -0.549142248763

  CCSD-F12b total energy             -116.811823006526
  CCSD[T]-F12b energy                -116.829731224621
  CCSD-T-F12b energy                 -116.828958696482
 !CCSD(T)-F12b total energy          -116.829170270810

 Timing summary (sec):

 STEP                 CPU(USER)    SYS     CPU(TOT)    WALL
 Transformation       1054.85     47.69   1102.54   1104.36
 CCSD iterations      5114.71    295.69   5410.40   5414.90
 Triples              4868.77     28.86   4897.63   4911.70
 MP2-F12                59.99      4.77     64.76     65.18
 F12b energy           284.34     14.14    298.48    299.03

 Program statistics:

 Available memory in ccsd:              3999999554
 Min. memory needed in ccsd:              48689265
 Max. memory used in ccsd:                63255345
 Max. memory used in cckext:              42753482 (18 integral passes)



 **********************************************************************************************************************************
 DATASETS  * FILE   NREC   LENGTH (MB)   RECORD NAMES
              1      19    12452.16       500      610      700      900      950      970     1000      129      960     1100   
                                          VAR    BASINP    GEOM    SYMINP    ZMAT    AOBASIS   BASIS     P2S    ABASIS      S 
                                         1400     1410     1200     1210     1080     1600     1650     1700     1380   
                                           T        V       H0       H01     AOSYM     SMH    MOLCAS    OPER     JKOP   

              2       6       24.60       700     1000      520     2100     7360     7350   
                                         GEOM     BASIS   MCVARS     RHF    F12ABS    EF12   

 PROGRAMS   *        TOTAL   CCSD(T)    HF-SCF       INT
 CPU TIMES  *     14574.37  11382.81   1414.66   1776.70
 REAL TIME  *     16130.36 SEC
 DISK USED  *        14.29 GB (local),      513.99 GB (total)
 SF USED    *        17.68 GB
 GA USED    *         4.87 MB       (max)       0.00 MB       (current)
 **********************************************************************************************************************************

 Running procedure: SET_MONOMER1

 Dummy atoms: C1  H41  H42  H43  H44


 Recomputing one-electron integrals since nuclear charges changed


 PROGRAM * SEWARD (Integral evaluation for generally contracted gaussian basis sets)     Author: Roland Lindh, 1990

 Geometry written to block  1 of record 700


 Point group  C1  



 ATOMIC COORDINATES

 NR  ATOM    CHARGE       X              Y              Z

   1  O2      8.00   -0.132091856   -0.427456049    5.428616238
   2  H3      1.00    1.200731980   -1.541827545    5.988353116
   3  H4      1.00   -1.735713445   -1.363059454    5.806183518
   4  C1      0.00   -6.193010455    2.801518980    2.403542658
   5  H41     0.00   -4.656285171    1.699997622    3.119937832
   6  H42     0.00   -5.973046335    4.726205038    2.982932688
   7  H43     0.00   -7.940251230    2.077186956    3.118237078
   8  H44     0.00   -6.176569838    2.685300823    0.384937212

 Bond lengths in Bohr (Angstrom)

 1-2  1.825253018  1-3  1.894601009  4-5  2.021904040  4-6  2.022002335  4-7  2.021953343
     ( 0.965882301)     ( 1.002579678)     ( 1.069945541)     ( 1.069997556)     ( 1.069971630)

 4-8  2.022015060
     ( 1.070004290)

 Bond angles

  2-1-3  104.80057086   5-4-6  109.53398059   5-4-7  109.65604535   5-4-8  108.43490854

  6-4-7  109.49436728   6-4-8  109.86987750   7-4-8  109.83468330

 NUCLEAR CHARGE:                   10
 NUMBER OF PRIMITIVE AOS:        1046
 NUMBER OF SYMMETRY AOS:          786
 NUMBER OF CONTRACTIONS:          734   (  734A   )
 NUMBER OF CORE ORBITALS:           1   (    1A   )
 NUMBER OF VALENCE ORBITALS:        6   (    6A   )

 MOLECULE CHANGED: INITIALIZING OCCUPATION AND DUMP RECORDS


 NUCLEAR REPULSION ENERGY    8.94474756

 Basis set:  JKFIT                   
 Basis size:  1104
 Attributes:
 Sphericals:   T
 Basis set:  MP2FIT                  
 Basis size:  1246
 Attributes:
 Sphericals:   T
 Basis set:  RI                      
 Basis size:   730
 Attributes:
 Sphericals:   T
 Basis set:  TDDFT                   
 Basis size:  1246
 Attributes:
 Sphericals:   T

 Eigenvalues of metric

         1 0.106E-05 0.206E-05 0.316E-05 0.466E-05 0.486E-05 0.663E-05 0.878E-05 0.902E-05


 Contracted 2-electron integrals neglected if value below      1.0D-14

 OPERATOR DM      FOR CENTER  0  COORDINATES:    0.000000    0.000000    0.000000


 **********************************************************************************************************************************
 DATASETS  * FILE   NREC   LENGTH (MB)   RECORD NAMES
              1      18       49.80       500      610      700      900      950      970     1000      129      960     1100   
                                          VAR    BASINP    GEOM    SYMINP    ZMAT    AOBASIS   BASIS     P2S    ABASIS      S 
                                         1400     1410     1200     1210     1080     1600     1650     1700   
                                           T        V       H0       H01     AOSYM     SMH    MOLCAS    OPER   

              2       7       24.63       700     1000      520     2100     7360     7350      200   
                                         GEOM     BASIS   MCVARS     RHF    F12ABS    EF12    OPTIONS    

 PROGRAMS   *        TOTAL       INT   CCSD(T)    HF-SCF       INT
 CPU TIMES  *     14574.91      0.53  11382.81   1414.66   1776.70
 REAL TIME  *     16133.08 SEC
 DISK USED  *        14.29 GB (local),      514.00 GB (total)
 SF USED    *        17.68 GB
 GA USED    *         4.87 MB       (max)       0.00 MB       (current)
 **********************************************************************************************************************************


 PROGRAM * RHF-SCF (CLOSED SHELL)       Authors: W. Meyer, H.-J. Werner


 NUMBER OF ELECTRONS:       5+    5-    SPACE SYMMETRY=1    SPIN SYMMETRY: Singlet 
 CONVERGENCE THRESHOLDS:    1.00E-08 (Density)    1.00E-11 (Energy)
 MAX. NUMBER OF ITERATIONS:       60
 INTERPOLATION TYPE:            DIIS
 INTERPOLATION STEPS:              2 (START)      1 (STEP)
 LEVEL SHIFTS:                  0.00 (CLOSED)  0.00 (OPEN) 



 Orbital guess generated from atomic densities. Full valence occupancy:    7

 Molecular orbital dump at record        2101.2

 Initial occupancy:   5

 ITERATION    DDIFF          GRAD             ENERGY        2-EL.EN.            DIPOLE MOMENTS         DIIS   ORB.
    1      0.000D+00      0.000D+00       -76.02451205     77.342084   -0.15113   -1.05020    0.47976    0    start
    2      0.000D+00      0.361D-02       -76.05141550     73.655231   -0.07564   -0.60569    0.27710    1    diag
    3      0.132D-02      0.231D-02       -76.06327400     75.298644   -0.09216   -0.71723    0.32803    2    diag
    4      0.501D-03      0.217D-03       -76.06347466     75.206648   -0.08923   -0.71258    0.32599    3    diag
    5      0.644D-04      0.617D-04       -76.06349723     75.221563   -0.08802   -0.71087    0.32524    4    diag
    6      0.213D-04      0.126D-04       -76.06349877     75.220407   -0.08764   -0.71046    0.32506    5    diag
    7      0.582D-05      0.261D-05       -76.06349885     75.220553   -0.08754   -0.71033    0.32500    6    diag
    8      0.158D-05      0.481D-06       -76.06349885     75.220539   -0.08752   -0.71029    0.32499    7    diag
    9      0.317D-06      0.668D-07       -76.06349885     75.220530   -0.08752   -0.71029    0.32498    8    diag
   10      0.529D-07      0.157D-07       -76.06349885     75.220532   -0.08752   -0.71029    0.32498    9    orth
   11      0.118D-07      0.372D-08       -76.06349885     75.220532   -0.08752   -0.71029    0.32498    9    diag
   12      0.233D-08      0.726D-09       -76.06349885     75.220532   -0.08752   -0.71029    0.32498    0    orth

 Final occupancy:   5

 !RHF STATE  1.1 Energy               -76.063498850830
 Nuclear energy                         8.94474756
 One-electron energy                 -122.61851240
 Two-electron energy                   37.61026599
 Virial quotient                       -1.00216251
 !RHF STATE  1.1 Dipole moment         -0.08752217    -0.71028685     0.32498459
 Dipole moment /Debye                  -0.22244460    -1.80525085     0.82597434

 Orbital energies:

         1.1          2.1          3.1          4.1          5.1          6.1          7.1
    -20.568453    -1.339228    -0.703882    -0.579114    -0.508312     0.017078     0.029633


 HOMO      5.1    -0.508312 =     -13.8319eV
 LUMO      6.1     0.017078 =       0.4647eV
 LUMO-HOMO         0.525390 =      14.2966eV


 **********************************************************************************************************************************
 DATASETS  * FILE   NREC   LENGTH (MB)   RECORD NAMES
              1      18       49.80       500      610      700      900      950      970     1000      129      960     1100   
                                          VAR    BASINP    GEOM    SYMINP    ZMAT    AOBASIS   BASIS     P2S    ABASIS      S 
                                         1400     1410     1200     1210     1080     1600     1650     1700   
                                           T        V       H0       H01     AOSYM     SMH    MOLCAS    OPER   

              2       8       38.40       700     1000      520     2100     7360     7350      200     2101   
                                         GEOM     BASIS   MCVARS     RHF    F12ABS    EF12    OPTIONS    RHF  

 PROGRAMS   *        TOTAL    HF-SCF       INT   CCSD(T)    HF-SCF       INT
 CPU TIMES  *     16396.40   1821.47      0.53  11382.81   1414.66   1776.70
 REAL TIME  *     18132.56 SEC
 DISK USED  *        14.29 GB (local),      514.00 GB (total)
 SF USED    *        17.68 GB
 GA USED    *         4.87 MB       (max)       0.00 MB       (current)
 **********************************************************************************************************************************

 Basis set:  JKFIT                   
 Basis size:  1104
 Attributes:
 Sphericals:   T
 Basis set:  MP2FIT                  
 Basis size:  1246
 Attributes:
 Sphericals:   T
 Basis set:  RI                      
 Basis size:   730
 Attributes:
 Sphericals:   T
 Basis set:  TDDFT                   
 Basis size:  1246
 Attributes:
 Sphericals:   T

 PROGRAM * CCSD (Closed-shell coupled cluster)     Authors: C. Hampel, H.-J. Werner, 1991, M. Deegan, P.J. Knowles, 1992

                                  CCSD-F12 implementation by  H.-J. Werner, 2007

                   Density fitting integral evaluation by F.R. Manby, 2003,2007, G. Knizia, 2010



 Convergence thresholds:  THRVAR = 1.00D-08  THRDEN = 1.00D-10

 CCSD(T)     terms to be evaluated (factor= 1.000)


 Number of core orbitals:           1 (   1 )
 Number of closed-shell orbitals:   4 (   4 )
 Number of external orbitals:     729 ( 729 )

 Molecular orbitals read from record     2101.2  Type=RHF/CANONICAL (state 1.1)

 MP2-F12 correlation treatment (H.-J. Werner, 2006)
 ==================================================

 Using MP2-F12 with ansatz 3C(FIX)

 Using projected zeroth-order Hamiltonian (+Z)

 FOCKRIB=T FOCKRIC=T FOCKRIP=T CABSP=T CABSA=T CABSK=T CABSF=T GBC=F EBC=F DMAT=T NOFIK=T NOPAO=1 SOLVE=-1  USEPAO=0
 EXCH_A= T EXCH_B= F EXCH_C= F EXCH_P= F

 Geminal basis:    OPTFULL  GEM_TYPE=SLATER  BETA=1.0  NGEM=6

 Optimizing Gaussian exponents for each gem_beta

 Geminal optimization for beta= 1.0000
 Weight function:   m=0, omega= 1.4646

 Augmented Hessian optimization of geminal fit. Trust ratio= 0.40000
 Convergence reached after   2 iterations. Final gradient= 8.53D-16, Step= 4.26D-06, Delta= 1.28D-09

 Alpha:                 0.19532     0.81920     2.85917     9.50073    35.69989   197.79328
 Coeff:                 0.27070     0.30552     0.18297     0.10986     0.06810     0.04224


 All pairs explicitly correlated. Number of r12-pairs:           10

 Excluding core orbitals from MO domains

 AO(A)-basis ORBITAL           loaded. Number of functions:     734
 RI(R)-basis RI                loaded. Number of functions:     730
 DF-basis JKFIT                loaded. Number of functions:    1104

 Screening thresholds:   THRAO=  1.00D-10  THRMO=  1.00D-09  THRPROD=  1.00D-09
                         THRSW=  1.00D-05  THROV=  1.00D-12  THRAOF12= 1.00D-10

 CPU time for Fock operators                      9.29 sec

 Construction of ABS:
 Smallest eigenvalue of S          2.24E-04  (threshold= 1.00E-08)
 Ratio eigmin/eigmax               3.90E-05  (threshold= 1.00E-09)
 Smallest eigenvalue of S kept     2.24E-04  (threshold= 2.24E-04, 0 functions deleted, 730 kept)

 Construction of CABS:
 Smallest eigenvalue of S          8.34E-09  (threshold= 1.00E-08)
 Ratio eigmin/eigmax               8.34E-09  (threshold= 1.00E-09)
 Smallest eigenvalue of S kept     7.34E-08  (threshold= 7.34E-08, 1 functions deleted, 729 kept)

 CPU time for CABS singles                        1.24 sec

 CABS-singles contribution of  -0.00003800 patched into reference energy.
 New reference energy         -76.06353685

 AO(A)-basis ORBITAL           loaded. Number of functions:     734
 RI(R)-basis RI                loaded. Number of functions:     730
 DF-basis MP2FIT               loaded. Number of functions:    1246

 Screening thresholds:   THRAO=  1.00D-10  THRMO=  1.00D-09  THRPROD=  1.00D-09
                         THRSW=  1.00D-05  THROV=  1.00D-12  THRAOF12= 1.00D-10

 CPU time for 3-index integral evaluation        28.64 sec
 CPU time for first  half transformation          3.76 sec ( 3929.9 MFLOP/sec)
 CPU time for second half transformation          0.06 sec (  975.2 MFLOP/sec)
 CPU time for sorting                             0.18 sec
 CPU time for fitting                             0.29 sec (23694.6 MFLOP/sec)
 CPU time for tilde quantities                    0.46 sec (24820.0 MFLOP/sec)
 CPU time for assembly                            1.50 sec (24094.4 MFLOP/sec)
 CPU time for tranop_f12                          1.84 sec (20173.4 MFLOP/sec)
 CPU time for f12 integrals (total)              39.71 sec, Elapsed time:     41.54 sec
 F12-matrices built in  4 passes.
 F12-matrices built in  4 passes.
 F12-matrices built in  4 passes.
 F12-matrices built in  4 passes.
 FC-matrix built in  4 passes.
 CPU time for f12 matrices (total)                1.35 sec, Elapsed time:      1.43 sec

 Diagonal F12 approximation with fixed coefficients:  TSING= 0.500,  TTRIP= 0.250 (scaled by -1/beta)

 DF-MP2-F12 energy corrections:
 ==============================
 Approx.                                    Singlet             Triplet             Total
 DF-MP2-F12/3*C(DX,FIX)                -0.007260560359     -0.000572281597     -0.007832841956
 DF-MP2-F12/3*C(FIX)                   -0.006614607627     -0.000353302633     -0.006967910260
 DF-MP2-F12/3C(FIX)                    -0.006681128711     -0.000365447071     -0.007046575783

 DF-MP2-F12 correlation energies:
 ================================
 Approx.                                    Singlet             Triplet             Ecorr            Total Energy
 DF-MP2                                -0.192498312376     -0.102446349241     -0.294944661616    -76.358481513234
 DF-MP2-F12/3*C(DX,FIX)                -0.199758872735     -0.103018630838     -0.302777503573    -76.366314355190
 DF-MP2-F12/3*C(FIX)                   -0.199112920003     -0.102799651873     -0.301912571876    -76.365449423494
 DF-MP2-F12/3C(FIX)                    -0.199179441087     -0.102811796312     -0.301991237399    -76.365528089016

 SCS-DF-MP2 energies (F_SING= 1.20000  F_TRIP= 0.62222  F_PARALLEL= 0.33333):
 ============================================================================
 SCS-DF-MP2                            -0.294742369934    -76.358279221551
 SCS-DF-MP2-F12/3*C(DX,FIX)            -0.303811128692    -76.367347980309
 SCS-DF-MP2-F12/3*C(FIX)               -0.302899731836    -76.366436583453
 SCS-DF-MP2-F12/3C(FIX)                -0.302987113676    -76.366523965294
 Symmetry transformation completed.

 Number of N-1 electron functions:               4
 Number of N-2 electron functions:              10
 Number of singly external CSFs:              2916
 Number of doubly external CSFs:           4252986
 Total number of CSFs:                     4255903

 Pair and operator lists are different

 Length of J-op  integral file:             411.24 MB
 Length of K-op  integral file:             721.80 MB
 Length of 3-ext integral record:             0.00 MB

 Memory could be reduced to 2535.14 Mwords without degradation in triples

 Integral transformation finished. Total CPU: 607.16 sec, npass=  1  Memory used:1009.99 MW

 Reference energy:                    -76.06353685

 Adding F12 terms to K(Cij), methodcc=6,  factor= 1.0

 ITER.      SQ.NORM     CORR.ENERGY   TOTAL ENERGY   ENERGY CHANGE        DEN1      VAR(S)    VAR(P)  DIIS     TIME  TIME/IT
   1      1.06408689    -0.29332304   -76.35685990     0.00162783     0.00777330  0.80D-03  0.11D-02  1  1   819.20   172.99
   2      1.06768382    -0.29341934   -76.35695619    -0.00009630    -0.00504291  0.16D-04  0.12D-03  2  2   979.01   174.22
   3      1.06906360    -0.29351584   -76.35705269    -0.00009650    -0.00097003  0.85D-05  0.75D-05  3  3  1138.10   174.40
   4      1.06959646    -0.29352170   -76.35705855    -0.00000586    -0.00028830  0.54D-06  0.75D-06  4  4  1295.26   174.16
   5      1.06970371    -0.29352046   -76.35705731     0.00000125    -0.00003133  0.17D-06  0.55D-07  5  5  1453.85   174.15
   6      1.06973895    -0.29351815   -76.35705500     0.00000231    -0.00000609  0.18D-07  0.45D-08  6  6  1611.98   174.04
   7      1.06974742    -0.29351761   -76.35705446     0.00000054    -0.00000130  0.13D-08  0.69D-09  6  2  1772.08   174.29
   8      1.06974925    -0.29351750   -76.35705435     0.00000011    -0.00000001  0.18D-09  0.70D-10  6  1  1930.87   174.33
   9      1.06974986    -0.29351746   -76.35705431     0.00000003     0.00000000  0.14D-10  0.85D-11  6  3  2089.58   174.32
  10      1.06974997    -0.29351746   -76.35705431     0.00000001     0.00000004  0.19D-11  0.90D-12  6  4  2250.08   174.51
  11      1.06974996    -0.29351746   -76.35705431    -0.00000000     0.00000003  0.38D-12  0.14D-12  6  5  2409.62   174.60
  12      1.06974995    -0.29351746   -76.35705431    -0.00000000     0.00000001  0.80D-13  0.21D-13  6  6  2566.95   174.47
  13      1.06974994    -0.29351746   -76.35705431    -0.00000000     0.00000000  0.12D-13  0.33D-14  6  2  2728.71   174.71
  14      1.06974993    -0.29351746   -76.35705431    -0.00000000     0.00000000  0.15D-14  0.70D-15  6  1  2886.33   174.65
  15      1.06974993    -0.29351746   -76.35705431    -0.00000000    -0.00000000  0.16D-15  0.98D-16  6  3  3045.78   174.64
  16      1.06974993    -0.29351746   -76.35705431    -0.00000000    -0.00000000  0.20D-16  0.13D-16  6  4  3204.43   174.59

 Norm of t1 vector:      0.03718522      S-energy:    -0.00000000      T1 diagnostic:  0.00929631
                                                                       D1 diagnostic:  0.01897082

 Adding energy correction from Wij-K(Fij), methodcc=6  factor= 1.0

  CCSD correlation energy              -0.293517461917
  MP2-F12 correction (uncoupled)       -0.006961601481
  C*T doubles correction               -0.000092796155
  f12b correction                       0.001584295146


 Total CPU time for triples:    682.47 sec

  Ecorr(MP2)                           -0.294950877146
  Ecorr(MP2-F12)                       -0.301997452929
  Scale factor for triples energy       1.023890675799


 RESULTS
 =======

  Reference energy                    -76.063498850832
  F12 singles correction               -0.000038000786

 F12 singles corrections added to reference energy

  New reference energy                -76.063536851617

  F12a singlet correction              -0.006655464517
  F12a triplet correction              -0.000398933119
  F12a total correction                -0.007054397636

 F12a corrections for ansatz F12/3C(FIX) added to CCSD energy

  CCSD-F12a singlet pair energy        -0.209747643303
  CCSD-F12a triplet pair energy        -0.090824216178
  CCSD-F12a correlation energy         -0.300571859553

  Triples (T) contribution (scaled)    -0.010116527441
  Total correlation energy             -0.310688386994

  CCSD-F12a total energy              -76.364108711170
  CCSD[T]-F12a energy                 -76.374548962016
  CCSD-T-F12a energy                  -76.374082976709
 !CCSD(T)-F12a total energy           -76.374225238612

 F12b corrections for ansatz F12/3C(FIX) added to CCSD(T)-F12a energy

  CCSD-F12b singlet pair energy        -0.208226661575
  CCSD-F12b triplet pair energy        -0.090760902761
  CCSD-F12b correlation energy         -0.298987564407

  Triples (T) contribution (scaled)    -0.010116527441
  Total correlation energy             -0.309104091848

  CCSD-F12b total energy              -76.362524416024
  CCSD[T]-F12b energy                 -76.372964666870
  CCSD-T-F12b energy                  -76.372498681563
 !CCSD(T)-F12b total energy           -76.372640943466

 Timing summary (sec):

 STEP                 CPU(USER)    SYS     CPU(TOT)    WALL
 Transformation        607.69     27.41    635.10    636.65
 CCSD iterations      2542.99    244.31   2787.30   2793.86
 Triples               682.48      6.22    688.70    690.26
 MP2-F12                53.94      2.34     56.28     56.41
 F12b energy           153.03     14.21    167.24    167.62

 Program statistics:

 Available memory in ccsd:              3999999871
 Min. memory needed in ccsd:              19260852
 Max. memory used in ccsd:                22423154
 Max. memory used in cckext:              14628952 (17 integral passes)



 **********************************************************************************************************************************
 DATASETS  * FILE   NREC   LENGTH (MB)   RECORD NAMES
              1      19     6330.34       500      610      700      900      950      970     1000      129      960     1100   
                                          VAR    BASINP    GEOM    SYMINP    ZMAT    AOBASIS   BASIS     P2S    ABASIS      S 
                                         1400     1410     1200     1210     1080     1600     1650     1700     1380   
                                           T        V       H0       H01     AOSYM     SMH    MOLCAS    OPER     JKOP   

              2       8       38.40       700     1000      520     2100     7360     7350      200     2101   
                                         GEOM     BASIS   MCVARS     RHF    F12ABS    EF12    OPTIONS    RHF  

 PROGRAMS   *        TOTAL   CCSD(T)    HF-SCF       INT   CCSD(T)    HF-SCF       INT
 CPU TIMES  *     20436.72   4040.31   1821.47      0.53  11382.81   1414.66   1776.70
 REAL TIME  *     22478.82 SEC
 DISK USED  *        14.29 GB (local),      514.00 GB (total)
 SF USED    *        17.68 GB
 GA USED    *         4.87 MB       (max)       0.00 MB       (current)
 **********************************************************************************************************************************

 Running procedure: SET_MONOMER2

 Dummy atoms: O2  H3  H4


 Recomputing one-electron integrals since nuclear charges changed


 PROGRAM * SEWARD (Integral evaluation for generally contracted gaussian basis sets)     Author: Roland Lindh, 1990

 Geometry written to block  1 of record 700


 Point group  C1  



 ATOMIC COORDINATES

 NR  ATOM    CHARGE       X              Y              Z

   1  O2      0.00   -0.132091856   -0.427456049    5.428616238
   2  H3      0.00    1.200731980   -1.541827545    5.988353116
   3  H4      0.00   -1.735713445   -1.363059454    5.806183518
   4  C1      6.00   -6.193010455    2.801518980    2.403542658
   5  H41     1.00   -4.656285171    1.699997622    3.119937832
   6  H42     1.00   -5.973046335    4.726205038    2.982932688
   7  H43     1.00   -7.940251230    2.077186956    3.118237078
   8  H44     1.00   -6.176569838    2.685300823    0.384937212

 Bond lengths in Bohr (Angstrom)

 1-2  1.825253018  1-3  1.894601009  4-5  2.021904040  4-6  2.022002335  4-7  2.021953343
     ( 0.965882301)     ( 1.002579678)     ( 1.069945541)     ( 1.069997556)     ( 1.069971630)

 4-8  2.022015060
     ( 1.070004290)

 Bond angles

  2-1-3  104.80057086   5-4-6  109.53398059   5-4-7  109.65604535   5-4-8  108.43490854

  6-4-7  109.49436728   6-4-8  109.86987750   7-4-8  109.83468330

 NUCLEAR CHARGE:                   10
 NUMBER OF PRIMITIVE AOS:        1046
 NUMBER OF SYMMETRY AOS:          786
 NUMBER OF CONTRACTIONS:          734   (  734A   )
 NUMBER OF CORE ORBITALS:           1   (    1A   )
 NUMBER OF VALENCE ORBITALS:        8   (    8A   )

 MOLECULE CHANGED: INITIALIZING OCCUPATION AND DUMP RECORDS


 NUCLEAR REPULSION ENERGY   13.68681606

 Basis set:  JKFIT                   
 Basis size:  1104
 Attributes:
 Sphericals:   T
 Basis set:  MP2FIT                  
 Basis size:  1246
 Attributes:
 Sphericals:   T
 Basis set:  RI                      
 Basis size:   730
 Attributes:
 Sphericals:   T
 Basis set:  TDDFT                   
 Basis size:  1246
 Attributes:
 Sphericals:   T

 Eigenvalues of metric

         1 0.106E-05 0.206E-05 0.316E-05 0.466E-05 0.486E-05 0.663E-05 0.878E-05 0.902E-05


 Contracted 2-electron integrals neglected if value below      1.0D-14

 OPERATOR DM      FOR CENTER  0  COORDINATES:    0.000000    0.000000    0.000000


 **********************************************************************************************************************************
 DATASETS  * FILE   NREC   LENGTH (MB)   RECORD NAMES
              1      18       49.80       500      610      700      900      950      970     1000      129      960     1100   
                                          VAR    BASINP    GEOM    SYMINP    ZMAT    AOBASIS   BASIS     P2S    ABASIS      S 
                                         1400     1410     1200     1210     1080     1600     1650     1700   
                                           T        V       H0       H01     AOSYM     SMH    MOLCAS    OPER   

              2       8       38.40       700     1000      520     2100     7360     7350      200     2101   
                                         GEOM     BASIS   MCVARS     RHF    F12ABS    EF12    OPTIONS    RHF  

 PROGRAMS   *        TOTAL       INT   CCSD(T)    HF-SCF       INT   CCSD(T)    HF-SCF       INT
 CPU TIMES  *     20437.21      0.49   4040.31   1821.47      0.53  11382.81   1414.66   1776.70
 REAL TIME  *     22480.49 SEC
 DISK USED  *        14.29 GB (local),      514.00 GB (total)
 SF USED    *        17.68 GB
 GA USED    *         4.87 MB       (max)       0.00 MB       (current)
 **********************************************************************************************************************************


 PROGRAM * RHF-SCF (CLOSED SHELL)       Authors: W. Meyer, H.-J. Werner


 NUMBER OF ELECTRONS:       5+    5-    SPACE SYMMETRY=1    SPIN SYMMETRY: Singlet 
 CONVERGENCE THRESHOLDS:    1.00E-08 (Density)    1.00E-11 (Energy)
 MAX. NUMBER OF ITERATIONS:       60
 INTERPOLATION TYPE:            DIIS
 INTERPOLATION STEPS:              2 (START)      1 (STEP)
 LEVEL SHIFTS:                  0.00 (CLOSED)  0.00 (OPEN) 



 Orbital guess generated from atomic densities. Full valence occupancy:    9

 Molecular orbital dump at record        2102.2

 Initial occupancy:   5

 ITERATION    DDIFF          GRAD             ENERGY        2-EL.EN.            DIPOLE MOMENTS         DIIS   ORB.
    1      0.000D+00      0.000D+00       -40.19676553     53.509907    0.00410   -0.00276   -0.00131    0    start
    2      0.000D+00      0.198D-02       -40.21405772     52.218483    0.00128   -0.00087   -0.00039    1    diag
    3      0.953D-03      0.769D-03       -40.21634114     52.673989    0.00181   -0.00123   -0.00056    2    diag
    4      0.262D-03      0.192D-03       -40.21666146     52.619252    0.00161   -0.00110   -0.00049    3    diag
    5      0.103D-03      0.248D-04       -40.21666695     52.621410    0.00158   -0.00108   -0.00048    4    diag
    6      0.341D-04      0.204D-05       -40.21666699     52.621538    0.00158   -0.00108   -0.00048    5    diag
    7      0.563D-05      0.166D-06       -40.21666699     52.621500    0.00158   -0.00108   -0.00048    6    diag
    8      0.320D-06      0.136D-07       -40.21666699     52.621501    0.00158   -0.00108   -0.00048    7    diag
    9      0.576D-07      0.167D-08       -40.21666699     52.621501    0.00158   -0.00108   -0.00048    8    diag
   10      0.101D-07      0.465D-09       -40.21666699     52.621501    0.00158   -0.00108   -0.00048    9    orth
   11      0.109D-08      0.667D-10       -40.21666699     52.621501    0.00158   -0.00108   -0.00048    0    orth

 Final occupancy:   5

 !RHF STATE  1.1 Energy               -40.216666990393
 Nuclear energy                        13.68681606
 One-electron energy                  -80.21423347
 Two-electron energy                   26.31075042
 Virial quotient                       -0.99832810
 !RHF STATE  1.1 Dipole moment          0.00158073    -0.00107559    -0.00048103
 Dipole moment /Debye                   0.00401756    -0.00273371    -0.00122258

 Orbital energies:

         1.1          2.1          3.1          4.1          5.1          6.1          7.1
    -11.196017    -0.950605    -0.551931    -0.549996    -0.547818     0.020241     0.031629


 HOMO      5.1    -0.547818 =     -14.9069eV
 LUMO      6.1     0.020241 =       0.5508eV
 LUMO-HOMO         0.568058 =      15.4576eV


 **********************************************************************************************************************************
 DATASETS  * FILE   NREC   LENGTH (MB)   RECORD NAMES
              1      18       49.80       500      610      700      900      950      970     1000      129      960     1100   
                                          VAR    BASINP    GEOM    SYMINP    ZMAT    AOBASIS   BASIS     P2S    ABASIS      S 
                                         1400     1410     1200     1210     1080     1600     1650     1700   
                                           T        V       H0       H01     AOSYM     SMH    MOLCAS    OPER   

              2       9       62.49       700     1000      520     2100     7360     7350      200     2101     2102   
                                         GEOM     BASIS   MCVARS     RHF    F12ABS    EF12    OPTIONS    RHF      RHF  

 PROGRAMS   *        TOTAL    HF-SCF       INT   CCSD(T)    HF-SCF       INT   CCSD(T)    HF-SCF       INT
 CPU TIMES  *     22110.21   1672.99      0.49   4040.31   1821.47      0.53  11382.81   1414.66   1776.70
 REAL TIME  *     24323.23 SEC
 DISK USED  *        14.29 GB (local),      514.00 GB (total)
 SF USED    *        17.68 GB
 GA USED    *         4.87 MB       (max)       0.00 MB       (current)
 **********************************************************************************************************************************

 Basis set:  JKFIT                   
 Basis size:  1104
 Attributes:
 Sphericals:   T
 Basis set:  MP2FIT                  
 Basis size:  1246
 Attributes:
 Sphericals:   T
 Basis set:  RI                      
 Basis size:   730
 Attributes:
 Sphericals:   T
 Basis set:  TDDFT                   
 Basis size:  1246
 Attributes:
 Sphericals:   T

 PROGRAM * CCSD (Closed-shell coupled cluster)     Authors: C. Hampel, H.-J. Werner, 1991, M. Deegan, P.J. Knowles, 1992

                                  CCSD-F12 implementation by  H.-J. Werner, 2007

                   Density fitting integral evaluation by F.R. Manby, 2003,2007, G. Knizia, 2010



 Convergence thresholds:  THRVAR = 1.00D-08  THRDEN = 1.00D-10

 CCSD(T)     terms to be evaluated (factor= 1.000)


 Number of core orbitals:           1 (   1 )
 Number of closed-shell orbitals:   4 (   4 )
 Number of external orbitals:     729 ( 729 )

 Molecular orbitals read from record     2102.2  Type=RHF/CANONICAL (state 1.1)

 MP2-F12 correlation treatment (H.-J. Werner, 2006)
 ==================================================

 Using MP2-F12 with ansatz 3C(FIX)

 Using projected zeroth-order Hamiltonian (+Z)

 FOCKRIB=T FOCKRIC=T FOCKRIP=T CABSP=T CABSA=T CABSK=T CABSF=T GBC=F EBC=F DMAT=T NOFIK=T NOPAO=1 SOLVE=-1  USEPAO=0
 EXCH_A= T EXCH_B= F EXCH_C= F EXCH_P= F

 Geminal basis:    OPTFULL  GEM_TYPE=SLATER  BETA=1.0  NGEM=6

 Optimizing Gaussian exponents for each gem_beta

 Geminal optimization for beta= 1.0000
 Weight function:   m=0, omega= 1.4646

 Augmented Hessian optimization of geminal fit. Trust ratio= 0.40000
 Convergence reached after   2 iterations. Final gradient= 8.53D-16, Step= 4.26D-06, Delta= 1.28D-09

 Alpha:                 0.19532     0.81920     2.85917     9.50073    35.69989   197.79328
 Coeff:                 0.27070     0.30552     0.18297     0.10986     0.06810     0.04224


 All pairs explicitly correlated. Number of r12-pairs:           10

 Excluding core orbitals from MO domains

 AO(A)-basis ORBITAL           loaded. Number of functions:     734
 RI(R)-basis RI                loaded. Number of functions:     730
 DF-basis JKFIT                loaded. Number of functions:    1104

 Screening thresholds:   THRAO=  1.00D-10  THRMO=  1.00D-09  THRPROD=  1.00D-09
                         THRSW=  1.00D-05  THROV=  1.00D-12  THRAOF12= 1.00D-10

 CPU time for Fock operators                      9.64 sec

 Construction of ABS:
 Smallest eigenvalue of S          2.24E-04  (threshold= 1.00E-08)
 Ratio eigmin/eigmax               3.90E-05  (threshold= 1.00E-09)
 Smallest eigenvalue of S kept     2.24E-04  (threshold= 2.24E-04, 0 functions deleted, 730 kept)

 Construction of CABS:
 Smallest eigenvalue of S          8.33E-09  (threshold= 1.00E-08)
 Ratio eigmin/eigmax               8.33E-09  (threshold= 1.00E-09)
 Smallest eigenvalue of S kept     7.34E-08  (threshold= 7.34E-08, 1 functions deleted, 729 kept)

 CPU time for CABS singles                        1.22 sec

 CABS-singles contribution of  -0.00004069 patched into reference energy.
 New reference energy         -40.21670768

 AO(A)-basis ORBITAL           loaded. Number of functions:     734
 RI(R)-basis RI                loaded. Number of functions:     730
 DF-basis MP2FIT               loaded. Number of functions:    1246

 Screening thresholds:   THRAO=  1.00D-10  THRMO=  1.00D-09  THRPROD=  1.00D-09
                         THRSW=  1.00D-05  THROV=  1.00D-12  THRAOF12= 1.00D-10

 CPU time for 3-index integral evaluation        29.13 sec
 CPU time for first  half transformation          3.43 sec ( 4276.8 MFLOP/sec)
 CPU time for second half transformation          0.04 sec ( 1470.9 MFLOP/sec)
 CPU time for sorting                             0.19 sec
 CPU time for fitting                             0.35 sec (26108.9 MFLOP/sec)
 CPU time for tilde quantities                    0.42 sec (21713.0 MFLOP/sec)
 CPU time for assembly                            1.43 sec (25273.9 MFLOP/sec)
 CPU time for tranop_f12                          1.72 sec (22985.3 MFLOP/sec)
 CPU time for f12 integrals (total)              39.54 sec, Elapsed time:     41.61 sec
 F12-matrices built in  4 passes.
 F12-matrices built in  4 passes.
 F12-matrices built in  4 passes.
 F12-matrices built in  4 passes.
 FC-matrix built in  4 passes.
 CPU time for f12 matrices (total)                1.39 sec, Elapsed time:      1.47 sec

 Diagonal F12 approximation with fixed coefficients:  TSING= 0.500,  TTRIP= 0.250 (scaled by -1/beta)

 DF-MP2-F12 energy corrections:
 ==============================
 Approx.                                    Singlet             Triplet             Total
 DF-MP2-F12/3*C(DX,FIX)                -0.003931990328     -0.000212924654     -0.004144914982
 DF-MP2-F12/3*C(FIX)                   -0.003768860417     -0.000160825159     -0.003929685576
 DF-MP2-F12/3C(FIX)                    -0.003815473164     -0.000163851558     -0.003979324722

 DF-MP2-F12 correlation energies:
 ================================
 Approx.                                    Singlet             Triplet             Ecorr            Total Energy
 DF-MP2                                -0.157871844951     -0.056825109353     -0.214696954304    -40.431404638503
 DF-MP2-F12/3*C(DX,FIX)                -0.161803835279     -0.057038034007     -0.218841869286    -40.435549553485
 DF-MP2-F12/3*C(FIX)                   -0.161640705368     -0.056985934512     -0.218626639880    -40.435334324079
 DF-MP2-F12/3C(FIX)                    -0.161687318115     -0.056988960911     -0.218676279026    -40.435383963225

 SCS-DF-MP2 energies (F_SING= 1.20000  F_TRIP= 0.62222  F_PARALLEL= 0.33333):
 ============================================================================
 SCS-DF-MP2                            -0.224804059761    -40.441511743960
 SCS-DF-MP2-F12/3*C(DX,FIX)            -0.229654934606    -40.446362618805
 SCS-DF-MP2-F12/3*C(FIX)               -0.229426761249    -40.446134445448
 SCS-DF-MP2-F12/3C(FIX)                -0.229484579638    -40.446192263837
 Symmetry transformation completed.

 Number of N-1 electron functions:               4
 Number of N-2 electron functions:              10
 Number of singly external CSFs:              2916
 Number of doubly external CSFs:           4252986
 Total number of CSFs:                     4255903

 Pair and operator lists are different

 Length of J-op  integral file:             411.24 MB
 Length of K-op  integral file:             721.80 MB
 Length of 3-ext integral record:             0.00 MB

 Memory could be reduced to 2535.14 Mwords without degradation in triples

 Integral transformation finished. Total CPU: 612.63 sec, npass=  1  Memory used:1009.99 MW

 Reference energy:                    -40.21670768

 Adding F12 terms to K(Cij), methodcc=6,  factor= 1.0

 ITER.      SQ.NORM     CORR.ENERGY   TOTAL ENERGY   ENERGY CHANGE        DEN1      VAR(S)    VAR(P)  DIIS     TIME  TIME/IT
   1      1.07033696    -0.22827407   -40.44498175    -0.01357042    -0.00771608  0.62D-03  0.94D-03  1  1   824.40   171.98
   2      1.07515871    -0.22923144   -40.44593913    -0.00095738    -0.00531238  0.16D-04  0.11D-03  2  2   982.10   172.59
   3      1.07694858    -0.22929880   -40.44600648    -0.00006736    -0.00133798  0.22D-05  0.64D-05  3  3  1140.63   173.10
   4      1.07735137    -0.22930123   -40.44600892    -0.00000243    -0.00021858  0.16D-06  0.39D-06  4  4  1299.44   173.39
   5      1.07740866    -0.22930480   -40.44601249    -0.00000357    -0.00000965  0.14D-07  0.24D-07  5  5  1457.50   173.51
   6      1.07741891    -0.22930346   -40.44601114     0.00000135    -0.00000404  0.89D-09  0.18D-08  6  6  1615.08   173.40
   7      1.07742043    -0.22930306   -40.44601075     0.00000039    -0.00000090  0.55D-10  0.13D-09  6  1  1775.74   173.76
   8      1.07742036    -0.22930312   -40.44601080    -0.00000006     0.00000024  0.61D-11  0.85D-11  6  3  1935.36   173.95
   9      1.07742050    -0.22930310   -40.44601079     0.00000002    -0.00000009  0.41D-12  0.59D-12  6  2  2098.41   174.26
  10      1.07742050    -0.22930310   -40.44601079     0.00000000     0.00000001  0.57D-13  0.63D-13  6  4  2257.97   174.23
  11      1.07742050    -0.22930310   -40.44601079     0.00000000    -0.00000000  0.58D-14  0.65D-14  6  5  2422.43   174.87
  12      1.07742050    -0.22930310   -40.44601078     0.00000000     0.00000000  0.17D-15  0.66D-15  6  6  2585.91   175.25
  13      1.07742050    -0.22930310   -40.44601078    -0.00000000     0.00000000  0.14D-16  0.75D-16  6  1  2751.91   175.76
  14      1.07742050    -0.22930310   -40.44601078    -0.00000000     0.00000000  0.25D-17  0.13D-16  6  3  2915.14   175.98

 Norm of t1 vector:      0.03268877      S-energy:     0.00000000      T1 diagnostic:  0.00817219
                                                                       D1 diagnostic:  0.01311228

 Adding energy correction from Wij-K(Fij), methodcc=6  factor= 1.0

  CCSD correlation energy              -0.229303100772
  MP2-F12 correction (uncoupled)       -0.003883248174
  C*T doubles correction               -0.000068337998
  f12b correction                       0.001099913490

 Total CPU time for triples:    685.29 sec

  Ecorr(MP2)                           -0.214703649867
  Ecorr(MP2-F12)                       -0.218682974588
  Scale factor for triples energy       1.018534033885


 RESULTS
 =======

  Reference energy                    -40.216666990392
  F12 singles correction               -0.000040693807

 F12 singles corrections added to reference energy

  New reference energy                -40.216707684199

  F12a singlet correction              -0.003780445281
  F12a triplet correction              -0.000171140891
  F12a total correction                -0.003951586172

 F12a corrections for ansatz F12/3C(FIX) added to CCSD energy

  CCSD-F12a singlet pair energy        -0.178096097317
  CCSD-F12a triplet pair energy        -0.055158589629
  CCSD-F12a correlation energy         -0.233254686943

  Triples (T) contribution (scaled)    -0.007109368836
  Total correlation energy             -0.240364055779

  CCSD-F12a total energy              -40.449962371143
  CCSD[T]-F12a energy                 -40.457307353830
  CCSD-T-F12a energy                  -40.457003898738
 !CCSD(T)-F12a total energy           -40.457071739978

 F12b corrections for ansatz F12/3C(FIX) added to CCSD(T)-F12a energy

  CCSD-F12b singlet pair energy        -0.177025304321
  CCSD-F12b triplet pair energy        -0.055129469135
  CCSD-F12b correlation energy         -0.232154773454

  Triples (T) contribution (scaled)    -0.007109368836
  Total correlation energy             -0.239264142290

  CCSD-F12b total energy              -40.448862457653
  CCSD[T]-F12b energy                 -40.456207440340
  CCSD-T-F12b energy                  -40.455903985248
 !CCSD(T)-F12b total energy           -40.455971826489

 Timing summary (sec):

 STEP                 CPU(USER)    SYS     CPU(TOT)    WALL
 Transformation        613.17     28.36    641.53    643.34
 CCSD iterations      2248.06    212.68   2460.74   2464.07
 Triples               685.29      5.71    691.00    691.07
 MP2-F12                54.12      2.51     56.63     56.86
 F12b energy           157.34     14.09    171.43    171.48

 Program statistics:

 Available memory in ccsd:              3999999866
 Min. memory needed in ccsd:              19260852
 Max. memory used in ccsd:                22423154
 Max. memory used in cckext:              14628952 (15 integral passes)



 **********************************************************************************************************************************
 DATASETS  * FILE   NREC   LENGTH (MB)   RECORD NAMES
              1      19     6330.34       500      610      700      900      950      970     1000      129      960     1100   
                                          VAR    BASINP    GEOM    SYMINP    ZMAT    AOBASIS   BASIS     P2S    ABASIS      S 
                                         1400     1410     1200     1210     1080     1600     1650     1700     1380   
                                           T        V       H0       H01     AOSYM     SMH    MOLCAS    OPER     JKOP   

              2       9       62.49       700     1000      520     2100     7360     7350      200     2101     2102   
                                         GEOM     BASIS   MCVARS     RHF    F12ABS    EF12    OPTIONS    RHF      RHF  

 PROGRAMS   *        TOTAL   CCSD(T)    HF-SCF       INT   CCSD(T)    HF-SCF       INT   CCSD(T)    HF-SCF       INT
 CPU TIMES  *     25869.06   3758.85   1672.99      0.49   4040.31   1821.47      0.53  11382.81   1414.66   1776.70
 REAL TIME  *     28352.19 SEC
 DISK USED  *        14.29 GB (local),      514.00 GB (total)
 SF USED    *        17.68 GB
 GA USED    *         4.87 MB       (max)       0.00 MB       (current)
 **********************************************************************************************************************************
 Molecular orbitals read from record     2102.2  Type=RHF/CANONICAL (state 1.1)
 Occupation numbers read from record     2102.2  Type=RHF/RHF (state 1.1)
 Orbital energies read from record       2102.2  Type=RHF/CANONICAL (state 1.1)
 Redundancy group numbers read from rec  2102.2  Type=RHF/RHF (state 1.1)

 CCSD(T)-F12/aug-cc-pV5Z energy=    -40.455971826489

     CCSD(T)-F12          HF-SCF     CCSD(T)-F12          HF-SCF     CCSD(T)-F12          HF-SCF
    -40.45597183    -40.21666699    -76.37264094    -76.06349885   -116.82917027   -116.27994926
 **********************************************************************************************************************************
 Molpro calculation terminated
