
 Primary working directories    : /scratch.ssd/kelum/job_380590.cerit-pbs.cerit-sc.cz/molpro.lCe6zIUh3G
 Secondary working directories  : /scratch.ssd/kelum/job_380590.cerit-pbs.cerit-sc.cz/molpro.lCe6zIUh3G
 Wavefunction directory         : /scratch.ssd/kelum/job_380590.cerit-pbs.cerit-sc.cz/
 Main file repository           : /scratch.ssd/kelum/job_380590.cerit-pbs.cerit-sc.cz/molpro.lCe6zIUh3G/

 id        : karlovklimes

 Nodes            nprocs
 elan7.cerit-sc.cz    4

 Using customized tuning parameters: mindgm=1; mindgv=20; mindgc=4; mindgr=1; noblas=0; minvec=7
 default implementation of scratch files=sf  


 Variables initialized (934), CPU time= 0.00 sec
                                                                                 !gdirect
 memory,4000,m
 gthresh,orbital=1d-10,energy=1d-10
 
 symmetry,nosym
 angstrom
 geometry={
 O4        -2.158000000000     -1.371300000000     -0.952200000000
 H7        -2.663200000000     -0.760300000000     -1.523700000000
 H8        -1.370200000000     -0.860500000000     -0.644400000000
 C1        -3.277200000000      1.482500000000      1.271900000000
 H41        -2.464000000000      0.899600000000      1.651000000000
 H42        -3.160800000000      2.501000000000      1.578500000000
 H43        -4.201800000000      1.099200000000      1.650100000000
 H44        -3.268500000000      1.421000000000      0.203700000000
 }
 
 nkerna=1
 nkernb=1
 
 gf=0
 sing=1
 thrdum=1d-4
 gridthr=1d-8
 
 basis={
 set,orbital
 default,av5z
 set,jkfit
 default,av5z/jkfit
 set,mp2fit
 default,av5z/mp2fit
 set,ri
 default,av5z/optri
 set,tddft
 default,av5z/mp2fit
 }
 
 proc set_monomer1
 dummy,4,5,6,7,8
 endproc
 
 proc set_monomer2
 dummy,1,2,3
 endproc
 
                                                                                 !12 energy
 {hf,accu=1.d-16}
 {ccsd(t)-f12,df_basis=mp2fit,df_basis_exch=jkfit,ri_basis=ri,scale_trip=1,THRAOF12=1d-10}
 
 set_monomer1
 {hf,accu=1.d-16}
 {ccsd(t)-f12,df_basis=mp2fit,df_basis_exch=jkfit,ri_basis=ri,scale_trip=1,THRAOF12=1d-10}
 
 set_monomer2
 {hf,accu=1.d-16}
 {ccsd(t)-f12,df_basis=mp2fit,df_basis_exch=jkfit,ri_basis=ri,scale_trip=1,THRAOF12=1d-10}
 
 Commands  initialized (763), CPU time= 0.01 sec, 617 directives.
 Default parameters read. Elapsed time= 0.38 sec

 Checking input...
 Passed
1


                                         ***  PROGRAM SYSTEM MOLPRO  ***
                                       Copyright, TTI GmbH Stuttgart, 2015
                                    Version 2019.2 linked Jun  8 2019 11:26:33


 **********************************************************************************************************************************
 LABEL *                                                                                 
  64 bit mpp version                                                                     DATE: 24-Mar-20          TIME: 09:19:26  
 **********************************************************************************************************************************

 SHA1:             8135a10abc80eafa5b3ae28ffc55be4890dc4c84
 **********************************************************************************************************************************

 THRESHOLDS:

 ZERO    =  1.00D-12  ONEINT  =  1.00D-12  TWOINT  =  1.00D-11  PREFAC  =  1.00D-14  XXXXXX  =  1.00D-09  EORDER  =  1.00D-04
 ENERGY  =  1.00D-10  ETEST   =  0.00D+00  EDENS   =  0.00D+00  THRDEDEF=  1.00D-06  GRADIENT=  1.00D-02  STEP    =  1.00D-03
 ORBITAL =  1.00D-10  CIVEC   =  1.00D-05  COEFF   =  1.00D-04  PRINTCI =  5.00D-02  PUNCHCI =  9.90D+01  OPTGRAD =  3.00D-04
 OPTENERG=  1.00D-06  OPTSTEP =  3.00D-04  THRGRAD =  1.00D-10  COMPRESS=  1.00D-11  VARMIN  =  1.00D-07  VARMAX  =  1.00D-03
 THRDOUB =  0.00D+00  THRDIV  =  1.00D-05  THRRED  =  1.00D-07  THRPSP  =  1.00D+00  THRDC   =  1.00D-10  THRCS   =  1.00D-10
 THRNRM  =  1.00D-08  THREQ   =  0.00D+00  THRDE   =  1.00D+00  THRREF  =  1.00D-05  SPARFAC =  1.00D+00  THRDLP  =  1.00D-07
 THRDIA  =  1.00D-10  THRDLS  =  1.00D-07  THRGPS  =  0.00D+00  THRKEX  =  0.00D+00  THRDIS  =  2.00D-01  THRVAR  =  1.00D-10
 THRLOC  =  1.00D-06  THRGAP  =  1.00D-06  THRLOCT = -1.00D+00  THRGAPT = -1.00D+00  THRORB  =  1.00D-06  THRMLTP =  0.00D+00
 THRCPQCI=  1.00D-10  KEXTA   =  0.00D+00  THRCOARS=  0.00D+00  SYMTOL  =  1.00D-06  GRADTOL =  1.00D-06  THROVL  =  1.00D-08
 THRORTH =  1.00D-08  GRID    =  1.00D-06  GRIDMAX =  1.00D-03  DTMAX   =  0.00D+00  THROCCDE=  1.00D-01  THROCCDE=  1.00D-01
 THRPRINT=  2.50D-01


 Variable memory set to 4000000000 words,  buffer space 

 ZSYMEL=NOSYM
 ZUNIT=ANG


Geometry recognized as XYZ

 SETTING NKERNA         =         1.00000000                                  
 SETTING NKERNB         =         1.00000000                                  
 SETTING GF             =     0.00000000D+00                                  
 SETTING SING           =         1.00000000                                  
 SETTING THRDUM         =     1.00000000D-04                                  
 SETTING GRIDTHR        =     1.00000000D-08                                  
 SETTING BASIS          =    AV5Z


 Recomputing integrals since basis changed


 Using spherical harmonics

 Library entry O      S aug-cc-pV5Z          selected for orbital group  1
 Library entry O      P aug-cc-pV5Z          selected for orbital group  1
 Library entry O      D aug-cc-pV5Z          selected for orbital group  1
 Library entry O      F aug-cc-pV5Z          selected for orbital group  1
 Library entry O      G aug-cc-pV5Z          selected for orbital group  1
 Library entry O      H aug-cc-pV5Z          selected for orbital group  1
 Library entry H      S aug-cc-pV5Z          selected for orbital group  2
 Library entry H      P aug-cc-pV5Z          selected for orbital group  2
 Library entry H      D aug-cc-pV5Z          selected for orbital group  2
 Library entry H      F aug-cc-pV5Z          selected for orbital group  2
 Library entry H      G aug-cc-pV5Z          selected for orbital group  2
 Library entry C      S aug-cc-pV5Z          selected for orbital group  3
 Library entry C      P aug-cc-pV5Z          selected for orbital group  3
 Library entry C      D aug-cc-pV5Z          selected for orbital group  3
 Library entry C      F aug-cc-pV5Z          selected for orbital group  3
 Library entry C      G aug-cc-pV5Z          selected for orbital group  3
 Library entry C      H aug-cc-pV5Z          selected for orbital group  3


 PROGRAM * SEWARD (Integral evaluation for generally contracted gaussian basis sets)     Author: Roland Lindh, 1990

 Geometry written to block  1 of record 700


 Point group  C1  



 ATOMIC COORDINATES

 NR  ATOM    CHARGE       X              Y              Z

   1  O4      8.00   -4.078028977   -2.591381435   -1.799397216
   2  H7      1.00   -5.032718615   -1.436758773   -2.879375696
   3  H8      1.00   -2.589302736   -1.626109330   -1.217739515
   4  C1      6.00   -6.193010455    2.801518980    2.403542658
   5  H41     1.00   -4.656285171    1.699997622    3.119937832
   6  H42     1.00   -5.973046335    4.726205038    2.982932688
   7  H43     1.00   -7.940251230    2.077186956    3.118237078
   8  H44     1.00   -6.176569838    2.685300823    0.384937212

 Bond lengths in Bohr (Angstrom)

 1-2  1.846872847  1-3  1.867185512  4-5  2.021904040  4-6  2.022002335  4-7  2.021953343
     ( 0.977323022)     ( 0.988072022)     ( 1.069945541)     ( 1.069997556)     ( 1.069971630)

 4-8  2.022015060
     ( 1.070004290)

 Bond angles

  2-1-3  105.73056797   5-4-6  109.53398059   5-4-7  109.65604535   5-4-8  108.43490854

  6-4-7  109.49436728   6-4-8  109.86987750   7-4-8  109.83468330

 NUCLEAR CHARGE:                   20
 NUMBER OF PRIMITIVE AOS:        1046
 NUMBER OF SYMMETRY AOS:          786
 NUMBER OF CONTRACTIONS:          734   (  734A   )
 NUMBER OF CORE ORBITALS:           2   (    2A   )
 NUMBER OF VALENCE ORBITALS:       14   (   14A   )


 NUCLEAR REPULSION ENERGY   36.73664214


 Basis set:  JKFIT                   
 Basis size:  1104
 Attributes:
 Sphericals:   T
 Basis set:  MP2FIT                  
 Basis size:  1246
 Attributes:
 Sphericals:   T
 Basis set:  RI                      
 Basis size:   730
 Attributes:
 Sphericals:   T
 Basis set:  TDDFT                   
 Basis size:  1246
 Attributes:
 Sphericals:   T

 **********************************************************************************************************************************


 Eigenvalues of metric

         1 0.186E-05 0.295E-05 0.353E-05 0.385E-05 0.515E-05 0.713E-05 0.773E-05 0.918E-05


 Contracted 2-electron integrals neglected if value below      1.0D-14
 AO integral compression algorithm  1   Integral accuracy      1.0D-14

     159848.595 MB (compressed) written to integral file ( 50.6%)

     Node minimum: 38614.860 MB, node maximum: 41374.450 MB


 NUMBER OF SORTED TWO-ELECTRON INTEGRALS: 9095363064.     BUFFER LENGTH:  32768
 NUMBER OF SEGMENTS: 190  SEGMENT LENGTH:   47999780      RECORD LENGTH: 131072

 Memory used in sort:      48.16 MW

 SORT1 READ 39471791889. AND WROTE  7195787178. INTEGRALS IN  82437 RECORDS. CPU TIME:  1208.52 SEC, REAL TIME:  1359.75 SEC
 SORT2 READ 28786904112. AND WROTE 36381317385. INTEGRALS IN 600960 RECORDS. CPU TIME:   135.97 SEC, REAL TIME:  1000.81 SEC

 Node minimum:  9095228192.  Node maximum:  9095430501. integrals

 OPERATOR DM      FOR CENTER  0  COORDINATES:    0.000000    0.000000    0.000000


 **********************************************************************************************************************************
 DATASETS  * FILE   NREC   LENGTH (MB)   RECORD NAMES
              1      18       49.80       500      610      700      900      950      970     1000      129      960     1100   
                                          VAR    BASINP    GEOM    SYMINP    ZMAT    AOBASIS   BASIS     P2S    ABASIS      S 
                                         1400     1410     1200     1210     1080     1600     1650     1700   
                                           T        V       H0       H01     AOSYM     SMH    MOLCAS    OPER   

 PROGRAMS   *        TOTAL       INT
 CPU TIMES  *      2019.03   2018.83
 REAL TIME  *      3077.76 SEC
 DISK USED  *        50.44 MB (local),      505.13 GB (total)
 GA USED    *         0.00 MB       (max)       0.00 MB       (current)
 **********************************************************************************************************************************


 PROGRAM * RHF-SCF (CLOSED SHELL)       Authors: W. Meyer, H.-J. Werner


 NUMBER OF ELECTRONS:      10+   10-    SPACE SYMMETRY=1    SPIN SYMMETRY: Singlet 
 CONVERGENCE THRESHOLDS:    1.00E-08 (Density)    1.00E-11 (Energy)
 MAX. NUMBER OF ITERATIONS:       60
 INTERPOLATION TYPE:            DIIS
 INTERPOLATION STEPS:              2 (START)      1 (STEP)
 LEVEL SHIFTS:                  0.00 (CLOSED)  0.00 (OPEN) 



 Orbital guess generated from atomic densities. Full valence occupancy:   16

 Molecular orbital dump at record        2100.2

 Initial occupancy:  10

 ITERATION    DDIFF          GRAD             ENERGY        2-EL.EN.            DIPOLE MOMENTS         DIIS   ORB.
    1      0.000D+00      0.000D+00      -116.22150747    158.931857    0.28057    1.08424   -0.25369    0    start
    2      0.000D+00      0.292D-02      -116.26582008    154.067092    0.13310    0.61350   -0.10917    1    diag
    3      0.161D-02      0.172D-02      -116.27957492    156.108555    0.17084    0.73387   -0.14761    2    diag
    4      0.557D-03      0.256D-03      -116.28024566    155.996079    0.16832    0.72333   -0.14658    3    diag
    5      0.125D-03      0.752D-04      -116.28031630    155.990742    0.16774    0.72314   -0.14625    4    diag
    6      0.517D-04      0.183D-04      -116.28032024    155.996437    0.16746    0.72242   -0.14608    5    diag
    7      0.183D-04      0.367D-05      -116.28032048    155.994703    0.16745    0.72245   -0.14610    6    diag
    8      0.539D-05      0.940D-06      -116.28032049    155.994887    0.16741    0.72239   -0.14608    7    diag
    9      0.120D-05      0.222D-06      -116.28032050    155.994860    0.16741    0.72237   -0.14607    8    diag
   10      0.293D-06      0.265D-07      -116.28032050    155.994861    0.16740    0.72237   -0.14607    9    orth
   11      0.619D-07      0.640D-08      -116.28032050    155.994862    0.16740    0.72237   -0.14607    9    diag
   12      0.493D-08      0.177D-08      -116.28032050    155.994862    0.16740    0.72237   -0.14607    0    orth

 Final occupancy:  10

 !RHF STATE  1.1 Energy              -116.280320495856
 Nuclear energy                        36.73664214
 One-electron energy                 -231.01439387
 Two-electron energy                   77.99743124
 Virial quotient                       -1.00078797
 !RHF STATE  1.1 Dipole moment          0.16740414     0.72236601    -0.14607173
 Dipole moment /Debye                   0.42547103     1.83595100    -0.37125299

 Orbital energies:

         1.1          2.1          3.1          4.1          5.1          6.1          7.1          8.1          9.1         10.1
    -20.566836   -11.199706    -1.338332    -0.954158    -0.705585    -0.577772    -0.555902    -0.553050    -0.551647    -0.506778

        11.1         12.1
      0.020125     0.033357


 HOMO     10.1    -0.506778 =     -13.7901eV
 LUMO     11.1     0.020125 =       0.5476eV
 LUMO-HOMO         0.526904 =      14.3378eV


 **********************************************************************************************************************************
 DATASETS  * FILE   NREC   LENGTH (MB)   RECORD NAMES
              1      18       49.80       500      610      700      900      950      970     1000      129      960     1100   
                                          VAR    BASINP    GEOM    SYMINP    ZMAT    AOBASIS   BASIS     P2S    ABASIS      S 
                                         1400     1410     1200     1210     1080     1600     1650     1700   
                                           T        V       H0       H01     AOSYM     SMH    MOLCAS    OPER   

              2       4       13.79       700     1000      520     2100   
                                         GEOM     BASIS   MCVARS     RHF  

 PROGRAMS   *        TOTAL    HF-SCF       INT
 CPU TIMES  *      3617.43   1598.40   2018.83
 REAL TIME  *      4956.50 SEC
 DISK USED  *       102.61 MB (local),      505.34 GB (total)
 SF USED    *         2.16 MB
 GA USED    *         0.00 MB       (max)       0.00 MB       (current)
 **********************************************************************************************************************************

 Basis set:  JKFIT                   
 Basis size:  1104
 Attributes:
 Sphericals:   T
 Basis set:  MP2FIT                  
 Basis size:  1246
 Attributes:
 Sphericals:   T
 Basis set:  RI                      
 Basis size:   730
 Attributes:
 Sphericals:   T
 Basis set:  TDDFT                   
 Basis size:  1246
 Attributes:
 Sphericals:   T

 PROGRAM * CCSD (Closed-shell coupled cluster)     Authors: C. Hampel, H.-J. Werner, 1991, M. Deegan, P.J. Knowles, 1992

                                  CCSD-F12 implementation by  H.-J. Werner, 2007

                   Density fitting integral evaluation by F.R. Manby, 2003,2007, G. Knizia, 2010



 Convergence thresholds:  THRVAR = 1.00D-08  THRDEN = 1.00D-10

 CCSD(T)     terms to be evaluated (factor= 1.000)


 Number of core orbitals:           2 (   2 )
 Number of closed-shell orbitals:   8 (   8 )
 Number of external orbitals:     724 ( 724 )

 Molecular orbitals read from record     2100.2  Type=RHF/CANONICAL (state 1.1)

 MP2-F12 correlation treatment (H.-J. Werner, 2006)
 ==================================================

 Using MP2-F12 with ansatz 3C(FIX)

 Using projected zeroth-order Hamiltonian (+Z)

 FOCKRIB=T FOCKRIC=T FOCKRIP=T CABSP=T CABSA=T CABSK=T CABSF=T GBC=F EBC=F DMAT=T NOFIK=T NOPAO=1 SOLVE=-1  USEPAO=0
 EXCH_A= T EXCH_B= F EXCH_C= F EXCH_P= F

 Geminal basis:    OPTFULL  GEM_TYPE=SLATER  BETA=1.0  NGEM=6

 Optimizing Gaussian exponents for each gem_beta

 Geminal optimization for beta= 1.0000
 Weight function:   m=0, omega= 1.4646

 Augmented Hessian optimization of geminal fit. Trust ratio= 0.40000
 Convergence reached after   2 iterations. Final gradient= 8.53D-16, Step= 4.26D-06, Delta= 1.28D-09

 Alpha:                 0.19532     0.81920     2.85917     9.50073    35.69989   197.79328
 Coeff:                 0.27070     0.30552     0.18297     0.10986     0.06810     0.04224


 All pairs explicitly correlated. Number of r12-pairs:           36

 Excluding core orbitals from MO domains

 AO(A)-basis ORBITAL           loaded. Number of functions:     734
 RI(R)-basis RI                loaded. Number of functions:     730
 DF-basis JKFIT                loaded. Number of functions:    1104

 Screening thresholds:   THRAO=  1.00D-10  THRMO=  1.00D-09  THRPROD=  1.00D-09
                         THRSW=  1.00D-05  THROV=  1.00D-12  THRAOF12= 1.00D-10

 CPU time for Fock operators                      9.41 sec

 Construction of ABS:
 Smallest eigenvalue of S          2.27E-04  (threshold= 1.00E-08)
 Ratio eigmin/eigmax               3.94E-05  (threshold= 1.00E-09)
 Smallest eigenvalue of S kept     2.27E-04  (threshold= 2.27E-04, 0 functions deleted, 730 kept)

 Construction of CABS:
 Smallest eigenvalue of S          9.96E-09  (threshold= 1.00E-08)
 Ratio eigmin/eigmax               9.96E-09  (threshold= 1.00E-09)
 Smallest eigenvalue of S kept     8.29E-08  (threshold= 8.29E-08, 1 functions deleted, 729 kept)

 CPU time for CABS singles                        1.18 sec

 CABS-singles contribution of  -0.00007884 patched into reference energy.
 New reference energy        -116.28039934

 AO(A)-basis ORBITAL           loaded. Number of functions:     734
 RI(R)-basis RI                loaded. Number of functions:     730
 DF-basis MP2FIT               loaded. Number of functions:    1246

 Screening thresholds:   THRAO=  1.00D-10  THRMO=  1.00D-09  THRPROD=  1.00D-09
                         THRSW=  1.00D-05  THROV=  1.00D-12  THRAOF12= 1.00D-10

 CPU time for 3-index integral evaluation        28.25 sec
 CPU time for first  half transformation          3.09 sec ( 9428.0 MFLOP/sec)
 CPU time for second half transformation          0.10 sec ( 2582.5 MFLOP/sec)
 CPU time for sorting                             0.31 sec
 CPU time for fitting                             0.36 sec (25771.8 MFLOP/sec)
 CPU time for tilde quantities                    0.49 sec (28110.0 MFLOP/sec)
 CPU time for assembly                            4.28 sec (30084.4 MFLOP/sec)
 CPU time for tranop_f12                          5.34 sec (31244.0 MFLOP/sec)
 CPU time for f12 integrals (total)              49.90 sec, Elapsed time:     54.50 sec
 F12-matrices built in  4 passes.
 F12-matrices built in  4 passes.
 F12-matrices built in  4 passes.
 F12-matrices built in  4 passes.
 FC-matrix built in  4 passes.
 CPU time for f12 matrices (total)                4.11 sec, Elapsed time:      4.32 sec

 Diagonal F12 approximation with fixed coefficients:  TSING= 0.500,  TTRIP= 0.250 (scaled by -1/beta)

 DF-MP2-F12 energy corrections:
 ==============================
 Approx.                                    Singlet             Triplet             Total
 DF-MP2-F12/3*C(DX,FIX)                -0.011197104376     -0.000787094666     -0.011984199041
 DF-MP2-F12/3*C(FIX)                   -0.010387854581     -0.000516459569     -0.010904314151
 DF-MP2-F12/3C(FIX)                    -0.010500501127     -0.000532008123     -0.011032509250

 DF-MP2-F12 correlation energies:
 ================================
 Approx.                                    Singlet             Triplet             Ecorr            Total Energy
 DF-MP2                                -0.350469261076     -0.159764008524     -0.510233269599   -116.790632609705
 DF-MP2-F12/3*C(DX,FIX)                -0.361666365451     -0.160551103189     -0.522217468640   -116.802616808746
 DF-MP2-F12/3*C(FIX)                   -0.360857115657     -0.160280468093     -0.521137583750   -116.801536923855
 DF-MP2-F12/3C(FIX)                    -0.360969762203     -0.160296016646     -0.521265778849   -116.801665118954

 SCS-DF-MP2 energies (F_SING= 1.20000  F_TRIP= 0.62222  F_PARALLEL= 0.33333):
 ============================================================================
 SCS-DF-MP2                            -0.519971829705   -116.800371169811
 SCS-DF-MP2-F12/3*C(DX,FIX)            -0.533898102748   -116.814297442854
 SCS-DF-MP2-F12/3*C(FIX)               -0.532758607824   -116.813157947929
 SCS-DF-MP2-F12/3C(FIX)                -0.532903458334   -116.813302798439
 Symmetry transformation completed.

 Number of N-1 electron functions:               8
 Number of N-2 electron functions:              36
 Number of singly external CSFs:              5792
 Number of doubly external CSFs:          16776528
 Total number of CSFs:                    16782321

 Pair and operator lists are different

 Length of J-op  integral file:               1.47 GB
 Length of K-op  integral file:               2.18 GB
 Length of 3-ext integral record:             0.00 MB

 For full I/O caching in triples, increase memory by 34.16 Mwords to 4034.21 Mwords.

 Integral transformation finished. Total CPU:1073.88 sec, npass=  1  Memory used:1826.21 MW

 Reference energy:                   -116.28039934

 Adding F12 terms to K(Cij), methodcc=6,  factor= 1.0

 ITER.      SQ.NORM     CORR.ENERGY   TOTAL ENERGY   ENERGY CHANGE        DEN1      VAR(S)    VAR(P)  DIIS     TIME  TIME/IT
   1      1.13458530    -0.52219839  -116.80259773    -0.01195230     0.00003282  0.14D-02  0.20D-02  1  1  1413.84   287.52
   2      1.14289299    -0.52325221  -116.80365155    -0.00105382    -0.01025730  0.33D-04  0.25D-03  2  2  1690.41   290.69
   3      1.14616050    -0.52341949  -116.80381883    -0.00016729    -0.00236095  0.12D-04  0.14D-04  3  3  1961.40   289.93
   4      1.14713265    -0.52342447  -116.80382381    -0.00000497    -0.00053620  0.68D-06  0.13D-05  4  4  2229.01   288.86
   5      1.14730430    -0.52342628  -116.80382562    -0.00000182    -0.00004310  0.21D-06  0.96D-07  5  5  2502.52   289.42
   6      1.14735105    -0.52342353  -116.80382287     0.00000276    -0.00000824  0.23D-07  0.85D-08  6  6  2780.03   290.45
   7      1.14736202    -0.52342230  -116.80382164     0.00000123    -0.00000271  0.25D-08  0.11D-08  6  2  3065.14   292.22
   8      1.14736489    -0.52342204  -116.80382138     0.00000026    -0.00000044  0.38D-09  0.12D-09  6  1  3339.01   292.17
   9      1.14736578    -0.52342201  -116.80382135     0.00000003    -0.00000000  0.38D-10  0.19D-10  6  3  3620.45   292.86
  10      1.14736596    -0.52342201  -116.80382135     0.00000000     0.00000007  0.41D-11  0.26D-11  6  4  3910.62   294.39
  11      1.14736593    -0.52342202  -116.80382136    -0.00000001     0.00000009  0.67D-12  0.33D-12  6  5  4190.50   294.63
  12      1.14736591    -0.52342202  -116.80382136    -0.00000000     0.00000002  0.13D-12  0.47D-13  6  6  4473.50   295.13
  13      1.14736589    -0.52342202  -116.80382136    -0.00000000     0.00000001  0.24D-13  0.67D-14  6  2  4758.40   295.75
  14      1.14736589    -0.52342202  -116.80382136    -0.00000000     0.00000000  0.38D-14  0.15D-14  6  1  5042.31   296.26
  15      1.14736588    -0.52342202  -116.80382136    -0.00000000    -0.00000000  0.48D-15  0.25D-15  6  3  5323.73   296.52
  16      1.14736588    -0.52342202  -116.80382136    -0.00000000    -0.00000000  0.81D-16  0.35D-16  6  4  5605.33   296.78
  17      1.14736588    -0.52342202  -116.80382136     0.00000000    -0.00000000  0.23D-16  0.70D-17  6  5  5887.55   297.05

 Norm of t1 vector:      0.05000977      S-energy:    -0.00000000      T1 diagnostic:  0.00884056
                                                                       D1 diagnostic:  0.01948861

 Adding energy correction from Wij-K(Fij), methodcc=6  factor= 1.0

  CCSD correlation energy              -0.523422023913
  MP2-F12 correction (uncoupled)       -0.010851544235
  C*T doubles correction               -0.000161356791
  f12b correction                       0.002686079104

   CPU time for triples:   1906.68 sec for i =  1 -  6 /  8 (~  44.6 % done)
   CPU time for triples:   2534.77 sec for i =  7 -  8 /  8 (  100.0 % done)

 Total CPU time for triples:   4441.54 sec

  Ecorr(MP2)                           -0.510246086668
  Ecorr(MP2-F12)                       -0.521278595917
  Scale factor for triples energy       1.021621937998


 RESULTS
 =======

  Reference energy                   -116.280320495860
  F12 singles correction               -0.000078844245

 F12 singles corrections added to reference energy

  New reference energy               -116.280399340105

  F12a singlet correction              -0.010440434478
  F12a triplet correction              -0.000572466548
  F12a total correction                -0.011012901026

 F12a corrections for ansatz F12/3C(FIX) added to CCSD energy

  CCSD-F12a singlet pair energy        -0.387864355770
  CCSD-F12a triplet pair energy        -0.146570568844
  CCSD-F12a correlation energy         -0.534434924939

  Triples (T) contribution (scaled)    -0.017353890123
  Total correlation energy             -0.551788815063

  CCSD-F12a total energy             -116.814834265045
  CCSD[T]-F12a energy                -116.832750257158
  CCSD-T-F12a energy                 -116.831976075227
 !CCSD(T)-F12a total energy          -116.832188155168

 F12b corrections for ansatz F12/3C(FIX) added to CCSD(T)-F12a energy

  CCSD-F12b singlet pair energy        -0.385271096214
  CCSD-F12b triplet pair energy        -0.146477749296
  CCSD-F12b correlation energy         -0.531748845835

  Triples (T) contribution (scaled)    -0.017353890123
  Total correlation energy             -0.549102735958

  CCSD-F12b total energy             -116.812148185940
  CCSD[T]-F12b energy                -116.830064178054
  CCSD-T-F12b energy                 -116.829289996123
 !CCSD(T)-F12b total energy          -116.829502076064

 Timing summary (sec):

 STEP                 CPU(USER)    SYS     CPU(TOT)    WALL
 Transformation       1075.43     50.81   1126.24   1128.73
 CCSD iterations      4743.99    302.32   5046.31   5050.52
 Triples              4441.54     28.98   4470.52   4480.29
 MP2-F12                68.35      5.49     73.84     74.48
 F12b energy           260.00     14.87    274.87    275.59

 Program statistics:

 Available memory in ccsd:              3999999554
 Min. memory needed in ccsd:              48689265
 Max. memory used in ccsd:                63255345
 Max. memory used in cckext:              42753482 (18 integral passes)



 **********************************************************************************************************************************
 DATASETS  * FILE   NREC   LENGTH (MB)   RECORD NAMES
              1      19    12452.16       500      610      700      900      950      970     1000      129      960     1100   
                                          VAR    BASINP    GEOM    SYMINP    ZMAT    AOBASIS   BASIS     P2S    ABASIS      S 
                                         1400     1410     1200     1210     1080     1600     1650     1700     1380   
                                           T        V       H0       H01     AOSYM     SMH    MOLCAS    OPER     JKOP   

              2       6       24.60       700     1000      520     2100     7360     7350   
                                         GEOM     BASIS   MCVARS     RHF    F12ABS    EF12   

 PROGRAMS   *        TOTAL   CCSD(T)    HF-SCF       INT
 CPU TIMES  *     14206.85  10589.41   1598.40   2018.83
 REAL TIME  *     15968.87 SEC
 DISK USED  *        14.29 GB (local),      556.65 GB (total)
 SF USED    *        17.68 GB
 GA USED    *         4.87 MB       (max)       0.00 MB       (current)
 **********************************************************************************************************************************

 Running procedure: SET_MONOMER1

 Dummy atoms: C1  H41  H42  H43  H44


 Recomputing one-electron integrals since nuclear charges changed


 PROGRAM * SEWARD (Integral evaluation for generally contracted gaussian basis sets)     Author: Roland Lindh, 1990

 Geometry written to block  1 of record 700


 Point group  C1  



 ATOMIC COORDINATES

 NR  ATOM    CHARGE       X              Y              Z

   1  O4      8.00   -4.078028977   -2.591381435   -1.799397216
   2  H7      1.00   -5.032718615   -1.436758773   -2.879375696
   3  H8      1.00   -2.589302736   -1.626109330   -1.217739515
   4  C1      0.00   -6.193010455    2.801518980    2.403542658
   5  H41     0.00   -4.656285171    1.699997622    3.119937832
   6  H42     0.00   -5.973046335    4.726205038    2.982932688
   7  H43     0.00   -7.940251230    2.077186956    3.118237078
   8  H44     0.00   -6.176569838    2.685300823    0.384937212

 Bond lengths in Bohr (Angstrom)

 1-2  1.846872847  1-3  1.867185512  4-5  2.021904040  4-6  2.022002335  4-7  2.021953343
     ( 0.977323022)     ( 0.988072022)     ( 1.069945541)     ( 1.069997556)     ( 1.069971630)

 4-8  2.022015060
     ( 1.070004290)

 Bond angles

  2-1-3  105.73056797   5-4-6  109.53398059   5-4-7  109.65604535   5-4-8  108.43490854

  6-4-7  109.49436728   6-4-8  109.86987750   7-4-8  109.83468330

 NUCLEAR CHARGE:                   10
 NUMBER OF PRIMITIVE AOS:        1046
 NUMBER OF SYMMETRY AOS:          786
 NUMBER OF CONTRACTIONS:          734   (  734A   )
 NUMBER OF CORE ORBITALS:           1   (    1A   )
 NUMBER OF VALENCE ORBITALS:        6   (    6A   )

 MOLECULE CHANGED: INITIALIZING OCCUPATION AND DUMP RECORDS


 NUCLEAR REPULSION ENERGY    8.95390023

 Basis set:  JKFIT                   
 Basis size:  1104
 Attributes:
 Sphericals:   T
 Basis set:  MP2FIT                  
 Basis size:  1246
 Attributes:
 Sphericals:   T
 Basis set:  RI                      
 Basis size:   730
 Attributes:
 Sphericals:   T
 Basis set:  TDDFT                   
 Basis size:  1246
 Attributes:
 Sphericals:   T

 Eigenvalues of metric

         1 0.186E-05 0.295E-05 0.353E-05 0.385E-05 0.515E-05 0.713E-05 0.773E-05 0.918E-05


 Contracted 2-electron integrals neglected if value below      1.0D-14

 OPERATOR DM      FOR CENTER  0  COORDINATES:    0.000000    0.000000    0.000000


 **********************************************************************************************************************************
 DATASETS  * FILE   NREC   LENGTH (MB)   RECORD NAMES
              1      18       49.80       500      610      700      900      950      970     1000      129      960     1100   
                                          VAR    BASINP    GEOM    SYMINP    ZMAT    AOBASIS   BASIS     P2S    ABASIS      S 
                                         1400     1410     1200     1210     1080     1600     1650     1700   
                                           T        V       H0       H01     AOSYM     SMH    MOLCAS    OPER   

              2       7       24.63       700     1000      520     2100     7360     7350      200   
                                         GEOM     BASIS   MCVARS     RHF    F12ABS    EF12    OPTIONS    

 PROGRAMS   *        TOTAL       INT   CCSD(T)    HF-SCF       INT
 CPU TIMES  *     14207.35      0.49  10589.41   1598.40   2018.83
 REAL TIME  *     15971.46 SEC
 DISK USED  *        14.29 GB (local),      556.65 GB (total)
 SF USED    *        17.68 GB
 GA USED    *         4.87 MB       (max)       0.00 MB       (current)
 **********************************************************************************************************************************


 PROGRAM * RHF-SCF (CLOSED SHELL)       Authors: W. Meyer, H.-J. Werner


 NUMBER OF ELECTRONS:       5+    5-    SPACE SYMMETRY=1    SPIN SYMMETRY: Singlet 
 CONVERGENCE THRESHOLDS:    1.00E-08 (Density)    1.00E-11 (Energy)
 MAX. NUMBER OF ITERATIONS:       60
 INTERPOLATION TYPE:            DIIS
 INTERPOLATION STEPS:              2 (START)      1 (STEP)
 LEVEL SHIFTS:                  0.00 (CLOSED)  0.00 (OPEN) 



 Orbital guess generated from atomic densities. Full valence occupancy:    7

 Molecular orbital dump at record        2101.2

 Initial occupancy:   5

 ITERATION    DDIFF          GRAD             ENERGY        2-EL.EN.            DIPOLE MOMENTS         DIIS   ORB.
    1      0.000D+00      0.000D+00       -76.02553474     77.358118    0.27715    1.08796   -0.25375    0    start
    2      0.000D+00      0.360D-02       -76.05229697     73.682508    0.15757    0.62960   -0.14867    1    diag
    3      0.130D-02      0.230D-02       -76.06402346     75.318467    0.18684    0.74405   -0.17529    2    diag
    4      0.495D-03      0.215D-03       -76.06422123     75.226634    0.18506    0.73923   -0.17453    3    diag
    5      0.619D-04      0.609D-04       -76.06424294     75.241282    0.18437    0.73744   -0.17426    4    diag
    6      0.196D-04      0.123D-04       -76.06424439     75.240165    0.18418    0.73701   -0.17421    5    diag
    7      0.526D-05      0.252D-05       -76.06424447     75.240313    0.18413    0.73688   -0.17419    6    diag
    8      0.139D-05      0.477D-06       -76.06424447     75.240301    0.18412    0.73684   -0.17418    7    diag
    9      0.263D-06      0.662D-07       -76.06424447     75.240291    0.18411    0.73683   -0.17418    8    diag
   10      0.461D-07      0.149D-07       -76.06424447     75.240294    0.18411    0.73683   -0.17418    9    orth
   11      0.946D-08      0.264D-08       -76.06424447     75.240293    0.18411    0.73683   -0.17418    0    orth

 Final occupancy:   5

 !RHF STATE  1.1 Energy               -76.064244468738
 Nuclear energy                         8.95390023
 One-electron energy                 -122.63829139
 Two-electron energy                   37.62014669
 Virial quotient                       -1.00214708
 !RHF STATE  1.1 Dipole moment          0.18411466     0.73683100    -0.17418174
 Dipole moment /Debye                   0.46794213     1.87271493    -0.44269682

 Orbital energies:

         1.1          2.1          3.1          4.1          5.1          6.1          7.1
    -20.567827    -1.339057    -0.706271    -0.577731    -0.508114     0.015345     0.031790


 HOMO      5.1    -0.508114 =     -13.8265eV
 LUMO      6.1     0.015345 =       0.4176eV
 LUMO-HOMO         0.523458 =      14.2440eV


 **********************************************************************************************************************************
 DATASETS  * FILE   NREC   LENGTH (MB)   RECORD NAMES
              1      18       49.80       500      610      700      900      950      970     1000      129      960     1100   
                                          VAR    BASINP    GEOM    SYMINP    ZMAT    AOBASIS   BASIS     P2S    ABASIS      S 
                                         1400     1410     1200     1210     1080     1600     1650     1700   
                                           T        V       H0       H01     AOSYM     SMH    MOLCAS    OPER   

              2       8       38.40       700     1000      520     2100     7360     7350      200     2101   
                                         GEOM     BASIS   MCVARS     RHF    F12ABS    EF12    OPTIONS    RHF  

 PROGRAMS   *        TOTAL    HF-SCF       INT   CCSD(T)    HF-SCF       INT
 CPU TIMES  *     15713.40   1506.05      0.49  10589.41   1598.40   2018.83
 REAL TIME  *     17645.56 SEC
 DISK USED  *        14.29 GB (local),      556.65 GB (total)
 SF USED    *        17.68 GB
 GA USED    *         4.87 MB       (max)       0.00 MB       (current)
 **********************************************************************************************************************************

 Basis set:  JKFIT                   
 Basis size:  1104
 Attributes:
 Sphericals:   T
 Basis set:  MP2FIT                  
 Basis size:  1246
 Attributes:
 Sphericals:   T
 Basis set:  RI                      
 Basis size:   730
 Attributes:
 Sphericals:   T
 Basis set:  TDDFT                   
 Basis size:  1246
 Attributes:
 Sphericals:   T

 PROGRAM * CCSD (Closed-shell coupled cluster)     Authors: C. Hampel, H.-J. Werner, 1991, M. Deegan, P.J. Knowles, 1992

                                  CCSD-F12 implementation by  H.-J. Werner, 2007

                   Density fitting integral evaluation by F.R. Manby, 2003,2007, G. Knizia, 2010



 Convergence thresholds:  THRVAR = 1.00D-08  THRDEN = 1.00D-10

 CCSD(T)     terms to be evaluated (factor= 1.000)


 Number of core orbitals:           1 (   1 )
 Number of closed-shell orbitals:   4 (   4 )
 Number of external orbitals:     729 ( 729 )

 Molecular orbitals read from record     2101.2  Type=RHF/CANONICAL (state 1.1)

 MP2-F12 correlation treatment (H.-J. Werner, 2006)
 ==================================================

 Using MP2-F12 with ansatz 3C(FIX)

 Using projected zeroth-order Hamiltonian (+Z)

 FOCKRIB=T FOCKRIC=T FOCKRIP=T CABSP=T CABSA=T CABSK=T CABSF=T GBC=F EBC=F DMAT=T NOFIK=T NOPAO=1 SOLVE=-1  USEPAO=0
 EXCH_A= T EXCH_B= F EXCH_C= F EXCH_P= F

 Geminal basis:    OPTFULL  GEM_TYPE=SLATER  BETA=1.0  NGEM=6

 Optimizing Gaussian exponents for each gem_beta

 Geminal optimization for beta= 1.0000
 Weight function:   m=0, omega= 1.4646

 Augmented Hessian optimization of geminal fit. Trust ratio= 0.40000
 Convergence reached after   2 iterations. Final gradient= 8.53D-16, Step= 4.26D-06, Delta= 1.28D-09

 Alpha:                 0.19532     0.81920     2.85917     9.50073    35.69989   197.79328
 Coeff:                 0.27070     0.30552     0.18297     0.10986     0.06810     0.04224


 All pairs explicitly correlated. Number of r12-pairs:           10

 Excluding core orbitals from MO domains

 AO(A)-basis ORBITAL           loaded. Number of functions:     734
 RI(R)-basis RI                loaded. Number of functions:     730
 DF-basis JKFIT                loaded. Number of functions:    1104

 Screening thresholds:   THRAO=  1.00D-10  THRMO=  1.00D-09  THRPROD=  1.00D-09
                         THRSW=  1.00D-05  THROV=  1.00D-12  THRAOF12= 1.00D-10

 CPU time for Fock operators                      9.14 sec

 Construction of ABS:
 Smallest eigenvalue of S          2.27E-04  (threshold= 1.00E-08)
 Ratio eigmin/eigmax               3.94E-05  (threshold= 1.00E-09)
 Smallest eigenvalue of S kept     2.27E-04  (threshold= 2.27E-04, 0 functions deleted, 730 kept)

 Construction of CABS:
 Smallest eigenvalue of S          9.96E-09  (threshold= 1.00E-08)
 Ratio eigmin/eigmax               9.96E-09  (threshold= 1.00E-09)
 Smallest eigenvalue of S kept     8.29E-08  (threshold= 8.29E-08, 1 functions deleted, 729 kept)

 CPU time for CABS singles                        1.14 sec

 CABS-singles contribution of  -0.00003795 patched into reference energy.
 New reference energy         -76.06428242

 AO(A)-basis ORBITAL           loaded. Number of functions:     734
 RI(R)-basis RI                loaded. Number of functions:     730
 DF-basis MP2FIT               loaded. Number of functions:    1246

 Screening thresholds:   THRAO=  1.00D-10  THRMO=  1.00D-09  THRPROD=  1.00D-09
                         THRSW=  1.00D-05  THROV=  1.00D-12  THRAOF12= 1.00D-10

 CPU time for 3-index integral evaluation        27.60 sec
 CPU time for first  half transformation          2.64 sec ( 5554.7 MFLOP/sec)
 CPU time for second half transformation          0.03 sec ( 2041.5 MFLOP/sec)
 CPU time for sorting                             0.17 sec
 CPU time for fitting                             0.36 sec (   86.3 MFLOP/sec)
 CPU time for tilde quantities                    0.48 sec (14257.3 MFLOP/sec)
 CPU time for assembly                            1.32 sec (29414.1 MFLOP/sec)
 CPU time for tranop_f12                          1.59 sec (26333.9 MFLOP/sec)
 CPU time for f12 integrals (total)              36.79 sec, Elapsed time:     38.55 sec
 F12-matrices built in  4 passes.
 F12-matrices built in  4 passes.
 F12-matrices built in  4 passes.
 F12-matrices built in  4 passes.
 FC-matrix built in  4 passes.
 CPU time for f12 matrices (total)                1.30 sec, Elapsed time:      1.33 sec

 Diagonal F12 approximation with fixed coefficients:  TSING= 0.500,  TTRIP= 0.250 (scaled by -1/beta)

 DF-MP2-F12 energy corrections:
 ==============================
 Approx.                                    Singlet             Triplet             Total
 DF-MP2-F12/3*C(DX,FIX)                -0.007258754543     -0.000572216819     -0.007830971362
 DF-MP2-F12/3*C(FIX)                   -0.006612719046     -0.000353283511     -0.006966002558
 DF-MP2-F12/3C(FIX)                    -0.006678169320     -0.000365464410     -0.007043633730

 DF-MP2-F12 correlation energies:
 ================================
 Approx.                                    Singlet             Triplet             Ecorr            Total Energy
 DF-MP2                                -0.192384645207     -0.102385331100     -0.294769976306    -76.359052394235
 DF-MP2-F12/3*C(DX,FIX)                -0.199643399749     -0.102957547919     -0.302600947668    -76.366883365597
 DF-MP2-F12/3*C(FIX)                   -0.198997364253     -0.102738614611     -0.301735978864    -76.366018396793
 DF-MP2-F12/3C(FIX)                    -0.199062814527     -0.102750795510     -0.301813610037    -76.366096027966

 SCS-DF-MP2 energies (F_SING= 1.20000  F_TRIP= 0.62222  F_PARALLEL= 0.33333):
 ============================================================================
 SCS-DF-MP2                            -0.294568002488    -76.358850420417
 SCS-DF-MP2-F12/3*C(DX,FIX)            -0.303634553960    -76.367916971889
 SCS-DF-MP2-F12/3*C(FIX)               -0.302723086195    -76.367005504124
 SCS-DF-MP2-F12/3C(FIX)                -0.302809205749    -76.367091623678
 Symmetry transformation completed.

 Number of N-1 electron functions:               4
 Number of N-2 electron functions:              10
 Number of singly external CSFs:              2916
 Number of doubly external CSFs:           4252986
 Total number of CSFs:                     4255903

 Pair and operator lists are different

 Length of J-op  integral file:             411.24 MB
 Length of K-op  integral file:             721.80 MB
 Length of 3-ext integral record:             0.00 MB

 Memory could be reduced to 2535.14 Mwords without degradation in triples

 Integral transformation finished. Total CPU: 560.45 sec, npass=  1  Memory used:1009.99 MW

 Reference energy:                    -76.06428242

 Adding F12 terms to K(Cij), methodcc=6,  factor= 1.0

 ITER.      SQ.NORM     CORR.ENERGY   TOTAL ENERGY   ENERGY CHANGE        DEN1      VAR(S)    VAR(P)  DIIS     TIME  TIME/IT
   1      1.06394884    -0.29316699   -76.35744941     0.00160920     0.00772400  0.80D-03  0.11D-02  1  1   757.04   159.90
   2      1.06752053    -0.29326267   -76.35754509    -0.00009568    -0.00502121  0.16D-04  0.12D-03  2  2   900.06   159.31
   3      1.06888315    -0.29335760   -76.35764002    -0.00009493    -0.00096168  0.84D-05  0.74D-05  3  3  1046.98   160.41
   4      1.06940767    -0.29336334   -76.35764575    -0.00000573    -0.00028504  0.54D-06  0.76D-06  4  4  1194.23   161.06
   5      1.06951433    -0.29336209   -76.35764451     0.00000124    -0.00003166  0.17D-06  0.58D-07  5  5  1342.18   161.42
   6      1.06954935    -0.29335984   -76.35764226     0.00000225    -0.00000597  0.20D-07  0.49D-08  6  6  1486.90   161.24
   7      1.06955802    -0.29335928   -76.35764169     0.00000057    -0.00000137  0.18D-08  0.90D-09  6  2  1634.71   161.61
   8      1.06956011    -0.29335914   -76.35764156     0.00000014    -0.00000010  0.26D-09  0.98D-10  6  1  1786.49   162.30
   9      1.06956059    -0.29335913   -76.35764155     0.00000001     0.00000010  0.51D-10  0.24D-10  6  2  1932.45   162.11
  10      1.06956095    -0.29335910   -76.35764152     0.00000002    -0.00000002  0.29D-11  0.15D-11  6  3  2081.60   162.41
  11      1.06956095    -0.29335911   -76.35764152    -0.00000000     0.00000004  0.54D-12  0.21D-12  6  4  2229.20   162.48
  12      1.06956095    -0.29335911   -76.35764152    -0.00000000     0.00000000  0.11D-12  0.29D-13  6  5  2374.91   162.40
  13      1.06956095    -0.29335911   -76.35764152    -0.00000000     0.00000000  0.18D-13  0.46D-14  6  6  2520.32   162.32
  14      1.06956095    -0.29335911   -76.35764152    -0.00000000     0.00000000  0.27D-14  0.11D-14  6  1  2665.04   162.19
  15      1.06956095    -0.29335911   -76.35764152    -0.00000000     0.00000000  0.35D-15  0.17D-15  6  2  2815.55   162.48
  16      1.06956094    -0.29335911   -76.35764152    -0.00000000     0.00000000  0.32D-16  0.20D-16  6  3  2960.42   162.37

 Norm of t1 vector:      0.03699310      S-energy:    -0.00000000      T1 diagnostic:  0.00924828
                                                                       D1 diagnostic:  0.01886046

 Adding energy correction from Wij-K(Fij), methodcc=6  factor= 1.0

  CCSD correlation energy              -0.293359106866
  MP2-F12 correction (uncoupled)       -0.006961260517
  C*T doubles correction               -0.000091534479
  f12b correction                       0.001583487829


 Total CPU time for triples:    623.81 sec

  Ecorr(MP2)                           -0.294776192342
  Ecorr(MP2-F12)                       -0.301819826073
  Scale factor for triples energy       1.023894852819


 RESULTS
 =======

  Reference energy                    -76.064244468739
  F12 singles correction               -0.000037949190

 F12 singles corrections added to reference energy

  New reference energy                -76.064282417929

  F12a singlet correction              -0.006653900136
  F12a triplet correction              -0.000398894860
  F12a total correction                -0.007052794996

 F12a corrections for ansatz F12/3C(FIX) added to CCSD energy

  CCSD-F12a singlet pair energy        -0.209604560942
  CCSD-F12a triplet pair energy        -0.090807340332
  CCSD-F12a correlation energy         -0.300411901861

  Triples (T) contribution (scaled)    -0.010093144070
  Total correlation energy             -0.310505045932

  CCSD-F12a total energy              -76.364694319790
  CCSD[T]-F12a energy                 -76.375108842163
  CCSD-T-F12a energy                  -76.374646429875
 !CCSD(T)-F12a total energy           -76.374787463861

 F12b corrections for ansatz F12/3C(FIX) added to CCSD(T)-F12a energy

  CCSD-F12b singlet pair energy        -0.208084388102
  CCSD-F12b triplet pair energy        -0.090744025343
  CCSD-F12b correlation energy         -0.298828414032

  Triples (T) contribution (scaled)    -0.010093144070
  Total correlation energy             -0.308921558103

  CCSD-F12b total energy              -76.363110831961
  CCSD[T]-F12b energy                 -76.373525354334
  CCSD-T-F12b energy                  -76.373062942046
 !CCSD(T)-F12b total energy           -76.373203976032

 Timing summary (sec):

 STEP                 CPU(USER)    SYS     CPU(TOT)    WALL
 Transformation        560.94     27.53    588.47    589.98
 CCSD iterations      2349.10    245.64   2594.74   2598.26
 Triples               623.81      5.99    629.80    630.34
 MP2-F12                50.55      2.25     52.80     52.90
 F12b energy           138.69     14.35    153.04    153.05

 Program statistics:

 Available memory in ccsd:              3999999871
 Min. memory needed in ccsd:              19260852
 Max. memory used in ccsd:                22423154
 Max. memory used in cckext:              14628952 (17 integral passes)



 **********************************************************************************************************************************
 DATASETS  * FILE   NREC   LENGTH (MB)   RECORD NAMES
              1      19     6330.34       500      610      700      900      950      970     1000      129      960     1100   
                                          VAR    BASINP    GEOM    SYMINP    ZMAT    AOBASIS   BASIS     P2S    ABASIS      S 
                                         1400     1410     1200     1210     1080     1600     1650     1700     1380   
                                           T        V       H0       H01     AOSYM     SMH    MOLCAS    OPER     JKOP   

              2       8       38.40       700     1000      520     2100     7360     7350      200     2101   
                                         GEOM     BASIS   MCVARS     RHF    F12ABS    EF12    OPTIONS    RHF  

 PROGRAMS   *        TOTAL   CCSD(T)    HF-SCF       INT   CCSD(T)    HF-SCF       INT
 CPU TIMES  *     19436.67   3723.26   1506.05      0.49  10589.41   1598.40   2018.83
 REAL TIME  *     21671.52 SEC
 DISK USED  *        14.29 GB (local),      556.65 GB (total)
 SF USED    *        17.68 GB
 GA USED    *         4.87 MB       (max)       0.00 MB       (current)
 **********************************************************************************************************************************

 Running procedure: SET_MONOMER2

 Dummy atoms: O4  H7  H8


 Recomputing one-electron integrals since nuclear charges changed


 PROGRAM * SEWARD (Integral evaluation for generally contracted gaussian basis sets)     Author: Roland Lindh, 1990

 Geometry written to block  1 of record 700


 Point group  C1  



 ATOMIC COORDINATES

 NR  ATOM    CHARGE       X              Y              Z

   1  O4      0.00   -4.078028977   -2.591381435   -1.799397216
   2  H7      0.00   -5.032718615   -1.436758773   -2.879375696
   3  H8      0.00   -2.589302736   -1.626109330   -1.217739515
   4  C1      6.00   -6.193010455    2.801518980    2.403542658
   5  H41     1.00   -4.656285171    1.699997622    3.119937832
   6  H42     1.00   -5.973046335    4.726205038    2.982932688
   7  H43     1.00   -7.940251230    2.077186956    3.118237078
   8  H44     1.00   -6.176569838    2.685300823    0.384937212

 Bond lengths in Bohr (Angstrom)

 1-2  1.846872847  1-3  1.867185512  4-5  2.021904040  4-6  2.022002335  4-7  2.021953343
     ( 0.977323022)     ( 0.988072022)     ( 1.069945541)     ( 1.069997556)     ( 1.069971630)

 4-8  2.022015060
     ( 1.070004290)

 Bond angles

  2-1-3  105.73056797   5-4-6  109.53398059   5-4-7  109.65604535   5-4-8  108.43490854

  6-4-7  109.49436728   6-4-8  109.86987750   7-4-8  109.83468330

 NUCLEAR CHARGE:                   10
 NUMBER OF PRIMITIVE AOS:        1046
 NUMBER OF SYMMETRY AOS:          786
 NUMBER OF CONTRACTIONS:          734   (  734A   )
 NUMBER OF CORE ORBITALS:           1   (    1A   )
 NUMBER OF VALENCE ORBITALS:        8   (    8A   )

 MOLECULE CHANGED: INITIALIZING OCCUPATION AND DUMP RECORDS


 NUCLEAR REPULSION ENERGY   13.68681606

 Basis set:  JKFIT                   
 Basis size:  1104
 Attributes:
 Sphericals:   T
 Basis set:  MP2FIT                  
 Basis size:  1246
 Attributes:
 Sphericals:   T
 Basis set:  RI                      
 Basis size:   730
 Attributes:
 Sphericals:   T
 Basis set:  TDDFT                   
 Basis size:  1246
 Attributes:
 Sphericals:   T

 Eigenvalues of metric

         1 0.186E-05 0.295E-05 0.353E-05 0.385E-05 0.515E-05 0.713E-05 0.773E-05 0.918E-05


 Contracted 2-electron integrals neglected if value below      1.0D-14

 OPERATOR DM      FOR CENTER  0  COORDINATES:    0.000000    0.000000    0.000000


 **********************************************************************************************************************************
 DATASETS  * FILE   NREC   LENGTH (MB)   RECORD NAMES
              1      18       49.80       500      610      700      900      950      970     1000      129      960     1100   
                                          VAR    BASINP    GEOM    SYMINP    ZMAT    AOBASIS   BASIS     P2S    ABASIS      S 
                                         1400     1410     1200     1210     1080     1600     1650     1700   
                                           T        V       H0       H01     AOSYM     SMH    MOLCAS    OPER   

              2       8       38.40       700     1000      520     2100     7360     7350      200     2101   
                                         GEOM     BASIS   MCVARS     RHF    F12ABS    EF12    OPTIONS    RHF  

 PROGRAMS   *        TOTAL       INT   CCSD(T)    HF-SCF       INT   CCSD(T)    HF-SCF       INT
 CPU TIMES  *     19437.26      0.58   3723.26   1506.05      0.49  10589.41   1598.40   2018.83
 REAL TIME  *     21673.24 SEC
 DISK USED  *        14.29 GB (local),      556.65 GB (total)
 SF USED    *        17.68 GB
 GA USED    *         4.87 MB       (max)       0.00 MB       (current)
 **********************************************************************************************************************************


 PROGRAM * RHF-SCF (CLOSED SHELL)       Authors: W. Meyer, H.-J. Werner


 NUMBER OF ELECTRONS:       5+    5-    SPACE SYMMETRY=1    SPIN SYMMETRY: Singlet 
 CONVERGENCE THRESHOLDS:    1.00E-08 (Density)    1.00E-11 (Energy)
 MAX. NUMBER OF ITERATIONS:       60
 INTERPOLATION TYPE:            DIIS
 INTERPOLATION STEPS:              2 (START)      1 (STEP)
 LEVEL SHIFTS:                  0.00 (CLOSED)  0.00 (OPEN) 



 Orbital guess generated from atomic densities. Full valence occupancy:    9

 Molecular orbital dump at record        2102.2

 Initial occupancy:   5

 ITERATION    DDIFF          GRAD             ENERGY        2-EL.EN.            DIPOLE MOMENTS         DIIS   ORB.
    1      0.000D+00      0.000D+00       -40.19676535     53.509904    0.00411   -0.00276   -0.00130    0    start
    2      0.000D+00      0.198D-02       -40.21405755     52.218480    0.00128   -0.00087   -0.00038    1    diag
    3      0.947D-03      0.769D-03       -40.21634098     52.673986    0.00182   -0.00123   -0.00055    2    diag
    4      0.259D-03      0.192D-03       -40.21666131     52.619249    0.00162   -0.00110   -0.00048    3    diag
    5      0.101D-03      0.248D-04       -40.21666679     52.621407    0.00159   -0.00108   -0.00047    4    diag
    6      0.347D-04      0.204D-05       -40.21666683     52.621535    0.00159   -0.00108   -0.00047    5    diag
    7      0.603D-05      0.166D-06       -40.21666683     52.621497    0.00159   -0.00108   -0.00047    6    diag
    8      0.346D-06      0.136D-07       -40.21666683     52.621498    0.00159   -0.00108   -0.00047    7    diag
    9      0.564D-07      0.167D-08       -40.21666683     52.621498    0.00159   -0.00108   -0.00047    8    diag
   10      0.105D-07      0.465D-09       -40.21666683     52.621498    0.00159   -0.00108   -0.00047    9    orth
   11      0.109D-08      0.667D-10       -40.21666683     52.621498    0.00159   -0.00108   -0.00047    0    orth

 Final occupancy:   5

 !RHF STATE  1.1 Energy               -40.216666834712
 Nuclear energy                        13.68681606
 One-electron energy                  -80.21423191
 Two-electron energy                   26.31074902
 Virial quotient                       -0.99832814
 !RHF STATE  1.1 Dipole moment          0.00158539    -0.00108023    -0.00047408
 Dipole moment /Debye                   0.00402939    -0.00274550    -0.00120492

 Orbital energies:

         1.1          2.1          3.1          4.1          5.1          6.1          7.1
    -11.196017    -0.950605    -0.551931    -0.549996    -0.547817     0.021686     0.033418


 HOMO      5.1    -0.547817 =     -14.9069eV
 LUMO      6.1     0.021686 =       0.5901eV
 LUMO-HOMO         0.569503 =      15.4970eV


 **********************************************************************************************************************************
 DATASETS  * FILE   NREC   LENGTH (MB)   RECORD NAMES
              1      18       49.80       500      610      700      900      950      970     1000      129      960     1100   
                                          VAR    BASINP    GEOM    SYMINP    ZMAT    AOBASIS   BASIS     P2S    ABASIS      S 
                                         1400     1410     1200     1210     1080     1600     1650     1700   
                                           T        V       H0       H01     AOSYM     SMH    MOLCAS    OPER   

              2       9       62.49       700     1000      520     2100     7360     7350      200     2101     2102   
                                         GEOM     BASIS   MCVARS     RHF    F12ABS    EF12    OPTIONS    RHF      RHF  

 PROGRAMS   *        TOTAL    HF-SCF       INT   CCSD(T)    HF-SCF       INT   CCSD(T)    HF-SCF       INT
 CPU TIMES  *     20995.99   1558.73      0.58   3723.26   1506.05      0.49  10589.41   1598.40   2018.83
 REAL TIME  *     23411.36 SEC
 DISK USED  *        14.29 GB (local),      556.65 GB (total)
 SF USED    *        17.68 GB
 GA USED    *         4.87 MB       (max)       0.00 MB       (current)
 **********************************************************************************************************************************

 Basis set:  JKFIT                   
 Basis size:  1104
 Attributes:
 Sphericals:   T
 Basis set:  MP2FIT                  
 Basis size:  1246
 Attributes:
 Sphericals:   T
 Basis set:  RI                      
 Basis size:   730
 Attributes:
 Sphericals:   T
 Basis set:  TDDFT                   
 Basis size:  1246
 Attributes:
 Sphericals:   T

 PROGRAM * CCSD (Closed-shell coupled cluster)     Authors: C. Hampel, H.-J. Werner, 1991, M. Deegan, P.J. Knowles, 1992

                                  CCSD-F12 implementation by  H.-J. Werner, 2007

                   Density fitting integral evaluation by F.R. Manby, 2003,2007, G. Knizia, 2010



 Convergence thresholds:  THRVAR = 1.00D-08  THRDEN = 1.00D-10

 CCSD(T)     terms to be evaluated (factor= 1.000)


 Number of core orbitals:           1 (   1 )
 Number of closed-shell orbitals:   4 (   4 )
 Number of external orbitals:     729 ( 729 )

 Molecular orbitals read from record     2102.2  Type=RHF/CANONICAL (state 1.1)

 MP2-F12 correlation treatment (H.-J. Werner, 2006)
 ==================================================

 Using MP2-F12 with ansatz 3C(FIX)

 Using projected zeroth-order Hamiltonian (+Z)

 FOCKRIB=T FOCKRIC=T FOCKRIP=T CABSP=T CABSA=T CABSK=T CABSF=T GBC=F EBC=F DMAT=T NOFIK=T NOPAO=1 SOLVE=-1  USEPAO=0
 EXCH_A= T EXCH_B= F EXCH_C= F EXCH_P= F

 Geminal basis:    OPTFULL  GEM_TYPE=SLATER  BETA=1.0  NGEM=6

 Optimizing Gaussian exponents for each gem_beta

 Geminal optimization for beta= 1.0000
 Weight function:   m=0, omega= 1.4646

 Augmented Hessian optimization of geminal fit. Trust ratio= 0.40000
 Convergence reached after   2 iterations. Final gradient= 8.53D-16, Step= 4.26D-06, Delta= 1.28D-09

 Alpha:                 0.19532     0.81920     2.85917     9.50073    35.69989   197.79328
 Coeff:                 0.27070     0.30552     0.18297     0.10986     0.06810     0.04224


 All pairs explicitly correlated. Number of r12-pairs:           10

 Excluding core orbitals from MO domains

 AO(A)-basis ORBITAL           loaded. Number of functions:     734
 RI(R)-basis RI                loaded. Number of functions:     730
 DF-basis JKFIT                loaded. Number of functions:    1104

 Screening thresholds:   THRAO=  1.00D-10  THRMO=  1.00D-09  THRPROD=  1.00D-09
                         THRSW=  1.00D-05  THROV=  1.00D-12  THRAOF12= 1.00D-10

 CPU time for Fock operators                      9.50 sec

 Construction of ABS:
 Smallest eigenvalue of S          2.27E-04  (threshold= 1.00E-08)
 Ratio eigmin/eigmax               3.94E-05  (threshold= 1.00E-09)
 Smallest eigenvalue of S kept     2.27E-04  (threshold= 2.27E-04, 0 functions deleted, 730 kept)

 Construction of CABS:
 Smallest eigenvalue of S          9.96E-09  (threshold= 1.00E-08)
 Ratio eigmin/eigmax               9.96E-09  (threshold= 1.00E-09)
 Smallest eigenvalue of S kept     8.29E-08  (threshold= 8.29E-08, 1 functions deleted, 729 kept)

 CPU time for CABS singles                        1.22 sec

 CABS-singles contribution of  -0.00004078 patched into reference energy.
 New reference energy         -40.21670762

 AO(A)-basis ORBITAL           loaded. Number of functions:     734
 RI(R)-basis RI                loaded. Number of functions:     730
 DF-basis MP2FIT               loaded. Number of functions:    1246

 Screening thresholds:   THRAO=  1.00D-10  THRMO=  1.00D-09  THRPROD=  1.00D-09
                         THRSW=  1.00D-05  THROV=  1.00D-12  THRAOF12= 1.00D-10

 CPU time for 3-index integral evaluation        29.92 sec
 CPU time for first  half transformation          2.35 sec ( 6123.4 MFLOP/sec)
 CPU time for second half transformation          0.04 sec ( 1594.2 MFLOP/sec)
 CPU time for sorting                             0.14 sec
 CPU time for fitting                             0.28 sec (24485.4 MFLOP/sec)
 CPU time for tilde quantities                    0.52 sec ( 8801.6 MFLOP/sec)
 CPU time for assembly                            1.46 sec (25674.2 MFLOP/sec)
 CPU time for tranop_f12                          1.75 sec (23922.5 MFLOP/sec)
 CPU time for f12 integrals (total)              39.19 sec, Elapsed time:     41.23 sec
 F12-matrices built in  4 passes.
 F12-matrices built in  4 passes.
 F12-matrices built in  4 passes.
 F12-matrices built in  4 passes.
 FC-matrix built in  4 passes.
 CPU time for f12 matrices (total)                1.39 sec, Elapsed time:      1.44 sec

 Diagonal F12 approximation with fixed coefficients:  TSING= 0.500,  TTRIP= 0.250 (scaled by -1/beta)

 DF-MP2-F12 energy corrections:
 ==============================
 Approx.                                    Singlet             Triplet             Total
 DF-MP2-F12/3*C(DX,FIX)                -0.003933623488     -0.000213049054     -0.004146672542
 DF-MP2-F12/3*C(FIX)                   -0.003770480563     -0.000160922542     -0.003931403105
 DF-MP2-F12/3C(FIX)                    -0.003817422973     -0.000163951915     -0.003981374887

 DF-MP2-F12 correlation energies:
 ================================
 Approx.                                    Singlet             Triplet             Ecorr            Total Energy
 DF-MP2                                -0.157869799126     -0.056824976141     -0.214694775267    -40.431402394838
 DF-MP2-F12/3*C(DX,FIX)                -0.161803422614     -0.057038025195     -0.218841447809    -40.435549067380
 DF-MP2-F12/3*C(FIX)                   -0.161640279689     -0.056985898684     -0.218626178373    -40.435333797943
 DF-MP2-F12/3C(FIX)                    -0.161687222099     -0.056988928056     -0.218676150155    -40.435383769725

 SCS-DF-MP2 energies (F_SING= 1.20000  F_TRIP= 0.62222  F_PARALLEL= 0.33333):
 ============================================================================
 SCS-DF-MP2                            -0.224801521884    -40.441509141454
 SCS-DF-MP2-F12/3*C(DX,FIX)            -0.229654433925    -40.446362053495
 SCS-DF-MP2-F12/3*C(FIX)               -0.229426228141    -40.446133847711
 SCS-DF-MP2-F12/3C(FIX)                -0.229484443976    -40.446192063546
 Symmetry transformation completed.

 Number of N-1 electron functions:               4
 Number of N-2 electron functions:              10
 Number of singly external CSFs:              2916
 Number of doubly external CSFs:           4252986
 Total number of CSFs:                     4255903

 Pair and operator lists are different

 Length of J-op  integral file:             411.24 MB
 Length of K-op  integral file:             721.80 MB
 Length of 3-ext integral record:             0.00 MB

 Memory could be reduced to 2535.14 Mwords without degradation in triples

 Integral transformation finished. Total CPU: 595.55 sec, npass=  1  Memory used:1009.99 MW

 Reference energy:                    -40.21670762

 Adding F12 terms to K(Cij), methodcc=6,  factor= 1.0

 ITER.      SQ.NORM     CORR.ENERGY   TOTAL ENERGY   ENERGY CHANGE        DEN1      VAR(S)    VAR(P)  DIIS     TIME  TIME/IT
   1      1.07033688    -0.22827283   -40.44498045    -0.01357134    -0.00771692  0.62D-03  0.94D-03  1  1   800.46   168.08
   2      1.07515866    -0.22922992   -40.44593754    -0.00095709    -0.00531229  0.16D-04  0.11D-03  2  2   952.44   168.08
   3      1.07694838    -0.22929728   -40.44600490    -0.00006735    -0.00133783  0.22D-05  0.64D-05  3  3  1104.59   168.32
   4      1.07735119    -0.22929972   -40.44600734    -0.00000244    -0.00021862  0.16D-06  0.39D-06  4  4  1258.08   168.69
   5      1.07740849    -0.22930329   -40.44601091    -0.00000357    -0.00000966  0.14D-07  0.24D-07  5  5  1411.05   168.84
   6      1.07741874    -0.22930195   -40.44600957     0.00000134    -0.00000403  0.90D-09  0.19D-08  6  6  1562.42   168.56
   7      1.07742027    -0.22930155   -40.44600917     0.00000040    -0.00000091  0.56D-10  0.13D-09  6  1  1715.46   168.65
   8      1.07742020    -0.22930161   -40.44600923    -0.00000006     0.00000024  0.62D-11  0.89D-11  6  3  1867.78   168.66
   9      1.07742034    -0.22930159   -40.44600921     0.00000002    -0.00000009  0.42D-12  0.62D-12  6  2  2020.16   168.65
  10      1.07742034    -0.22930159   -40.44600921     0.00000000     0.00000001  0.59D-13  0.65D-13  6  4  2172.02   168.59
  11      1.07742034    -0.22930159   -40.44600921     0.00000000    -0.00000000  0.60D-14  0.66D-14  6  5  2324.19   168.53
  12      1.07742034    -0.22930159   -40.44600921     0.00000000     0.00000000  0.17D-15  0.66D-15  6  6  2475.37   168.44
  13      1.07742034    -0.22930159   -40.44600921    -0.00000000     0.00000000  0.13D-16  0.71D-16  6  1  2626.35   168.35
  14      1.07742034    -0.22930159   -40.44600921    -0.00000000     0.00000000  0.18D-17  0.10D-16  6  3  2778.79   168.35

 Norm of t1 vector:      0.03268897      S-energy:     0.00000000      T1 diagnostic:  0.00817224
                                                                       D1 diagnostic:  0.01311247

 Adding energy correction from Wij-K(Fij), methodcc=6  factor= 1.0

  CCSD correlation energy              -0.229301589509
  MP2-F12 correction (uncoupled)       -0.003884274876
  C*T doubles correction               -0.000068961874
  f12b correction                       0.001100345451

 Total CPU time for triples:    652.71 sec

  Ecorr(MP2)                           -0.214701491731
  Ecorr(MP2-F12)                       -0.218682866618
  Scale factor for triples energy       1.018543769096


 RESULTS
 =======

  Reference energy                    -40.216666834713
  F12 singles correction               -0.000040784857

 F12 singles corrections added to reference energy

  New reference energy                -40.216707619570

  F12a singlet correction              -0.003781982329
  F12a triplet correction              -0.000171254420
  F12a total correction                -0.003953236749

 F12a corrections for ansatz F12/3C(FIX) added to CCSD energy

  CCSD-F12a singlet pair energy        -0.178096250220
  CCSD-F12a triplet pair energy        -0.055158576043
  CCSD-F12a correlation energy         -0.233254826258

  Triples (T) contribution (scaled)    -0.007109315084
  Total correlation energy             -0.240364141342

  CCSD-F12a total energy              -40.449962445828
  CCSD[T]-F12a energy                 -40.457307378418
  CCSD-T-F12a energy                  -40.457003917022
 !CCSD(T)-F12a total energy           -40.457071760913

 F12b corrections for ansatz F12/3C(FIX) added to CCSD(T)-F12a energy

  CCSD-F12b singlet pair energy        -0.177025043177
  CCSD-F12b triplet pair energy        -0.055129437636
  CCSD-F12b correlation energy         -0.232154480807

  Triples (T) contribution (scaled)    -0.007109315084
  Total correlation energy             -0.239263795892

  CCSD-F12b total energy              -40.448862100378
  CCSD[T]-F12b energy                 -40.456207032967
  CCSD-T-F12b energy                  -40.455903571571
 !CCSD(T)-F12b total energy           -40.455971415462

 Timing summary (sec):

 STEP                 CPU(USER)    SYS     CPU(TOT)    WALL
 Transformation        596.04     29.60    625.64    628.63
 CCSD iterations      2129.42    218.11   2347.53   2357.34
 Triples               652.71      5.76    658.47    661.29
 MP2-F12                53.53      2.20     55.73     56.16
 F12b energy           148.02     14.43    162.45    163.00

 Program statistics:

 Available memory in ccsd:              3999999866
 Min. memory needed in ccsd:              19260852
 Max. memory used in ccsd:                22423154
 Max. memory used in cckext:              14628952 (15 integral passes)



 **********************************************************************************************************************************
 DATASETS  * FILE   NREC   LENGTH (MB)   RECORD NAMES
              1      19     6330.34       500      610      700      900      950      970     1000      129      960     1100   
                                          VAR    BASINP    GEOM    SYMINP    ZMAT    AOBASIS   BASIS     P2S    ABASIS      S 
                                         1400     1410     1200     1210     1080     1600     1650     1700     1380   
                                           T        V       H0       H01     AOSYM     SMH    MOLCAS    OPER     JKOP   

              2       9       62.49       700     1000      520     2100     7360     7350      200     2101     2102   
                                         GEOM     BASIS   MCVARS     RHF    F12ABS    EF12    OPTIONS    RHF      RHF  

 PROGRAMS   *        TOTAL   CCSD(T)    HF-SCF       INT   CCSD(T)    HF-SCF       INT   CCSD(T)    HF-SCF       INT
 CPU TIMES  *     24575.97   3579.97   1558.73      0.58   3723.26   1506.05      0.49  10589.41   1598.40   2018.83
 REAL TIME  *     27279.24 SEC
 DISK USED  *        14.29 GB (local),      556.65 GB (total)
 SF USED    *        17.68 GB
 GA USED    *         4.87 MB       (max)       0.00 MB       (current)
 **********************************************************************************************************************************
 Molecular orbitals read from record     2102.2  Type=RHF/CANONICAL (state 1.1)
 Occupation numbers read from record     2102.2  Type=RHF/RHF (state 1.1)
 Orbital energies read from record       2102.2  Type=RHF/CANONICAL (state 1.1)
 Redundancy group numbers read from rec  2102.2  Type=RHF/RHF (state 1.1)

 CCSD(T)-F12/aug-cc-pV5Z energy=    -40.455971415462

     CCSD(T)-F12          HF-SCF     CCSD(T)-F12          HF-SCF     CCSD(T)-F12          HF-SCF
    -40.45597142    -40.21666683    -76.37320398    -76.06424447   -116.82950208   -116.28032050
 **********************************************************************************************************************************
 Molpro calculation terminated
