
 Primary working directories    : /scratch.ssd/kelum/job_380605.cerit-pbs.cerit-sc.cz/molpro.h2SDBMwj0c
 Secondary working directories  : /scratch.ssd/kelum/job_380605.cerit-pbs.cerit-sc.cz/molpro.h2SDBMwj0c
 Wavefunction directory         : /scratch.ssd/kelum/job_380605.cerit-pbs.cerit-sc.cz/
 Main file repository           : /scratch.ssd/kelum/job_380605.cerit-pbs.cerit-sc.cz/molpro.h2SDBMwj0c/

 id        : karlovklimes

 Nodes            nprocs
 elan1.cerit-sc.cz    4

 Using customized tuning parameters: mindgm=1; mindgv=20; mindgc=4; mindgr=1; noblas=0; minvec=7
 default implementation of scratch files=sf  


 Variables initialized (934), CPU time= 0.01 sec
                                                                                 !gdirect
 memory,4000,m
 gthresh,orbital=1d-10,energy=1d-10
 
 symmetry,nosym
 angstrom
 geometry={
 O7        -2.308700000000     -1.513700000000      3.385000000000
 H13        -2.780100000000     -1.810400000000      2.580800000000
 H14        -2.957300000000     -0.995700000000      3.906300000000
 C1        -3.277200000000      1.482500000000      1.271900000000
 H41        -2.464000000000      0.899600000000      1.651000000000
 H42        -3.160800000000      2.501000000000      1.578500000000
 H43        -4.201800000000      1.099200000000      1.650100000000
 H44        -3.268500000000      1.421000000000      0.203700000000
 }
 
 nkerna=1
 nkernb=1
 
 gf=0
 sing=1
 thrdum=1d-4
 gridthr=1d-8
 
 basis={
 set,orbital
 default,av5z
 set,jkfit
 default,av5z/jkfit
 set,mp2fit
 default,av5z/mp2fit
 set,ri
 default,av5z/optri
 set,tddft
 default,av5z/mp2fit
 }
 
 proc set_monomer1
 dummy,4,5,6,7,8
 endproc
 
 proc set_monomer2
 dummy,1,2,3
 endproc
 
                                                                                 !12 energy
 {hf,accu=1.d-16}
 {ccsd(t)-f12,df_basis=mp2fit,df_basis_exch=jkfit,ri_basis=ri,scale_trip=1,THRAOF12=1d-10}
 
 set_monomer1
 {hf,accu=1.d-16}
 {ccsd(t)-f12,df_basis=mp2fit,df_basis_exch=jkfit,ri_basis=ri,scale_trip=1,THRAOF12=1d-10}
 
 set_monomer2
 {hf,accu=1.d-16}
 {ccsd(t)-f12,df_basis=mp2fit,df_basis_exch=jkfit,ri_basis=ri,scale_trip=1,THRAOF12=1d-10}
 
 Commands  initialized (763), CPU time= 0.01 sec, 617 directives.
 Default parameters read. Elapsed time= 0.17 sec

 Checking input...
 Passed
1


                                         ***  PROGRAM SYSTEM MOLPRO  ***
                                       Copyright, TTI GmbH Stuttgart, 2015
                                    Version 2019.2 linked Jun  8 2019 11:26:33


 **********************************************************************************************************************************
 LABEL *                                                                                 
  64 bit mpp version                                                                     DATE: 24-Mar-20          TIME: 10:13:23  
 **********************************************************************************************************************************

 SHA1:             8135a10abc80eafa5b3ae28ffc55be4890dc4c84
 **********************************************************************************************************************************

 THRESHOLDS:

 ZERO    =  1.00D-12  ONEINT  =  1.00D-12  TWOINT  =  1.00D-11  PREFAC  =  1.00D-14  XXXXXX  =  1.00D-09  EORDER  =  1.00D-04
 ENERGY  =  1.00D-10  ETEST   =  0.00D+00  EDENS   =  0.00D+00  THRDEDEF=  1.00D-06  GRADIENT=  1.00D-02  STEP    =  1.00D-03
 ORBITAL =  1.00D-10  CIVEC   =  1.00D-05  COEFF   =  1.00D-04  PRINTCI =  5.00D-02  PUNCHCI =  9.90D+01  OPTGRAD =  3.00D-04
 OPTENERG=  1.00D-06  OPTSTEP =  3.00D-04  THRGRAD =  1.00D-10  COMPRESS=  1.00D-11  VARMIN  =  1.00D-07  VARMAX  =  1.00D-03
 THRDOUB =  0.00D+00  THRDIV  =  1.00D-05  THRRED  =  1.00D-07  THRPSP  =  1.00D+00  THRDC   =  1.00D-10  THRCS   =  1.00D-10
 THRNRM  =  1.00D-08  THREQ   =  0.00D+00  THRDE   =  1.00D+00  THRREF  =  1.00D-05  SPARFAC =  1.00D+00  THRDLP  =  1.00D-07
 THRDIA  =  1.00D-10  THRDLS  =  1.00D-07  THRGPS  =  0.00D+00  THRKEX  =  0.00D+00  THRDIS  =  2.00D-01  THRVAR  =  1.00D-10
 THRLOC  =  1.00D-06  THRGAP  =  1.00D-06  THRLOCT = -1.00D+00  THRGAPT = -1.00D+00  THRORB  =  1.00D-06  THRMLTP =  0.00D+00
 THRCPQCI=  1.00D-10  KEXTA   =  0.00D+00  THRCOARS=  0.00D+00  SYMTOL  =  1.00D-06  GRADTOL =  1.00D-06  THROVL  =  1.00D-08
 THRORTH =  1.00D-08  GRID    =  1.00D-06  GRIDMAX =  1.00D-03  DTMAX   =  0.00D+00  THROCCDE=  1.00D-01  THROCCDE=  1.00D-01
 THRPRINT=  2.50D-01


 Variable memory set to 4000000000 words,  buffer space 

 ZSYMEL=NOSYM
 ZUNIT=ANG


Geometry recognized as XYZ

 SETTING NKERNA         =         1.00000000                                  
 SETTING NKERNB         =         1.00000000                                  
 SETTING GF             =     0.00000000D+00                                  
 SETTING SING           =         1.00000000                                  
 SETTING THRDUM         =     1.00000000D-04                                  
 SETTING GRIDTHR        =     1.00000000D-08                                  
 SETTING BASIS          =    AV5Z


 Recomputing integrals since basis changed


 Using spherical harmonics

 Library entry O      S aug-cc-pV5Z          selected for orbital group  1
 Library entry O      P aug-cc-pV5Z          selected for orbital group  1
 Library entry O      D aug-cc-pV5Z          selected for orbital group  1
 Library entry O      F aug-cc-pV5Z          selected for orbital group  1
 Library entry O      G aug-cc-pV5Z          selected for orbital group  1
 Library entry O      H aug-cc-pV5Z          selected for orbital group  1
 Library entry H      S aug-cc-pV5Z          selected for orbital group  2
 Library entry H      P aug-cc-pV5Z          selected for orbital group  2
 Library entry H      D aug-cc-pV5Z          selected for orbital group  2
 Library entry H      F aug-cc-pV5Z          selected for orbital group  2
 Library entry H      G aug-cc-pV5Z          selected for orbital group  2
 Library entry C      S aug-cc-pV5Z          selected for orbital group  3
 Library entry C      P aug-cc-pV5Z          selected for orbital group  3
 Library entry C      D aug-cc-pV5Z          selected for orbital group  3
 Library entry C      F aug-cc-pV5Z          selected for orbital group  3
 Library entry C      G aug-cc-pV5Z          selected for orbital group  3
 Library entry C      H aug-cc-pV5Z          selected for orbital group  3


 PROGRAM * SEWARD (Integral evaluation for generally contracted gaussian basis sets)     Author: Roland Lindh, 1990

 Geometry written to block  1 of record 700


 Point group  C1  



 ATOMIC COORDINATES

 NR  ATOM    CHARGE       X              Y              Z

   1  O7      8.00   -4.362810704   -2.860478435    6.396722932
   2  H13     1.00   -5.253627599   -3.421160176    4.877005182
   3  H14     1.00   -5.588487068   -1.881600302    7.381837160
   4  C1      6.00   -6.193010455    2.801518980    2.403542658
   5  H41     1.00   -4.656285171    1.699997622    3.119937832
   6  H42     1.00   -5.973046335    4.726205038    2.982932688
   7  H43     1.00   -7.940251230    2.077186956    3.118237078
   8  H44     1.00   -6.176569838    2.685300823    0.384937212

 Bond lengths in Bohr (Angstrom)

 1-2  1.848637551  1-3  1.852278325  4-5  2.021904040  4-6  2.022002335  4-7  2.021953343
     ( 0.978256863)     ( 0.980183478)     ( 1.069945541)     ( 1.069997556)     ( 1.069971630)

 4-8  2.022015060
     ( 1.070004290)

 Bond angles

  2-1-3  106.17843926   5-4-6  109.53398059   5-4-7  109.65604535   5-4-8  108.43490854

  6-4-7  109.49436728   6-4-8  109.86987750   7-4-8  109.83468330

 NUCLEAR CHARGE:                   20
 NUMBER OF PRIMITIVE AOS:        1046
 NUMBER OF SYMMETRY AOS:          786
 NUMBER OF CONTRACTIONS:          734   (  734A   )
 NUMBER OF CORE ORBITALS:           2   (    2A   )
 NUMBER OF VALENCE ORBITALS:       14   (   14A   )


 NUCLEAR REPULSION ENERGY   36.78088270


 Basis set:  JKFIT                   
 Basis size:  1104
 Attributes:
 Sphericals:   T
 Basis set:  MP2FIT                  
 Basis size:  1246
 Attributes:
 Sphericals:   T
 Basis set:  RI                      
 Basis size:   730
 Attributes:
 Sphericals:   T
 Basis set:  TDDFT                   
 Basis size:  1246
 Attributes:
 Sphericals:   T

 **********************************************************************************************************************************


 Eigenvalues of metric

         1 0.188E-05 0.242E-05 0.350E-05 0.433E-05 0.478E-05 0.689E-05 0.805E-05 0.930E-05


 Contracted 2-electron integrals neglected if value below      1.0D-14
 AO integral compression algorithm  1   Integral accuracy      1.0D-14

     158861.885 MB (compressed) written to integral file ( 50.3%)

     Node minimum: 36559.913 MB, node maximum: 41323.856 MB


 NUMBER OF SORTED TWO-ELECTRON INTEGRALS: 9095363064.     BUFFER LENGTH:  32768
 NUMBER OF SEGMENTS: 190  SEGMENT LENGTH:   47999780      RECORD LENGTH: 131072

 Memory used in sort:      48.16 MW

 SORT1 READ 39471948705. AND WROTE  7171428523. INTEGRALS IN  82169 RECORDS. CPU TIME:  1198.27 SEC, REAL TIME:  1336.43 SEC
 SORT2 READ 28691789191. AND WROTE 36381317385. INTEGRALS IN 628820 RECORDS. CPU TIME:   179.12 SEC, REAL TIME:   883.92 SEC

 Node minimum:  9095228192.  Node maximum:  9095430501. integrals

 OPERATOR DM      FOR CENTER  0  COORDINATES:    0.000000    0.000000    0.000000


 **********************************************************************************************************************************
 DATASETS  * FILE   NREC   LENGTH (MB)   RECORD NAMES
              1      18       49.80       500      610      700      900      950      970     1000      129      960     1100   
                                          VAR    BASINP    GEOM    SYMINP    ZMAT    AOBASIS   BASIS     P2S    ABASIS      S 
                                         1400     1410     1200     1210     1080     1600     1650     1700   
                                           T        V       H0       H01     AOSYM     SMH    MOLCAS    OPER   

 PROGRAMS   *        TOTAL       INT
 CPU TIMES  *      2094.39   2094.19
 REAL TIME  *      2989.65 SEC
 DISK USED  *        50.44 MB (local),      503.07 GB (total)
 GA USED    *         0.00 MB       (max)       0.00 MB       (current)
 **********************************************************************************************************************************


 PROGRAM * RHF-SCF (CLOSED SHELL)       Authors: W. Meyer, H.-J. Werner


 NUMBER OF ELECTRONS:      10+   10-    SPACE SYMMETRY=1    SPIN SYMMETRY: Singlet 
 CONVERGENCE THRESHOLDS:    1.00E-08 (Density)    1.00E-11 (Energy)
 MAX. NUMBER OF ITERATIONS:       60
 INTERPOLATION TYPE:            DIIS
 INTERPOLATION STEPS:              2 (START)      1 (STEP)
 LEVEL SHIFTS:                  0.00 (CLOSED)  0.00 (OPEN) 



 Orbital guess generated from atomic densities. Full valence occupancy:   16

 Molecular orbital dump at record        2100.2

 Initial occupancy:  10

 ITERATION    DDIFF          GRAD             ENERGY        2-EL.EN.            DIPOLE MOMENTS         DIIS   ORB.
    1      0.000D+00      0.000D+00      -116.22336834    158.994391   -1.08132    0.20885   -0.27237    0    start
    2      0.000D+00      0.290D-02      -116.26714391    154.181586   -0.59313    0.13881   -0.16375    1    diag
    3      0.161D-02      0.170D-02      -116.28054419    156.195381   -0.71531    0.15442   -0.18972    2    diag
    4      0.551D-03      0.254D-03      -116.28120284    156.082840   -0.70414    0.15103   -0.18641    3    diag
    5      0.126D-03      0.745D-04      -116.28127211    156.077387   -0.70314    0.15121   -0.18639    4    diag
    6      0.524D-04      0.182D-04      -116.28127609    156.083024   -0.70216    0.15113   -0.18626    5    diag
    7      0.190D-04      0.373D-05      -116.28127633    156.081303   -0.70213    0.15115   -0.18627    6    diag
    8      0.561D-05      0.962D-06      -116.28127635    156.081487   -0.70205    0.15115   -0.18627    7    diag
    9      0.126D-05      0.224D-06      -116.28127635    156.081460   -0.70203    0.15115   -0.18626    8    diag
   10      0.320D-06      0.273D-07      -116.28127635    156.081461   -0.70203    0.15115   -0.18626    9    orth
   11      0.613D-07      0.667D-08      -116.28127635    156.081463   -0.70203    0.15115   -0.18626    9    diag
   12      0.548D-08      0.175D-08      -116.28127635    156.081462   -0.70203    0.15115   -0.18626    9    diag
   13      0.254D-08      0.452D-09      -116.28127635    156.081463   -0.70203    0.15115   -0.18626    0    orth

 Final occupancy:  10

 !RHF STATE  1.1 Energy              -116.281276354825
 Nuclear energy                        36.78088270
 One-electron energy                 -231.10289039
 Two-electron energy                   78.04073134
 Virial quotient                       -1.00068128
 !RHF STATE  1.1 Dipole moment         -0.70203106     0.15114937    -0.18626329
 Dipole moment /Debye                  -1.78426810     0.38415822    -0.47340305

 Orbital energies:

         1.1          2.1          3.1          4.1          5.1          6.1          7.1          8.1          9.1         10.1
    -20.566482   -11.198206    -1.340245    -0.953440    -0.708710    -0.577787    -0.554945    -0.553303    -0.550817    -0.506779

        11.1         12.1
      0.019610     0.031964


 HOMO     10.1    -0.506779 =     -13.7902eV
 LUMO     11.1     0.019610 =       0.5336eV
 LUMO-HOMO         0.526389 =      14.3238eV


 **********************************************************************************************************************************
 DATASETS  * FILE   NREC   LENGTH (MB)   RECORD NAMES
              1      18       49.80       500      610      700      900      950      970     1000      129      960     1100   
                                          VAR    BASINP    GEOM    SYMINP    ZMAT    AOBASIS   BASIS     P2S    ABASIS      S 
                                         1400     1410     1200     1210     1080     1600     1650     1700   
                                           T        V       H0       H01     AOSYM     SMH    MOLCAS    OPER   

              2       4       13.79       700     1000      520     2100   
                                         GEOM     BASIS   MCVARS     RHF  

 PROGRAMS   *        TOTAL    HF-SCF       INT
 CPU TIMES  *      3976.97   1882.57   2094.19
 REAL TIME  *      5104.69 SEC
 DISK USED  *       102.61 MB (local),      503.27 GB (total)
 SF USED    *         2.16 MB
 GA USED    *         0.00 MB       (max)       0.00 MB       (current)
 **********************************************************************************************************************************

 Basis set:  JKFIT                   
 Basis size:  1104
 Attributes:
 Sphericals:   T
 Basis set:  MP2FIT                  
 Basis size:  1246
 Attributes:
 Sphericals:   T
 Basis set:  RI                      
 Basis size:   730
 Attributes:
 Sphericals:   T
 Basis set:  TDDFT                   
 Basis size:  1246
 Attributes:
 Sphericals:   T

 PROGRAM * CCSD (Closed-shell coupled cluster)     Authors: C. Hampel, H.-J. Werner, 1991, M. Deegan, P.J. Knowles, 1992

                                  CCSD-F12 implementation by  H.-J. Werner, 2007

                   Density fitting integral evaluation by F.R. Manby, 2003,2007, G. Knizia, 2010



 Convergence thresholds:  THRVAR = 1.00D-08  THRDEN = 1.00D-10

 CCSD(T)     terms to be evaluated (factor= 1.000)


 Number of core orbitals:           2 (   2 )
 Number of closed-shell orbitals:   8 (   8 )
 Number of external orbitals:     724 ( 724 )

 Molecular orbitals read from record     2100.2  Type=RHF/CANONICAL (state 1.1)

 MP2-F12 correlation treatment (H.-J. Werner, 2006)
 ==================================================

 Using MP2-F12 with ansatz 3C(FIX)

 Using projected zeroth-order Hamiltonian (+Z)

 FOCKRIB=T FOCKRIC=T FOCKRIP=T CABSP=T CABSA=T CABSK=T CABSF=T GBC=F EBC=F DMAT=T NOFIK=T NOPAO=1 SOLVE=-1  USEPAO=0
 EXCH_A= T EXCH_B= F EXCH_C= F EXCH_P= F

 Geminal basis:    OPTFULL  GEM_TYPE=SLATER  BETA=1.0  NGEM=6

 Optimizing Gaussian exponents for each gem_beta

 Geminal optimization for beta= 1.0000
 Weight function:   m=0, omega= 1.4646

 Augmented Hessian optimization of geminal fit. Trust ratio= 0.40000
 Convergence reached after   2 iterations. Final gradient= 8.53D-16, Step= 4.26D-06, Delta= 1.28D-09

 Alpha:                 0.19532     0.81920     2.85917     9.50073    35.69989   197.79328
 Coeff:                 0.27070     0.30552     0.18297     0.10986     0.06810     0.04224


 All pairs explicitly correlated. Number of r12-pairs:           36

 Excluding core orbitals from MO domains

 AO(A)-basis ORBITAL           loaded. Number of functions:     734
 RI(R)-basis RI                loaded. Number of functions:     730
 DF-basis JKFIT                loaded. Number of functions:    1104

 Screening thresholds:   THRAO=  1.00D-10  THRMO=  1.00D-09  THRPROD=  1.00D-09
                         THRSW=  1.00D-05  THROV=  1.00D-12  THRAOF12= 1.00D-10

 CPU time for Fock operators                     10.02 sec

 Construction of ABS:
 Smallest eigenvalue of S          2.26E-04  (threshold= 1.00E-08)
 Ratio eigmin/eigmax               3.93E-05  (threshold= 1.00E-09)
 Smallest eigenvalue of S kept     2.26E-04  (threshold= 2.26E-04, 0 functions deleted, 730 kept)

 Construction of CABS:
 Smallest eigenvalue of S          9.74E-09  (threshold= 1.00E-08)
 Ratio eigmin/eigmax               9.74E-09  (threshold= 1.00E-09)
 Smallest eigenvalue of S kept     8.21E-08  (threshold= 8.21E-08, 1 functions deleted, 729 kept)

 CPU time for CABS singles                        1.21 sec

 CABS-singles contribution of  -0.00007918 patched into reference energy.
 New reference energy        -116.28135553

 AO(A)-basis ORBITAL           loaded. Number of functions:     734
 RI(R)-basis RI                loaded. Number of functions:     730
 DF-basis MP2FIT               loaded. Number of functions:    1246

 Screening thresholds:   THRAO=  1.00D-10  THRMO=  1.00D-09  THRPROD=  1.00D-09
                         THRSW=  1.00D-05  THROV=  1.00D-12  THRAOF12= 1.00D-10

 CPU time for 3-index integral evaluation        29.37 sec
 CPU time for first  half transformation          3.39 sec ( 8638.2 MFLOP/sec)
 CPU time for second half transformation          0.08 sec ( 3282.4 MFLOP/sec)
 CPU time for sorting                             0.34 sec
 CPU time for fitting                             0.37 sec (25075.2 MFLOP/sec)
 CPU time for tilde quantities                    0.48 sec (28695.7 MFLOP/sec)
 CPU time for assembly                            4.63 sec (27508.5 MFLOP/sec)
 CPU time for tranop_f12                          5.95 sec (28040.8 MFLOP/sec)
 CPU time for f12 integrals (total)              52.67 sec, Elapsed time:     57.05 sec
 F12-matrices built in  4 passes.
 F12-matrices built in  4 passes.
 F12-matrices built in  4 passes.
 F12-matrices built in  4 passes.
 FC-matrix built in  4 passes.
 CPU time for f12 matrices (total)                4.70 sec, Elapsed time:      4.95 sec

 Diagonal F12 approximation with fixed coefficients:  TSING= 0.500,  TTRIP= 0.250 (scaled by -1/beta)

 DF-MP2-F12 energy corrections:
 ==============================
 Approx.                                    Singlet             Triplet             Total
 DF-MP2-F12/3*C(DX,FIX)                -0.011201397493     -0.000787621110     -0.011989018602
 DF-MP2-F12/3*C(FIX)                   -0.010391964567     -0.000516822345     -0.010908786912
 DF-MP2-F12/3C(FIX)                    -0.010503662660     -0.000532464363     -0.011036127023

 DF-MP2-F12 correlation energies:
 ================================
 Approx.                                    Singlet             Triplet             Ecorr            Total Energy
 DF-MP2                                -0.350258376128     -0.159776111856     -0.510034487984   -116.791390020523
 DF-MP2-F12/3*C(DX,FIX)                -0.361459773621     -0.160563732965     -0.522023506586   -116.803379039126
 DF-MP2-F12/3*C(FIX)                   -0.360650340695     -0.160292934201     -0.520943274896   -116.802298807435
 DF-MP2-F12/3C(FIX)                    -0.360762038788     -0.160308576218     -0.521070615007   -116.802426147546

 SCS-DF-MP2 energies (F_SING= 1.20000  F_TRIP= 0.62222  F_PARALLEL= 0.33333):
 ============================================================================
 SCS-DF-MP2                            -0.519726298731   -116.801081831270
 SCS-DF-MP2-F12/3*C(DX,FIX)            -0.533658051079   -116.815013583618
 SCS-DF-MP2-F12/3*C(FIX)               -0.532518234559   -116.813873767098
 SCS-DF-MP2-F12/3C(FIX)                -0.532662005082   -116.814017537621
 Symmetry transformation completed.

 Number of N-1 electron functions:               8
 Number of N-2 electron functions:              36
 Number of singly external CSFs:              5792
 Number of doubly external CSFs:          16776528
 Total number of CSFs:                    16782321

 Pair and operator lists are different

 Length of J-op  integral file:               1.47 GB
 Length of K-op  integral file:               2.18 GB
 Length of 3-ext integral record:             0.00 MB

 For full I/O caching in triples, increase memory by 34.16 Mwords to 4034.21 Mwords.

 Integral transformation finished. Total CPU:1108.09 sec, npass=  1  Memory used:1826.21 MW

 Reference energy:                   -116.28135553

 Adding F12 terms to K(Cij), methodcc=6,  factor= 1.0

 ITER.      SQ.NORM     CORR.ENERGY   TOTAL ENERGY   ENERGY CHANGE        DEN1      VAR(S)    VAR(P)  DIIS     TIME  TIME/IT
   1      1.13432469    -0.52202225  -116.80337779    -0.01197496    -0.00005211  0.14D-02  0.20D-02  1  1  1477.60   311.84
   2      1.14258416    -0.52307301  -116.80442854    -0.00105075    -0.01021589  0.33D-04  0.25D-03  2  2  1777.32   315.26
   3      1.14581729    -0.52323724  -116.80459277    -0.00016423    -0.00233987  0.12D-04  0.14D-04  3  3  2076.23   316.11
   4      1.14677669    -0.52324183  -116.80459736    -0.00000459    -0.00053051  0.68D-06  0.13D-05  4  4  2380.18   317.80
   5      1.14694624    -0.52324364  -116.80459917    -0.00000181    -0.00004249  0.21D-06  0.94D-07  5  5  2680.93   318.22
   6      1.14699257    -0.52324088  -116.80459641     0.00000276    -0.00000820  0.22D-07  0.83D-08  6  6  2982.05   318.69
   7      1.14700349    -0.52323965  -116.80459519     0.00000123    -0.00000274  0.23D-08  0.11D-08  6  2  3275.93   317.89
   8      1.14700634    -0.52323939  -116.80459493     0.00000026    -0.00000045  0.36D-09  0.11D-09  6  1  3574.72   317.90
   9      1.14700721    -0.52323936  -116.80459490     0.00000003    -0.00000000  0.36D-10  0.18D-10  6  3  3871.52   317.67
  10      1.14700739    -0.52323936  -116.80459489     0.00000000     0.00000007  0.38D-11  0.25D-11  6  4  4168.25   317.52
  11      1.14700736    -0.52323937  -116.80459490    -0.00000001     0.00000008  0.60D-12  0.31D-12  6  5  4471.28   317.95
  12      1.14700734    -0.52323937  -116.80459490    -0.00000000     0.00000002  0.10D-12  0.42D-13  6  6  4768.66   318.05
  13      1.14700733    -0.52323937  -116.80459491    -0.00000000     0.00000001  0.19D-13  0.57D-14  6  2  5064.54   317.88
  14      1.14700732    -0.52323937  -116.80459491    -0.00000000     0.00000000  0.31D-14  0.12D-14  6  1  5376.13   318.88
  15      1.14700732    -0.52323937  -116.80459491    -0.00000000    -0.00000000  0.38D-15  0.21D-15  6  3  5675.71   318.90
  16      1.14700732    -0.52323937  -116.80459491    -0.00000000    -0.00000000  0.56D-16  0.28D-16  6  4  5971.08   318.68
  17      1.14700732    -0.52323937  -116.80459491     0.00000000    -0.00000000  0.12D-16  0.58D-17  6  5  6269.00   318.64

 Norm of t1 vector:      0.04980952      S-energy:     0.00000000      T1 diagnostic:  0.00880516
                                                                       D1 diagnostic:  0.01940186

 Adding energy correction from Wij-K(Fij), methodcc=6  factor= 1.0

  CCSD correlation energy              -0.523239373559
  MP2-F12 correction (uncoupled)       -0.010857121934
  C*T doubles correction               -0.000160423265
  f12b correction                       0.002685460710

   CPU time for triples:   1987.98 sec for i =  1 -  6 /  8 (~  44.6 % done)
   CPU time for triples:   2680.06 sec for i =  7 -  8 /  8 (  100.0 % done)

 Total CPU time for triples:   4744.82 sec

  Ecorr(MP2)                           -0.510047291045
  Ecorr(MP2-F12)                       -0.521083418068
  Scale factor for triples energy       1.021637458362


 RESULTS
 =======

  Reference energy                   -116.281276354826
  F12 singles correction               -0.000079177713

 F12 singles corrections added to reference energy

  New reference energy               -116.281355532539

  F12a singlet correction              -0.010444690339
  F12a triplet correction              -0.000572854860
  F12a total correction                -0.011017545199

 F12a corrections for ansatz F12/3C(FIX) added to CCSD energy

  CCSD-F12a singlet pair energy        -0.387579442389
  CCSD-F12a triplet pair energy        -0.146677476403
  CCSD-F12a correlation energy         -0.534256918757

  Triples (T) contribution (scaled)    -0.017326002377
  Total correlation energy             -0.551582921134

  CCSD-F12a total energy             -116.815612451296
  CCSD[T]-F12a energy                -116.833496104124
  CCSD-T-F12a energy                 -116.832728617397
 !CCSD(T)-F12a total energy          -116.832938453673

 F12b corrections for ansatz F12/3C(FIX) added to CCSD(T)-F12a energy

  CCSD-F12b singlet pair energy        -0.384986902696
  CCSD-F12b triplet pair energy        -0.146584555386
  CCSD-F12b correlation energy         -0.531571458047

  Triples (T) contribution (scaled)    -0.017326002377
  Total correlation energy             -0.548897460424

  CCSD-F12b total energy             -116.812926990586
  CCSD[T]-F12b energy                -116.830810643414
  CCSD-T-F12b energy                 -116.830043156687
 !CCSD(T)-F12b total energy          -116.830252992963

 Timing summary (sec):

 STEP                 CPU(USER)    SYS     CPU(TOT)    WALL
 Transformation       1109.71     53.53   1163.24   1166.22
 CCSD iterations      5086.71    329.04   5415.75   5417.49
 Triples              4744.82     33.17   4777.99   4779.08
 MP2-F12                72.83      5.12     77.95     78.57
 F12b energy           268.49     16.08    284.57    284.60

 Program statistics:

 Available memory in ccsd:              3999999554
 Min. memory needed in ccsd:              48689265
 Max. memory used in ccsd:                63255345
 Max. memory used in cckext:              42753482 (18 integral passes)



 **********************************************************************************************************************************
 DATASETS  * FILE   NREC   LENGTH (MB)   RECORD NAMES
              1      19    12452.16       500      610      700      900      950      970     1000      129      960     1100   
                                          VAR    BASINP    GEOM    SYMINP    ZMAT    AOBASIS   BASIS     P2S    ABASIS      S 
                                         1400     1410     1200     1210     1080     1600     1650     1700     1380   
                                           T        V       H0       H01     AOSYM     SMH    MOLCAS    OPER     JKOP   

              2       6       24.60       700     1000      520     2100     7360     7350   
                                         GEOM     BASIS   MCVARS     RHF    F12ABS    EF12   

 PROGRAMS   *        TOTAL   CCSD(T)    HF-SCF       INT
 CPU TIMES  *     15259.85  11282.87   1882.57   2094.19
 REAL TIME  *     16833.68 SEC
 DISK USED  *        14.29 GB (local),      554.58 GB (total)
 SF USED    *        17.68 GB
 GA USED    *         4.87 MB       (max)       0.00 MB       (current)
 **********************************************************************************************************************************

 Running procedure: SET_MONOMER1

 Dummy atoms: C1  H41  H42  H43  H44


 Recomputing one-electron integrals since nuclear charges changed


 PROGRAM * SEWARD (Integral evaluation for generally contracted gaussian basis sets)     Author: Roland Lindh, 1990

 Geometry written to block  1 of record 700


 Point group  C1  



 ATOMIC COORDINATES

 NR  ATOM    CHARGE       X              Y              Z

   1  O7      8.00   -4.362810704   -2.860478435    6.396722932
   2  H13     1.00   -5.253627599   -3.421160176    4.877005182
   3  H14     1.00   -5.588487068   -1.881600302    7.381837160
   4  C1      0.00   -6.193010455    2.801518980    2.403542658
   5  H41     0.00   -4.656285171    1.699997622    3.119937832
   6  H42     0.00   -5.973046335    4.726205038    2.982932688
   7  H43     0.00   -7.940251230    2.077186956    3.118237078
   8  H44     0.00   -6.176569838    2.685300823    0.384937212

 Bond lengths in Bohr (Angstrom)

 1-2  1.848637551  1-3  1.852278325  4-5  2.021904040  4-6  2.022002335  4-7  2.021953343
     ( 0.978256863)     ( 0.980183478)     ( 1.069945541)     ( 1.069997556)     ( 1.069971630)

 4-8  2.022015060
     ( 1.070004290)

 Bond angles

  2-1-3  106.17843926   5-4-6  109.53398059   5-4-7  109.65604535   5-4-8  108.43490854

  6-4-7  109.49436728   6-4-8  109.86987750   7-4-8  109.83468330

 NUCLEAR CHARGE:                   10
 NUMBER OF PRIMITIVE AOS:        1046
 NUMBER OF SYMMETRY AOS:          786
 NUMBER OF CONTRACTIONS:          734   (  734A   )
 NUMBER OF CORE ORBITALS:           1   (    1A   )
 NUMBER OF VALENCE ORBITALS:        6   (    6A   )

 MOLECULE CHANGED: INITIALIZING OCCUPATION AND DUMP RECORDS


 NUCLEAR REPULSION ENERGY    8.98445179

 Basis set:  JKFIT                   
 Basis size:  1104
 Attributes:
 Sphericals:   T
 Basis set:  MP2FIT                  
 Basis size:  1246
 Attributes:
 Sphericals:   T
 Basis set:  RI                      
 Basis size:   730
 Attributes:
 Sphericals:   T
 Basis set:  TDDFT                   
 Basis size:  1246
 Attributes:
 Sphericals:   T

 Eigenvalues of metric

         1 0.188E-05 0.242E-05 0.350E-05 0.433E-05 0.478E-05 0.689E-05 0.805E-05 0.930E-05


 Contracted 2-electron integrals neglected if value below      1.0D-14

 OPERATOR DM      FOR CENTER  0  COORDINATES:    0.000000    0.000000    0.000000


 **********************************************************************************************************************************
 DATASETS  * FILE   NREC   LENGTH (MB)   RECORD NAMES
              1      18       49.80       500      610      700      900      950      970     1000      129      960     1100   
                                          VAR    BASINP    GEOM    SYMINP    ZMAT    AOBASIS   BASIS     P2S    ABASIS      S 
                                         1400     1410     1200     1210     1080     1600     1650     1700   
                                           T        V       H0       H01     AOSYM     SMH    MOLCAS    OPER   

              2       7       24.63       700     1000      520     2100     7360     7350      200   
                                         GEOM     BASIS   MCVARS     RHF    F12ABS    EF12    OPTIONS    

 PROGRAMS   *        TOTAL       INT   CCSD(T)    HF-SCF       INT
 CPU TIMES  *     15261.38      1.52  11282.87   1882.57   2094.19
 REAL TIME  *     16837.55 SEC
 DISK USED  *        14.29 GB (local),      554.58 GB (total)
 SF USED    *        17.68 GB
 GA USED    *         4.87 MB       (max)       0.00 MB       (current)
 **********************************************************************************************************************************


 PROGRAM * RHF-SCF (CLOSED SHELL)       Authors: W. Meyer, H.-J. Werner


 NUMBER OF ELECTRONS:       5+    5-    SPACE SYMMETRY=1    SPIN SYMMETRY: Singlet 
 CONVERGENCE THRESHOLDS:    1.00E-08 (Density)    1.00E-11 (Energy)
 MAX. NUMBER OF ITERATIONS:       60
 INTERPOLATION TYPE:            DIIS
 INTERPOLATION STEPS:              2 (START)      1 (STEP)
 LEVEL SHIFTS:                  0.00 (CLOSED)  0.00 (OPEN) 



 Orbital guess generated from atomic densities. Full valence occupancy:    7

 Molecular orbital dump at record        2101.2

 Initial occupancy:   5

 ITERATION    DDIFF          GRAD             ENERGY        2-EL.EN.            DIPOLE MOMENTS         DIIS   ORB.
    1      0.000D+00      0.000D+00       -76.02628989     77.404249   -1.08709    0.21512   -0.27401    0    start
    2      0.000D+00      0.360D-02       -76.05301070     73.740929   -0.63176    0.12473   -0.15977    1    diag
    3      0.130D-02      0.229D-02       -76.06460426     75.367831   -0.74507    0.14716   -0.18831    2    diag
    4      0.493D-03      0.215D-03       -76.06479970     75.276342   -0.74040    0.14618   -0.18724    3    diag
    5      0.621D-04      0.602D-04       -76.06482073     75.290757   -0.73865    0.14581   -0.18684    4    diag
    6      0.193D-04      0.120D-04       -76.06482212     75.289677   -0.73825    0.14572   -0.18675    5    diag
    7      0.497D-05      0.246D-05       -76.06482219     75.289824   -0.73811    0.14569   -0.18672    6    diag
    8      0.135D-05      0.473D-06       -76.06482219     75.289812   -0.73807    0.14568   -0.18671    7    diag
    9      0.291D-06      0.655D-07       -76.06482219     75.289803   -0.73806    0.14568   -0.18671    8    diag
   10      0.427D-07      0.147D-07       -76.06482219     75.289806   -0.73806    0.14568   -0.18671    9    orth
   11      0.911D-08      0.245D-08       -76.06482219     75.289805   -0.73806    0.14568   -0.18671    0    orth

 Final occupancy:   5

 !RHF STATE  1.1 Energy               -76.064822190679
 Nuclear energy                         8.98445179
 One-electron energy                 -122.69417661
 Two-electron energy                   37.64490264
 Virial quotient                       -1.00200178
 !RHF STATE  1.1 Dipole moment         -0.73806396     0.14568351    -0.18670903
 Dipole moment /Debye                  -1.87584859     0.37026628    -0.47453593

 Orbital energies:

         1.1          2.1          3.1          4.1          5.1          6.1          7.1
    -20.567041    -1.340419    -0.708942    -0.577543    -0.508242     0.014885     0.030719


 HOMO      5.1    -0.508242 =     -13.8300eV
 LUMO      6.1     0.014885 =       0.4050eV
 LUMO-HOMO         0.523127 =      14.2350eV


 **********************************************************************************************************************************
 DATASETS  * FILE   NREC   LENGTH (MB)   RECORD NAMES
              1      18       49.80       500      610      700      900      950      970     1000      129      960     1100   
                                          VAR    BASINP    GEOM    SYMINP    ZMAT    AOBASIS   BASIS     P2S    ABASIS      S 
                                         1400     1410     1200     1210     1080     1600     1650     1700   
                                           T        V       H0       H01     AOSYM     SMH    MOLCAS    OPER   

              2       8       38.40       700     1000      520     2100     7360     7350      200     2101   
                                         GEOM     BASIS   MCVARS     RHF    F12ABS    EF12    OPTIONS    RHF  

 PROGRAMS   *        TOTAL    HF-SCF       INT   CCSD(T)    HF-SCF       INT
 CPU TIMES  *     16881.11   1619.72      1.52  11282.87   1882.57   2094.19
 REAL TIME  *     18638.20 SEC
 DISK USED  *        14.29 GB (local),      554.58 GB (total)
 SF USED    *        17.68 GB
 GA USED    *         4.87 MB       (max)       0.00 MB       (current)
 **********************************************************************************************************************************

 Basis set:  JKFIT                   
 Basis size:  1104
 Attributes:
 Sphericals:   T
 Basis set:  MP2FIT                  
 Basis size:  1246
 Attributes:
 Sphericals:   T
 Basis set:  RI                      
 Basis size:   730
 Attributes:
 Sphericals:   T
 Basis set:  TDDFT                   
 Basis size:  1246
 Attributes:
 Sphericals:   T

 PROGRAM * CCSD (Closed-shell coupled cluster)     Authors: C. Hampel, H.-J. Werner, 1991, M. Deegan, P.J. Knowles, 1992

                                  CCSD-F12 implementation by  H.-J. Werner, 2007

                   Density fitting integral evaluation by F.R. Manby, 2003,2007, G. Knizia, 2010



 Convergence thresholds:  THRVAR = 1.00D-08  THRDEN = 1.00D-10

 CCSD(T)     terms to be evaluated (factor= 1.000)


 Number of core orbitals:           1 (   1 )
 Number of closed-shell orbitals:   4 (   4 )
 Number of external orbitals:     729 ( 729 )

 Molecular orbitals read from record     2101.2  Type=RHF/CANONICAL (state 1.1)

 MP2-F12 correlation treatment (H.-J. Werner, 2006)
 ==================================================

 Using MP2-F12 with ansatz 3C(FIX)

 Using projected zeroth-order Hamiltonian (+Z)

 FOCKRIB=T FOCKRIC=T FOCKRIP=T CABSP=T CABSA=T CABSK=T CABSF=T GBC=F EBC=F DMAT=T NOFIK=T NOPAO=1 SOLVE=-1  USEPAO=0
 EXCH_A= T EXCH_B= F EXCH_C= F EXCH_P= F

 Geminal basis:    OPTFULL  GEM_TYPE=SLATER  BETA=1.0  NGEM=6

 Optimizing Gaussian exponents for each gem_beta

 Geminal optimization for beta= 1.0000
 Weight function:   m=0, omega= 1.4646

 Augmented Hessian optimization of geminal fit. Trust ratio= 0.40000
 Convergence reached after   2 iterations. Final gradient= 8.53D-16, Step= 4.26D-06, Delta= 1.28D-09

 Alpha:                 0.19532     0.81920     2.85917     9.50073    35.69989   197.79328
 Coeff:                 0.27070     0.30552     0.18297     0.10986     0.06810     0.04224


 All pairs explicitly correlated. Number of r12-pairs:           10

 Excluding core orbitals from MO domains

 AO(A)-basis ORBITAL           loaded. Number of functions:     734
 RI(R)-basis RI                loaded. Number of functions:     730
 DF-basis JKFIT                loaded. Number of functions:    1104

 Screening thresholds:   THRAO=  1.00D-10  THRMO=  1.00D-09  THRPROD=  1.00D-09
                         THRSW=  1.00D-05  THROV=  1.00D-12  THRAOF12= 1.00D-10

 CPU time for Fock operators                      9.32 sec

 Construction of ABS:
 Smallest eigenvalue of S          2.26E-04  (threshold= 1.00E-08)
 Ratio eigmin/eigmax               3.93E-05  (threshold= 1.00E-09)
 Smallest eigenvalue of S kept     2.26E-04  (threshold= 2.26E-04, 0 functions deleted, 730 kept)

 Construction of CABS:
 Smallest eigenvalue of S          9.74E-09  (threshold= 1.00E-08)
 Ratio eigmin/eigmax               9.74E-09  (threshold= 1.00E-09)
 Smallest eigenvalue of S kept     8.21E-08  (threshold= 8.21E-08, 1 functions deleted, 729 kept)

 CPU time for CABS singles                        1.21 sec

 CABS-singles contribution of  -0.00003843 patched into reference energy.
 New reference energy         -76.06486062

 AO(A)-basis ORBITAL           loaded. Number of functions:     734
 RI(R)-basis RI                loaded. Number of functions:     730
 DF-basis MP2FIT               loaded. Number of functions:    1246

 Screening thresholds:   THRAO=  1.00D-10  THRMO=  1.00D-09  THRPROD=  1.00D-09
                         THRSW=  1.00D-05  THROV=  1.00D-12  THRAOF12= 1.00D-10

 CPU time for 3-index integral evaluation        29.42 sec
 CPU time for first  half transformation          2.90 sec ( 5059.7 MFLOP/sec)
 CPU time for second half transformation          0.04 sec ( 1664.0 MFLOP/sec)
 CPU time for sorting                             0.16 sec
 CPU time for fitting                             0.35 sec (19632.7 MFLOP/sec)
 CPU time for tilde quantities                    0.39 sec (29227.1 MFLOP/sec)
 CPU time for assembly                            1.41 sec (25632.4 MFLOP/sec)
 CPU time for tranop_f12                          1.70 sec (24615.3 MFLOP/sec)
 CPU time for f12 integrals (total)              39.19 sec, Elapsed time:     41.23 sec
 F12-matrices built in  4 passes.
 F12-matrices built in  4 passes.
 F12-matrices built in  4 passes.
 F12-matrices built in  4 passes.
 FC-matrix built in  4 passes.
 CPU time for f12 matrices (total)                1.38 sec, Elapsed time:      1.44 sec

 Diagonal F12 approximation with fixed coefficients:  TSING= 0.500,  TTRIP= 0.250 (scaled by -1/beta)

 DF-MP2-F12 energy corrections:
 ==============================
 Approx.                                    Singlet             Triplet             Total
 DF-MP2-F12/3*C(DX,FIX)                -0.007257362514     -0.000572204060     -0.007829566575
 DF-MP2-F12/3*C(FIX)                   -0.006611178487     -0.000353201659     -0.006964380147
 DF-MP2-F12/3C(FIX)                    -0.006675538671     -0.000365385105     -0.007040923776

 DF-MP2-F12 correlation energies:
 ================================
 Approx.                                    Singlet             Triplet             Ecorr            Total Energy
 DF-MP2                                -0.192197021814     -0.102281736408     -0.294478758222    -76.359339374420
 DF-MP2-F12/3*C(DX,FIX)                -0.199454384328     -0.102853940469     -0.302308324797    -76.367168940995
 DF-MP2-F12/3*C(FIX)                   -0.198808200301     -0.102634938067     -0.301443138368    -76.366303754567
 DF-MP2-F12/3C(FIX)                    -0.198872560485     -0.102647121514     -0.301519681998    -76.366380298197

 SCS-DF-MP2 energies (F_SING= 1.20000  F_TRIP= 0.62222  F_PARALLEL= 0.33333):
 ============================================================================
 SCS-DF-MP2                            -0.294278395497    -76.359139011696
 SCS-DF-MP2-F12/3*C(DX,FIX)            -0.303343268596    -76.368203884795
 SCS-DF-MP2-F12/3*C(FIX)               -0.302431579603    -76.367292195802
 SCS-DF-MP2-F12/3C(FIX)                -0.302516392634    -76.367377008833
 Symmetry transformation completed.

 Number of N-1 electron functions:               4
 Number of N-2 electron functions:              10
 Number of singly external CSFs:              2916
 Number of doubly external CSFs:           4252986
 Total number of CSFs:                     4255903

 Pair and operator lists are different

 Length of J-op  integral file:             411.24 MB
 Length of K-op  integral file:             721.80 MB
 Length of 3-ext integral record:             0.00 MB

 Memory could be reduced to 2535.14 Mwords without degradation in triples

 Integral transformation finished. Total CPU: 628.50 sec, npass=  1  Memory used:1009.99 MW

 Reference energy:                    -76.06486062

 Adding F12 terms to K(Cij), methodcc=6,  factor= 1.0

 ITER.      SQ.NORM     CORR.ENERGY   TOTAL ENERGY   ENERGY CHANGE        DEN1      VAR(S)    VAR(P)  DIIS     TIME  TIME/IT
   1      1.06371246    -0.29291681   -76.35777743     0.00156815     0.00763459  0.79D-03  0.11D-02  1  1   828.84   161.48
   2      1.06724576    -0.29301207   -76.35787268    -0.00009526    -0.00498651  0.15D-04  0.12D-03  2  2   985.30   166.57
   3      1.06858516    -0.29310483   -76.35796544    -0.00009276    -0.00095014  0.82D-05  0.73D-05  3  3  1140.06   167.69
   4      1.06909958    -0.29311036   -76.35797097    -0.00000553    -0.00028073  0.53D-06  0.75D-06  4  4  1295.85   168.61
   5      1.06920445    -0.29310911   -76.35796972     0.00000125    -0.00003124  0.17D-06  0.56D-07  5  5  1447.60   168.37
   6      1.06923890    -0.29310688   -76.35796750     0.00000222    -0.00000584  0.20D-07  0.48D-08  6  6  1600.64   168.75
   7      1.06924741    -0.29310632   -76.35796694     0.00000056    -0.00000135  0.17D-08  0.87D-09  6  2  1754.31   168.99
   8      1.06924945    -0.29310619   -76.35796680     0.00000013    -0.00000010  0.25D-09  0.94D-10  6  1  1909.21   169.32
   9      1.06924992    -0.29310618   -76.35796679     0.00000001     0.00000010  0.48D-10  0.23D-10  6  2  2067.28   169.95
  10      1.06925027    -0.29310615   -76.35796677     0.00000002    -0.00000002  0.28D-11  0.15D-11  6  3  2224.30   170.30
  11      1.06925026    -0.29310615   -76.35796677    -0.00000000     0.00000005  0.51D-12  0.21D-12  6  5  2384.63   170.92
  12      1.06925027    -0.29310615   -76.35796677     0.00000000    -0.00000000  0.96D-13  0.26D-13  6  4  2545.12   171.46
  13      1.06925027    -0.29310615   -76.35796677    -0.00000000    -0.00000000  0.17D-13  0.44D-14  6  6  2706.29   171.97
  14      1.06925027    -0.29310616   -76.35796677    -0.00000000     0.00000000  0.26D-14  0.98D-15  6  1  2862.98   172.09
  15      1.06925027    -0.29310616   -76.35796677    -0.00000000    -0.00000000  0.32D-15  0.15D-15  6  2  3017.74   172.02
  16      1.06925027    -0.29310616   -76.35796677    -0.00000000     0.00000000  0.33D-16  0.19D-16  6  3  3171.82   171.85

 Norm of t1 vector:      0.03672568      S-energy:    -0.00000000      T1 diagnostic:  0.00918142
                                                                       D1 diagnostic:  0.01870396

 Adding energy correction from Wij-K(Fij), methodcc=6  factor= 1.0

  CCSD correlation energy              -0.293106155109
  MP2-F12 correction (uncoupled)       -0.006960985777
  C*T doubles correction               -0.000090360581
  f12b correction                       0.001581768230


 Total CPU time for triples:    659.25 sec

  Ecorr(MP2)                           -0.294484966319
  Ecorr(MP2-F12)                       -0.301525890096
  Scale factor for triples energy       1.023909280885


 RESULTS
 =======

  Reference energy                    -76.064822190680
  F12 singles correction               -0.000038425519

 F12 singles corrections added to reference energy

  New reference energy                -76.064860616198

  F12a singlet correction              -0.006652543407
  F12a triplet correction              -0.000398802952
  F12a total correction                -0.007051346358

 F12a corrections for ansatz F12/3C(FIX) added to CCSD energy

  CCSD-F12a singlet pair energy        -0.209375530674
  CCSD-F12a triplet pair energy        -0.090781970217
  CCSD-F12a correlation energy         -0.300157501468

  Triples (T) contribution (scaled)    -0.010052258699
  Total correlation energy             -0.310209760167

  CCSD-F12a total energy              -76.365018117666
  CCSD[T]-F12a energy                 -76.375388238125
  CCSD-T-F12a energy                  -76.374931071423
 !CCSD(T)-F12a total energy           -76.375070376366

 F12b corrections for ansatz F12/3C(FIX) added to CCSD(T)-F12a energy

  CCSD-F12b singlet pair energy        -0.207857051862
  CCSD-F12b triplet pair energy        -0.090718680798
  CCSD-F12b correlation energy         -0.298575733238

  Triples (T) contribution (scaled)    -0.010052258699
  Total correlation energy             -0.308627991937

  CCSD-F12b total energy              -76.363436349436
  CCSD[T]-F12b energy                 -76.373806469895
  CCSD-T-F12b energy                  -76.373349303193
 !CCSD(T)-F12b total energy           -76.373488608136

 Timing summary (sec):

 STEP                 CPU(USER)    SYS     CPU(TOT)    WALL
 Transformation        629.01     28.54    657.55    658.34
 CCSD iterations      2489.60    259.67   2749.27   2749.92
 Triples               659.25      5.90    665.15    665.25
 MP2-F12                53.39      2.68     56.07     56.13
 F12b energy           152.31     15.50    167.81    167.94

 Program statistics:

 Available memory in ccsd:              3999999871
 Min. memory needed in ccsd:              19260852
 Max. memory used in ccsd:                22423154
 Max. memory used in cckext:              14628952 (17 integral passes)



 **********************************************************************************************************************************
 DATASETS  * FILE   NREC   LENGTH (MB)   RECORD NAMES
              1      19     6330.34       500      610      700      900      950      970     1000      129      960     1100   
                                          VAR    BASINP    GEOM    SYMINP    ZMAT    AOBASIS   BASIS     P2S    ABASIS      S 
                                         1400     1410     1200     1210     1080     1600     1650     1700     1380   
                                           T        V       H0       H01     AOSYM     SMH    MOLCAS    OPER     JKOP   

              2       8       38.40       700     1000      520     2100     7360     7350      200     2101   
                                         GEOM     BASIS   MCVARS     RHF    F12ABS    EF12    OPTIONS    RHF  

 PROGRAMS   *        TOTAL   CCSD(T)    HF-SCF       INT   CCSD(T)    HF-SCF       INT
 CPU TIMES  *     20866.31   3985.19   1619.72      1.52  11282.87   1882.57   2094.19
 REAL TIME  *     22938.82 SEC
 DISK USED  *        14.29 GB (local),      554.58 GB (total)
 SF USED    *        17.68 GB
 GA USED    *         4.87 MB       (max)       0.00 MB       (current)
 **********************************************************************************************************************************

 Running procedure: SET_MONOMER2

 Dummy atoms: O7  H13  H14


 Recomputing one-electron integrals since nuclear charges changed


 PROGRAM * SEWARD (Integral evaluation for generally contracted gaussian basis sets)     Author: Roland Lindh, 1990

 Geometry written to block  1 of record 700


 Point group  C1  



 ATOMIC COORDINATES

 NR  ATOM    CHARGE       X              Y              Z

   1  O7      0.00   -4.362810704   -2.860478435    6.396722932
   2  H13     0.00   -5.253627599   -3.421160176    4.877005182
   3  H14     0.00   -5.588487068   -1.881600302    7.381837160
   4  C1      6.00   -6.193010455    2.801518980    2.403542658
   5  H41     1.00   -4.656285171    1.699997622    3.119937832
   6  H42     1.00   -5.973046335    4.726205038    2.982932688
   7  H43     1.00   -7.940251230    2.077186956    3.118237078
   8  H44     1.00   -6.176569838    2.685300823    0.384937212

 Bond lengths in Bohr (Angstrom)

 1-2  1.848637551  1-3  1.852278325  4-5  2.021904040  4-6  2.022002335  4-7  2.021953343
     ( 0.978256863)     ( 0.980183478)     ( 1.069945541)     ( 1.069997556)     ( 1.069971630)

 4-8  2.022015060
     ( 1.070004290)

 Bond angles

  2-1-3  106.17843926   5-4-6  109.53398059   5-4-7  109.65604535   5-4-8  108.43490854

  6-4-7  109.49436728   6-4-8  109.86987750   7-4-8  109.83468330

 NUCLEAR CHARGE:                   10
 NUMBER OF PRIMITIVE AOS:        1046
 NUMBER OF SYMMETRY AOS:          786
 NUMBER OF CONTRACTIONS:          734   (  734A   )
 NUMBER OF CORE ORBITALS:           1   (    1A   )
 NUMBER OF VALENCE ORBITALS:        8   (    8A   )

 MOLECULE CHANGED: INITIALIZING OCCUPATION AND DUMP RECORDS


 NUCLEAR REPULSION ENERGY   13.68681606

 Basis set:  JKFIT                   
 Basis size:  1104
 Attributes:
 Sphericals:   T
 Basis set:  MP2FIT                  
 Basis size:  1246
 Attributes:
 Sphericals:   T
 Basis set:  RI                      
 Basis size:   730
 Attributes:
 Sphericals:   T
 Basis set:  TDDFT                   
 Basis size:  1246
 Attributes:
 Sphericals:   T

 Eigenvalues of metric

         1 0.188E-05 0.242E-05 0.350E-05 0.433E-05 0.478E-05 0.689E-05 0.805E-05 0.930E-05


 Contracted 2-electron integrals neglected if value below      1.0D-14

 OPERATOR DM      FOR CENTER  0  COORDINATES:    0.000000    0.000000    0.000000


 **********************************************************************************************************************************
 DATASETS  * FILE   NREC   LENGTH (MB)   RECORD NAMES
              1      18       49.80       500      610      700      900      950      970     1000      129      960     1100   
                                          VAR    BASINP    GEOM    SYMINP    ZMAT    AOBASIS   BASIS     P2S    ABASIS      S 
                                         1400     1410     1200     1210     1080     1600     1650     1700   
                                           T        V       H0       H01     AOSYM     SMH    MOLCAS    OPER   

              2       8       38.40       700     1000      520     2100     7360     7350      200     2101   
                                         GEOM     BASIS   MCVARS     RHF    F12ABS    EF12    OPTIONS    RHF  

 PROGRAMS   *        TOTAL       INT   CCSD(T)    HF-SCF       INT   CCSD(T)    HF-SCF       INT
 CPU TIMES  *     20866.78      0.47   3985.19   1619.72      1.52  11282.87   1882.57   2094.19
 REAL TIME  *     22940.40 SEC
 DISK USED  *        14.29 GB (local),      554.58 GB (total)
 SF USED    *        17.68 GB
 GA USED    *         4.87 MB       (max)       0.00 MB       (current)
 **********************************************************************************************************************************


 PROGRAM * RHF-SCF (CLOSED SHELL)       Authors: W. Meyer, H.-J. Werner


 NUMBER OF ELECTRONS:       5+    5-    SPACE SYMMETRY=1    SPIN SYMMETRY: Singlet 
 CONVERGENCE THRESHOLDS:    1.00E-08 (Density)    1.00E-11 (Energy)
 MAX. NUMBER OF ITERATIONS:       60
 INTERPOLATION TYPE:            DIIS
 INTERPOLATION STEPS:              2 (START)      1 (STEP)
 LEVEL SHIFTS:                  0.00 (CLOSED)  0.00 (OPEN) 



 Orbital guess generated from atomic densities. Full valence occupancy:    9

 Molecular orbital dump at record        2102.2

 Initial occupancy:   5

 ITERATION    DDIFF          GRAD             ENERGY        2-EL.EN.            DIPOLE MOMENTS         DIIS   ORB.
    1      0.000D+00      0.000D+00       -40.19676541     53.509905    0.00411   -0.00276   -0.00131    0    start
    2      0.000D+00      0.198D-02       -40.21405761     52.218481    0.00128   -0.00087   -0.00039    1    diag
    3      0.949D-03      0.769D-03       -40.21634104     52.673987    0.00182   -0.00123   -0.00056    2    diag
    4      0.260D-03      0.192D-03       -40.21666136     52.619250    0.00161   -0.00110   -0.00049    3    diag
    5      0.102D-03      0.248D-04       -40.21666685     52.621408    0.00159   -0.00108   -0.00048    4    diag
    6      0.353D-04      0.204D-05       -40.21666689     52.621536    0.00159   -0.00108   -0.00048    5    diag
    7      0.603D-05      0.166D-06       -40.21666689     52.621498    0.00158   -0.00108   -0.00048    6    diag
    8      0.339D-06      0.136D-07       -40.21666689     52.621499    0.00158   -0.00108   -0.00048    7    diag
    9      0.580D-07      0.167D-08       -40.21666689     52.621499    0.00158   -0.00108   -0.00048    8    diag
   10      0.106D-07      0.465D-09       -40.21666689     52.621499    0.00158   -0.00108   -0.00048    9    orth
   11      0.107D-08      0.667D-10       -40.21666689     52.621499    0.00158   -0.00108   -0.00048    0    orth

 Final occupancy:   5

 !RHF STATE  1.1 Energy               -40.216666890329
 Nuclear energy                        13.68681606
 One-electron energy                  -80.21423239
 Two-electron energy                   26.31074944
 Virial quotient                       -0.99832814
 !RHF STATE  1.1 Dipole moment          0.00158480    -0.00107768    -0.00047742
 Dipole moment /Debye                   0.00402790    -0.00273902    -0.00121340

 Orbital energies:

         1.1          2.1          3.1          4.1          5.1          6.1          7.1
    -11.196017    -0.950605    -0.551931    -0.549996    -0.547818     0.021728     0.033765


 HOMO      5.1    -0.547818 =     -14.9069eV
 LUMO      6.1     0.021728 =       0.5913eV
 LUMO-HOMO         0.569546 =      15.4981eV


 **********************************************************************************************************************************
 DATASETS  * FILE   NREC   LENGTH (MB)   RECORD NAMES
              1      18       49.80       500      610      700      900      950      970     1000      129      960     1100   
                                          VAR    BASINP    GEOM    SYMINP    ZMAT    AOBASIS   BASIS     P2S    ABASIS      S 
                                         1400     1410     1200     1210     1080     1600     1650     1700   
                                           T        V       H0       H01     AOSYM     SMH    MOLCAS    OPER   

              2       9       62.49       700     1000      520     2100     7360     7350      200     2101     2102   
                                         GEOM     BASIS   MCVARS     RHF    F12ABS    EF12    OPTIONS    RHF      RHF  

 PROGRAMS   *        TOTAL    HF-SCF       INT   CCSD(T)    HF-SCF       INT   CCSD(T)    HF-SCF       INT
 CPU TIMES  *     22617.64   1750.86      0.47   3985.19   1619.72      1.52  11282.87   1882.57   2094.19
 REAL TIME  *     24868.43 SEC
 DISK USED  *        14.29 GB (local),      554.58 GB (total)
 SF USED    *        17.68 GB
 GA USED    *         4.87 MB       (max)       0.00 MB       (current)
 **********************************************************************************************************************************

 Basis set:  JKFIT                   
 Basis size:  1104
 Attributes:
 Sphericals:   T
 Basis set:  MP2FIT                  
 Basis size:  1246
 Attributes:
 Sphericals:   T
 Basis set:  RI                      
 Basis size:   730
 Attributes:
 Sphericals:   T
 Basis set:  TDDFT                   
 Basis size:  1246
 Attributes:
 Sphericals:   T

 PROGRAM * CCSD (Closed-shell coupled cluster)     Authors: C. Hampel, H.-J. Werner, 1991, M. Deegan, P.J. Knowles, 1992

                                  CCSD-F12 implementation by  H.-J. Werner, 2007

                   Density fitting integral evaluation by F.R. Manby, 2003,2007, G. Knizia, 2010



 Convergence thresholds:  THRVAR = 1.00D-08  THRDEN = 1.00D-10

 CCSD(T)     terms to be evaluated (factor= 1.000)


 Number of core orbitals:           1 (   1 )
 Number of closed-shell orbitals:   4 (   4 )
 Number of external orbitals:     729 ( 729 )

 Molecular orbitals read from record     2102.2  Type=RHF/CANONICAL (state 1.1)

 MP2-F12 correlation treatment (H.-J. Werner, 2006)
 ==================================================

 Using MP2-F12 with ansatz 3C(FIX)

 Using projected zeroth-order Hamiltonian (+Z)

 FOCKRIB=T FOCKRIC=T FOCKRIP=T CABSP=T CABSA=T CABSK=T CABSF=T GBC=F EBC=F DMAT=T NOFIK=T NOPAO=1 SOLVE=-1  USEPAO=0
 EXCH_A= T EXCH_B= F EXCH_C= F EXCH_P= F

 Geminal basis:    OPTFULL  GEM_TYPE=SLATER  BETA=1.0  NGEM=6

 Optimizing Gaussian exponents for each gem_beta

 Geminal optimization for beta= 1.0000
 Weight function:   m=0, omega= 1.4646

 Augmented Hessian optimization of geminal fit. Trust ratio= 0.40000
 Convergence reached after   2 iterations. Final gradient= 8.53D-16, Step= 4.26D-06, Delta= 1.28D-09

 Alpha:                 0.19532     0.81920     2.85917     9.50073    35.69989   197.79328
 Coeff:                 0.27070     0.30552     0.18297     0.10986     0.06810     0.04224


 All pairs explicitly correlated. Number of r12-pairs:           10

 Excluding core orbitals from MO domains

 AO(A)-basis ORBITAL           loaded. Number of functions:     734
 RI(R)-basis RI                loaded. Number of functions:     730
 DF-basis JKFIT                loaded. Number of functions:    1104

 Screening thresholds:   THRAO=  1.00D-10  THRMO=  1.00D-09  THRPROD=  1.00D-09
                         THRSW=  1.00D-05  THROV=  1.00D-12  THRAOF12= 1.00D-10

 CPU time for Fock operators                      9.42 sec

 Construction of ABS:
 Smallest eigenvalue of S          2.26E-04  (threshold= 1.00E-08)
 Ratio eigmin/eigmax               3.93E-05  (threshold= 1.00E-09)
 Smallest eigenvalue of S kept     2.26E-04  (threshold= 2.26E-04, 0 functions deleted, 730 kept)

 Construction of CABS:
 Smallest eigenvalue of S          9.74E-09  (threshold= 1.00E-08)
 Ratio eigmin/eigmax               9.74E-09  (threshold= 1.00E-09)
 Smallest eigenvalue of S kept     8.21E-08  (threshold= 8.21E-08, 1 functions deleted, 729 kept)

 CPU time for CABS singles                        1.21 sec

 CABS-singles contribution of  -0.00004075 patched into reference energy.
 New reference energy         -40.21670764

 AO(A)-basis ORBITAL           loaded. Number of functions:     734
 RI(R)-basis RI                loaded. Number of functions:     730
 DF-basis MP2FIT               loaded. Number of functions:    1246

 Screening thresholds:   THRAO=  1.00D-10  THRMO=  1.00D-09  THRPROD=  1.00D-09
                         THRSW=  1.00D-05  THROV=  1.00D-12  THRAOF12= 1.00D-10

 CPU time for 3-index integral evaluation        29.12 sec
 CPU time for first  half transformation          3.09 sec ( 4732.6 MFLOP/sec)
 CPU time for second half transformation          0.04 sec ( 1590.6 MFLOP/sec)
 CPU time for sorting                             0.16 sec
 CPU time for fitting                             0.36 sec (12678.9 MFLOP/sec)
 CPU time for tilde quantities                    0.56 sec ( 4125.3 MFLOP/sec)
 CPU time for assembly                            1.42 sec (23560.8 MFLOP/sec)
 CPU time for tranop_f12                          1.73 sec (25583.5 MFLOP/sec)
 CPU time for f12 integrals (total)              39.28 sec, Elapsed time:     41.08 sec
 F12-matrices built in  4 passes.
 F12-matrices built in  4 passes.
 F12-matrices built in  4 passes.
 F12-matrices built in  4 passes.
 FC-matrix built in  4 passes.
 CPU time for f12 matrices (total)                1.41 sec, Elapsed time:      1.44 sec

 Diagonal F12 approximation with fixed coefficients:  TSING= 0.500,  TTRIP= 0.250 (scaled by -1/beta)

 DF-MP2-F12 energy corrections:
 ==============================
 Approx.                                    Singlet             Triplet             Total
 DF-MP2-F12/3*C(DX,FIX)                -0.003933416076     -0.000213048995     -0.004146465071
 DF-MP2-F12/3*C(FIX)                   -0.003770203848     -0.000160905944     -0.003931109792
 DF-MP2-F12/3C(FIX)                    -0.003817107517     -0.000163930622     -0.003981038139

 DF-MP2-F12 correlation energies:
 ================================
 Approx.                                    Singlet             Triplet             Ecorr            Total Energy
 DF-MP2                                -0.157870115545     -0.056824996848     -0.214695112393    -40.431402754280
 DF-MP2-F12/3*C(DX,FIX)                -0.161803531620     -0.057038045844     -0.218841577464    -40.435549219351
 DF-MP2-F12/3*C(FIX)                   -0.161640319393     -0.056985902793     -0.218626222185    -40.435333864072
 DF-MP2-F12/3C(FIX)                    -0.161687223062     -0.056988927471     -0.218676150532    -40.435383792419

 SCS-DF-MP2 energies (F_SING= 1.20000  F_TRIP= 0.62222  F_PARALLEL= 0.33333):
 ============================================================================
 SCS-DF-MP2                            -0.224801914470    -40.441509556357
 SCS-DF-MP2-F12/3*C(DX,FIX)            -0.229654577581    -40.446362219468
 SCS-DF-MP2-F12/3*C(FIX)               -0.229426278342    -40.446133920229
 SCS-DF-MP2-F12/3C(FIX)                -0.229484444767    -40.446192086654
 Symmetry transformation completed.

 Number of N-1 electron functions:               4
 Number of N-2 electron functions:              10
 Number of singly external CSFs:              2916
 Number of doubly external CSFs:           4252986
 Total number of CSFs:                     4255903

 Pair and operator lists are different

 Length of J-op  integral file:             411.24 MB
 Length of K-op  integral file:             721.80 MB
 Length of 3-ext integral record:             0.00 MB

 Memory could be reduced to 2535.14 Mwords without degradation in triples

 Integral transformation finished. Total CPU: 632.30 sec, npass=  1  Memory used:1009.99 MW

 Reference energy:                    -40.21670764

 Adding F12 terms to K(Cij), methodcc=6,  factor= 1.0

 ITER.      SQ.NORM     CORR.ENERGY   TOTAL ENERGY   ENERGY CHANGE        DEN1      VAR(S)    VAR(P)  DIIS     TIME  TIME/IT
   1      1.07033691    -0.22827303   -40.44498067    -0.01357121    -0.00771674  0.62D-03  0.94D-03  1  1   844.22   173.76
   2      1.07515869    -0.22923011   -40.44593775    -0.00095708    -0.00531230  0.16D-04  0.11D-03  2  2  1003.40   174.84
   3      1.07694842    -0.22929746   -40.44600511    -0.00006735    -0.00133785  0.22D-05  0.64D-05  3  3  1163.54   175.38
   4      1.07735124    -0.22929991   -40.44600755    -0.00000244    -0.00021863  0.16D-06  0.39D-06  4  4  1323.65   175.68
   5      1.07740854    -0.22930348   -40.44601112    -0.00000357    -0.00000966  0.14D-07  0.24D-07  5  5  1484.37   176.05
   6      1.07741879    -0.22930213   -40.44600978     0.00000134    -0.00000403  0.90D-09  0.19D-08  6  6  1642.85   175.92
   7      1.07742032    -0.22930174   -40.44600938     0.00000040    -0.00000091  0.56D-10  0.13D-09  6  1  1799.78   175.63
   8      1.07742025    -0.22930180   -40.44600944    -0.00000006     0.00000024  0.62D-11  0.89D-11  6  3  1953.43   174.96
   9      1.07742039    -0.22930178   -40.44600942     0.00000002    -0.00000009  0.42D-12  0.62D-12  6  2  2114.99   175.34
  10      1.07742039    -0.22930178   -40.44600942     0.00000000     0.00000001  0.59D-13  0.65D-13  6  4  2274.70   175.48
  11      1.07742040    -0.22930178   -40.44600942     0.00000000    -0.00000000  0.60D-14  0.66D-14  6  5  2436.30   175.74
  12      1.07742039    -0.22930178   -40.44600942     0.00000000     0.00000000  0.17D-15  0.66D-15  6  6  2597.46   175.93
  13      1.07742039    -0.22930178   -40.44600942    -0.00000000     0.00000000  0.13D-16  0.72D-16  6  1  2754.50   175.76
  14      1.07742039    -0.22930178   -40.44600942    -0.00000000     0.00000000  0.19D-17  0.11D-16  6  3  2913.64   175.78

 Norm of t1 vector:      0.03268896      S-energy:     0.00000000      T1 diagnostic:  0.00817224
                                                                       D1 diagnostic:  0.01311241

 Adding energy correction from Wij-K(Fij), methodcc=6  factor= 1.0

  CCSD correlation energy              -0.229301775752
  MP2-F12 correction (uncoupled)       -0.003884077341
  C*T doubles correction               -0.000068901587
  f12b correction                       0.001100268961

 Total CPU time for triples:    652.46 sec

  Ecorr(MP2)                           -0.214701825208
  Ecorr(MP2-F12)                       -0.218682863347
  Scale factor for triples energy       1.018542171849


 RESULTS
 =======

  Reference energy                    -40.216666890330
  F12 singles correction               -0.000040751557

 F12 singles corrections added to reference energy

  New reference energy                -40.216707641887

  F12a singlet correction              -0.003781736063
  F12a triplet correction              -0.000171242865
  F12a total correction                -0.003952978928

 F12a corrections for ansatz F12/3C(FIX) added to CCSD energy

  CCSD-F12a singlet pair energy        -0.178096180047
  CCSD-F12a triplet pair energy        -0.055158574639
  CCSD-F12a correlation energy         -0.233254754680

  Triples (T) contribution (scaled)    -0.007109332701
  Total correlation energy             -0.240364087381

  CCSD-F12a total energy              -40.449962396567
  CCSD[T]-F12a energy                 -40.457307345371
  CCSD-T-F12a energy                  -40.457003885898
 !CCSD(T)-F12a total energy           -40.457071729268

 F12b corrections for ansatz F12/3C(FIX) added to CCSD(T)-F12a energy

  CCSD-F12b singlet pair energy        -0.177025045743
  CCSD-F12b triplet pair energy        -0.055129439982
  CCSD-F12b correlation energy         -0.232154485720

  Triples (T) contribution (scaled)    -0.007109332701
  Total correlation energy             -0.239263818421

  CCSD-F12b total energy              -40.448862127607
  CCSD[T]-F12b energy                 -40.456207076411
  CCSD-T-F12b energy                  -40.455903616937
 !CCSD(T)-F12b total energy           -40.455971460308

 Timing summary (sec):

 STEP                 CPU(USER)    SYS     CPU(TOT)    WALL
 Transformation        632.80     28.64    661.44    662.61
 CCSD iterations      2227.45    233.31   2460.76   2461.32
 Triples               652.46      5.94    658.40    658.46
 MP2-F12                53.59      2.30     55.89     56.06
 F12b energy           150.13     16.16    166.29    166.33

 Program statistics:

 Available memory in ccsd:              3999999866
 Min. memory needed in ccsd:              19260852
 Max. memory used in ccsd:                22423154
 Max. memory used in cckext:              14628952 (15 integral passes)



 **********************************************************************************************************************************
 DATASETS  * FILE   NREC   LENGTH (MB)   RECORD NAMES
              1      19     6330.34       500      610      700      900      950      970     1000      129      960     1100   
                                          VAR    BASINP    GEOM    SYMINP    ZMAT    AOBASIS   BASIS     P2S    ABASIS      S 
                                         1400     1410     1200     1210     1080     1600     1650     1700     1380   
                                           T        V       H0       H01     AOSYM     SMH    MOLCAS    OPER     JKOP   

              2       9       62.49       700     1000      520     2100     7360     7350      200     2101     2102   
                                         GEOM     BASIS   MCVARS     RHF    F12ABS    EF12    OPTIONS    RHF      RHF  

 PROGRAMS   *        TOTAL   CCSD(T)    HF-SCF       INT   CCSD(T)    HF-SCF       INT   CCSD(T)    HF-SCF       INT
 CPU TIMES  *     26334.25   3716.61   1750.86      0.47   3985.19   1619.72      1.52  11282.87   1882.57   2094.19
 REAL TIME  *     28874.73 SEC
 DISK USED  *        14.29 GB (local),      554.58 GB (total)
 SF USED    *        17.68 GB
 GA USED    *         4.87 MB       (max)       0.00 MB       (current)
 **********************************************************************************************************************************
 Molecular orbitals read from record     2102.2  Type=RHF/CANONICAL (state 1.1)
 Occupation numbers read from record     2102.2  Type=RHF/RHF (state 1.1)
 Orbital energies read from record       2102.2  Type=RHF/CANONICAL (state 1.1)
 Redundancy group numbers read from rec  2102.2  Type=RHF/RHF (state 1.1)

 CCSD(T)-F12/aug-cc-pV5Z energy=    -40.455971460308

     CCSD(T)-F12          HF-SCF     CCSD(T)-F12          HF-SCF     CCSD(T)-F12          HF-SCF
    -40.45597146    -40.21666689    -76.37348861    -76.06482219   -116.83025299   -116.28127635
 **********************************************************************************************************************************
 Molpro calculation terminated
