
 Primary working directories    : /scratch.ssd/kelum/job_380606.cerit-pbs.cerit-sc.cz/molpro.wnEfpBp2p5
 Secondary working directories  : /scratch.ssd/kelum/job_380606.cerit-pbs.cerit-sc.cz/molpro.wnEfpBp2p5
 Wavefunction directory         : /scratch.ssd/kelum/job_380606.cerit-pbs.cerit-sc.cz/
 Main file repository           : /scratch.ssd/kelum/job_380606.cerit-pbs.cerit-sc.cz/molpro.wnEfpBp2p5/

 id        : karlovklimes

 Nodes              nprocs
 zenon53.cerit-sc.cz    4

 Using customized tuning parameters: mindgm=1; mindgv=20; mindgc=4; mindgr=1; noblas=0; minvec=7
 default implementation of scratch files=sf  


 Variables initialized (934), CPU time= 0.01 sec
                                                                                 !gdirect
 memory,4000,m
 gthresh,orbital=1d-10,energy=1d-10
 
 symmetry,nosym
 angstrom
 geometry={
 O8        -2.441500000000      2.874300000000     -2.185500000000
 H15        -3.121200000000      3.446800000000     -1.780300000000
 H16        -2.892600000000      2.018700000000     -2.335200000000
 C1        -3.277200000000      1.482500000000      1.271900000000
 H41        -2.464000000000      0.899600000000      1.651000000000
 H42        -3.160800000000      2.501000000000      1.578500000000
 H43        -4.201800000000      1.099200000000      1.650100000000
 H44        -3.268500000000      1.421000000000      0.203700000000
 }
 
 nkerna=1
 nkernb=1
 
 gf=0
 sing=1
 thrdum=1d-4
 gridthr=1d-8
 
 basis={
 set,orbital
 default,av5z
 set,jkfit
 default,av5z/jkfit
 set,mp2fit
 default,av5z/mp2fit
 set,ri
 default,av5z/optri
 set,tddft
 default,av5z/mp2fit
 }
 
 proc set_monomer1
 dummy,4,5,6,7,8
 endproc
 
 proc set_monomer2
 dummy,1,2,3
 endproc
 
                                                                                 !12 energy
 {hf,accu=1.d-16}
 {ccsd(t)-f12,df_basis=mp2fit,df_basis_exch=jkfit,ri_basis=ri,scale_trip=1,THRAOF12=1d-10}
 
 set_monomer1
 {hf,accu=1.d-16}
 {ccsd(t)-f12,df_basis=mp2fit,df_basis_exch=jkfit,ri_basis=ri,scale_trip=1,THRAOF12=1d-10}
 
 set_monomer2
 {hf,accu=1.d-16}
 {ccsd(t)-f12,df_basis=mp2fit,df_basis_exch=jkfit,ri_basis=ri,scale_trip=1,THRAOF12=1d-10}
 
 Commands  initialized (763), CPU time= 0.01 sec, 617 directives.
 Default parameters read. Elapsed time= 0.45 sec

 Checking input...
 Passed
1


                                         ***  PROGRAM SYSTEM MOLPRO  ***
                                       Copyright, TTI GmbH Stuttgart, 2015
                                    Version 2019.2 linked Jun  8 2019 11:26:33


 **********************************************************************************************************************************
 LABEL *                                                                                 
  64 bit mpp version                                                                     DATE: 24-Mar-20          TIME: 10:34:30  
 **********************************************************************************************************************************

 SHA1:             8135a10abc80eafa5b3ae28ffc55be4890dc4c84
 **********************************************************************************************************************************

 THRESHOLDS:

 ZERO    =  1.00D-12  ONEINT  =  1.00D-12  TWOINT  =  1.00D-11  PREFAC  =  1.00D-14  XXXXXX  =  1.00D-09  EORDER  =  1.00D-04
 ENERGY  =  1.00D-10  ETEST   =  0.00D+00  EDENS   =  0.00D+00  THRDEDEF=  1.00D-06  GRADIENT=  1.00D-02  STEP    =  1.00D-03
 ORBITAL =  1.00D-10  CIVEC   =  1.00D-05  COEFF   =  1.00D-04  PRINTCI =  5.00D-02  PUNCHCI =  9.90D+01  OPTGRAD =  3.00D-04
 OPTENERG=  1.00D-06  OPTSTEP =  3.00D-04  THRGRAD =  1.00D-10  COMPRESS=  1.00D-11  VARMIN  =  1.00D-07  VARMAX  =  1.00D-03
 THRDOUB =  0.00D+00  THRDIV  =  1.00D-05  THRRED  =  1.00D-07  THRPSP  =  1.00D+00  THRDC   =  1.00D-10  THRCS   =  1.00D-10
 THRNRM  =  1.00D-08  THREQ   =  0.00D+00  THRDE   =  1.00D+00  THRREF  =  1.00D-05  SPARFAC =  1.00D+00  THRDLP  =  1.00D-07
 THRDIA  =  1.00D-10  THRDLS  =  1.00D-07  THRGPS  =  0.00D+00  THRKEX  =  0.00D+00  THRDIS  =  2.00D-01  THRVAR  =  1.00D-10
 THRLOC  =  1.00D-06  THRGAP  =  1.00D-06  THRLOCT = -1.00D+00  THRGAPT = -1.00D+00  THRORB  =  1.00D-06  THRMLTP =  0.00D+00
 THRCPQCI=  1.00D-10  KEXTA   =  0.00D+00  THRCOARS=  0.00D+00  SYMTOL  =  1.00D-06  GRADTOL =  1.00D-06  THROVL  =  1.00D-08
 THRORTH =  1.00D-08  GRID    =  1.00D-06  GRIDMAX =  1.00D-03  DTMAX   =  0.00D+00  THROCCDE=  1.00D-01  THROCCDE=  1.00D-01
 THRPRINT=  2.50D-01


 Variable memory set to 4000000000 words,  buffer space 

 ZSYMEL=NOSYM
 ZUNIT=ANG


Geometry recognized as XYZ

 SETTING NKERNA         =         1.00000000                                  
 SETTING NKERNB         =         1.00000000                                  
 SETTING GF             =     0.00000000D+00                                  
 SETTING SING           =         1.00000000                                  
 SETTING THRDUM         =     1.00000000D-04                                  
 SETTING GRIDTHR        =     1.00000000D-08                                  
 SETTING BASIS          =    AV5Z


 Recomputing integrals since basis changed


 Using spherical harmonics

 Library entry O      S aug-cc-pV5Z          selected for orbital group  1
 Library entry O      P aug-cc-pV5Z          selected for orbital group  1
 Library entry O      D aug-cc-pV5Z          selected for orbital group  1
 Library entry O      F aug-cc-pV5Z          selected for orbital group  1
 Library entry O      G aug-cc-pV5Z          selected for orbital group  1
 Library entry O      H aug-cc-pV5Z          selected for orbital group  1
 Library entry H      S aug-cc-pV5Z          selected for orbital group  2
 Library entry H      P aug-cc-pV5Z          selected for orbital group  2
 Library entry H      D aug-cc-pV5Z          selected for orbital group  2
 Library entry H      F aug-cc-pV5Z          selected for orbital group  2
 Library entry H      G aug-cc-pV5Z          selected for orbital group  2
 Library entry C      S aug-cc-pV5Z          selected for orbital group  3
 Library entry C      P aug-cc-pV5Z          selected for orbital group  3
 Library entry C      D aug-cc-pV5Z          selected for orbital group  3
 Library entry C      F aug-cc-pV5Z          selected for orbital group  3
 Library entry C      G aug-cc-pV5Z          selected for orbital group  3
 Library entry C      H aug-cc-pV5Z          selected for orbital group  3


 PROGRAM * SEWARD (Integral evaluation for generally contracted gaussian basis sets)     Author: Roland Lindh, 1990

 Geometry written to block  1 of record 700


 Point group  C1  



 ATOMIC COORDINATES

 NR  ATOM    CHARGE       X              Y              Z

   1  O8      8.00   -4.613766333    5.431639800   -4.129996445
   2  H15     1.00   -5.898213180    6.513508006   -3.364279420
   3  H16     1.00   -5.466221788    3.814790128   -4.412888446
   4  C1      6.00   -6.193010455    2.801518980    2.403542658
   5  H41     1.00   -4.656285171    1.699997622    3.119937832
   6  H42     1.00   -5.973046335    4.726205038    2.982932688
   7  H43     1.00   -7.940251230    2.077186956    3.118237078
   8  H44     1.00   -6.176569838    2.685300823    0.384937212

 Bond lengths in Bohr (Angstrom)

 1-2  1.845688241  1-3  1.849570504  4-5  2.021904040  4-6  2.022002335  4-7  2.021953343
     ( 0.976696155)     ( 0.978750561)     ( 1.069945541)     ( 1.069997556)     ( 1.069971630)

 4-8  2.022015060
     ( 1.070004290)

 Bond angles

  2-1-3  104.78050181   5-4-6  109.53398059   5-4-7  109.65604535   5-4-8  108.43490854

  6-4-7  109.49436728   6-4-8  109.86987750   7-4-8  109.83468330

 NUCLEAR CHARGE:                   20
 NUMBER OF PRIMITIVE AOS:        1046
 NUMBER OF SYMMETRY AOS:          786
 NUMBER OF CONTRACTIONS:          734   (  734A   )
 NUMBER OF CORE ORBITALS:           2   (    2A   )
 NUMBER OF VALENCE ORBITALS:       14   (   14A   )


 NUCLEAR REPULSION ENERGY   36.70371194


 Basis set:  JKFIT                   
 Basis size:  1104
 Attributes:
 Sphericals:   T
 Basis set:  MP2FIT                  
 Basis size:  1246
 Attributes:
 Sphericals:   T
 Basis set:  RI                      
 Basis size:   730
 Attributes:
 Sphericals:   T
 Basis set:  TDDFT                   
 Basis size:  1246
 Attributes:
 Sphericals:   T

 **********************************************************************************************************************************


 Eigenvalues of metric

         1 0.139E-05 0.202E-05 0.330E-05 0.430E-05 0.523E-05 0.690E-05 0.871E-05 0.900E-05


 Contracted 2-electron integrals neglected if value below      1.0D-14
 AO integral compression algorithm  1   Integral accuracy      1.0D-14

     153096.815 MB (compressed) written to integral file ( 48.5%)

     Node minimum: 32914.014 MB, node maximum: 40747.139 MB


 NUMBER OF SORTED TWO-ELECTRON INTEGRALS: 9095363064.     BUFFER LENGTH:  32768
 NUMBER OF SEGMENTS: 190  SEGMENT LENGTH:   47999780      RECORD LENGTH: 131072

 Memory used in sort:      48.16 MW

 SORT1 READ 39471948705. AND WROTE  6995122922. INTEGRALS IN  80155 RECORDS. CPU TIME:   930.07 SEC, REAL TIME:  1085.55 SEC
 SORT2 READ 27991639461. AND WROTE 36381317385. INTEGRALS IN 502228 RECORDS. CPU TIME:   118.23 SEC, REAL TIME:   432.88 SEC

 Node minimum:  9095228192.  Node maximum:  9095430501. integrals

 OPERATOR DM      FOR CENTER  0  COORDINATES:    0.000000    0.000000    0.000000


 **********************************************************************************************************************************
 DATASETS  * FILE   NREC   LENGTH (MB)   RECORD NAMES
              1      18       49.80       500      610      700      900      950      970     1000      129      960     1100   
                                          VAR    BASINP    GEOM    SYMINP    ZMAT    AOBASIS   BASIS     P2S    ABASIS      S 
                                         1400     1410     1200     1210     1080     1600     1650     1700   
                                           T        V       H0       H01     AOSYM     SMH    MOLCAS    OPER   

 PROGRAMS   *        TOTAL       INT
 CPU TIMES  *      1613.49   1613.26
 REAL TIME  *      2128.88 SEC
 DISK USED  *        50.44 MB (local),      491.09 GB (total)
 GA USED    *         0.00 MB       (max)       0.00 MB       (current)
 **********************************************************************************************************************************


 PROGRAM * RHF-SCF (CLOSED SHELL)       Authors: W. Meyer, H.-J. Werner


 NUMBER OF ELECTRONS:      10+   10-    SPACE SYMMETRY=1    SPIN SYMMETRY: Singlet 
 CONVERGENCE THRESHOLDS:    1.00E-08 (Density)    1.00E-11 (Energy)
 MAX. NUMBER OF ITERATIONS:       60
 INTERPOLATION TYPE:            DIIS
 INTERPOLATION STEPS:              2 (START)      1 (STEP)
 LEVEL SHIFTS:                  0.00 (CLOSED)  0.00 (OPEN) 



 Orbital guess generated from atomic densities. Full valence occupancy:   16

 Molecular orbital dump at record        2100.2

 Initial occupancy:  10

 ITERATION    DDIFF          GRAD             ENERGY        2-EL.EN.            DIPOLE MOMENTS         DIIS   ORB.
    1      0.000D+00      0.000D+00      -116.22236039    158.812410   -1.08727   -0.27441    0.24282    0    start
    2      0.000D+00      0.291D-02      -116.26669083    153.991048   -0.59406   -0.15417    0.16365    1    diag
    3      0.162D-02      0.171D-02      -116.28024555    156.015802   -0.72162   -0.18511    0.18220    2    diag
    4      0.555D-03      0.255D-03      -116.28090908    155.902859   -0.71205   -0.18272    0.17865    3    diag
    5      0.128D-03      0.749D-04      -116.28097909    155.898224   -0.71175   -0.18288    0.17894    4    diag
    6      0.531D-04      0.182D-04      -116.28098305    155.903863   -0.71102   -0.18286    0.17888    5    diag
    7      0.192D-04      0.373D-05      -116.28098329    155.902137   -0.71106   -0.18290    0.17893    6    diag
    8      0.558D-05      0.952D-06      -116.28098331    155.902320   -0.71100   -0.18290    0.17895    7    diag
    9      0.123D-05      0.221D-06      -116.28098331    155.902292   -0.71098   -0.18290    0.17895    8    diag
   10      0.331D-06      0.271D-07      -116.28098331    155.902293   -0.71098   -0.18290    0.17895    9    orth
   11      0.607D-07      0.687D-08      -116.28098331    155.902294   -0.71098   -0.18290    0.17895    9    diag
   12      0.615D-08      0.200D-08      -116.28098331    155.902294   -0.71098   -0.18290    0.17895    0    orth

 Final occupancy:  10

 !RHF STATE  1.1 Energy              -116.280983311614
 Nuclear energy                        36.70371194
 One-electron energy                 -230.93584213
 Two-electron energy                   77.95114688
 Virial quotient                       -1.00060957
 !RHF STATE  1.1 Dipole moment         -0.71097596    -0.18290091     0.17895480
 Dipole moment /Debye                  -1.80700229    -0.46485729     0.45482794

 Orbital energies:

         1.1          2.1          3.1          4.1          5.1          6.1          7.1          8.1          9.1         10.1
    -20.567196   -11.198661    -1.342270    -0.953394    -0.707283    -0.581411    -0.555087    -0.552763    -0.551159    -0.507549

        11.1         12.1
      0.020092     0.034135


 HOMO     10.1    -0.507549 =     -13.8111eV
 LUMO     11.1     0.020092 =       0.5467eV
 LUMO-HOMO         0.527641 =      14.3579eV


 **********************************************************************************************************************************
 DATASETS  * FILE   NREC   LENGTH (MB)   RECORD NAMES
              1      18       49.80       500      610      700      900      950      970     1000      129      960     1100   
                                          VAR    BASINP    GEOM    SYMINP    ZMAT    AOBASIS   BASIS     P2S    ABASIS      S 
                                         1400     1410     1200     1210     1080     1600     1650     1700   
                                           T        V       H0       H01     AOSYM     SMH    MOLCAS    OPER   

              2       4       13.79       700     1000      520     2100   
                                         GEOM     BASIS   MCVARS     RHF  

 PROGRAMS   *        TOTAL    HF-SCF       INT
 CPU TIMES  *      2817.23   1203.74   1613.26
 REAL TIME  *      3497.90 SEC
 DISK USED  *       102.61 MB (local),      491.30 GB (total)
 SF USED    *         2.16 MB
 GA USED    *         0.00 MB       (max)       0.00 MB       (current)
 **********************************************************************************************************************************

 Basis set:  JKFIT                   
 Basis size:  1104
 Attributes:
 Sphericals:   T
 Basis set:  MP2FIT                  
 Basis size:  1246
 Attributes:
 Sphericals:   T
 Basis set:  RI                      
 Basis size:   730
 Attributes:
 Sphericals:   T
 Basis set:  TDDFT                   
 Basis size:  1246
 Attributes:
 Sphericals:   T

 PROGRAM * CCSD (Closed-shell coupled cluster)     Authors: C. Hampel, H.-J. Werner, 1991, M. Deegan, P.J. Knowles, 1992

                                  CCSD-F12 implementation by  H.-J. Werner, 2007

                   Density fitting integral evaluation by F.R. Manby, 2003,2007, G. Knizia, 2010



 Convergence thresholds:  THRVAR = 1.00D-08  THRDEN = 1.00D-10

 CCSD(T)     terms to be evaluated (factor= 1.000)


 Number of core orbitals:           2 (   2 )
 Number of closed-shell orbitals:   8 (   8 )
 Number of external orbitals:     724 ( 724 )

 Molecular orbitals read from record     2100.2  Type=RHF/CANONICAL (state 1.1)

 MP2-F12 correlation treatment (H.-J. Werner, 2006)
 ==================================================

 Using MP2-F12 with ansatz 3C(FIX)

 Using projected zeroth-order Hamiltonian (+Z)

 FOCKRIB=T FOCKRIC=T FOCKRIP=T CABSP=T CABSA=T CABSK=T CABSF=T GBC=F EBC=F DMAT=T NOFIK=T NOPAO=1 SOLVE=-1  USEPAO=0
 EXCH_A= T EXCH_B= F EXCH_C= F EXCH_P= F

 Geminal basis:    OPTFULL  GEM_TYPE=SLATER  BETA=1.0  NGEM=6

 Optimizing Gaussian exponents for each gem_beta

 Geminal optimization for beta= 1.0000
 Weight function:   m=0, omega= 1.4646

 Augmented Hessian optimization of geminal fit. Trust ratio= 0.40000
 Convergence reached after   2 iterations. Final gradient= 7.85D-16, Step= 4.26D-06, Delta= 1.28D-09

 Alpha:                 0.19532     0.81920     2.85917     9.50073    35.69989   197.79328
 Coeff:                 0.27070     0.30552     0.18297     0.10986     0.06810     0.04224


 All pairs explicitly correlated. Number of r12-pairs:           36

 Excluding core orbitals from MO domains

 AO(A)-basis ORBITAL           loaded. Number of functions:     734
 RI(R)-basis RI                loaded. Number of functions:     730
 DF-basis JKFIT                loaded. Number of functions:    1104

 Screening thresholds:   THRAO=  1.00D-10  THRMO=  1.00D-09  THRPROD=  1.00D-09
                         THRSW=  1.00D-05  THROV=  1.00D-12  THRAOF12= 1.00D-10

 CPU time for Fock operators                     11.55 sec

 Construction of ABS:
 Smallest eigenvalue of S          2.25E-04  (threshold= 1.00E-08)
 Ratio eigmin/eigmax               3.91E-05  (threshold= 1.00E-09)
 Smallest eigenvalue of S kept     2.25E-04  (threshold= 2.25E-04, 0 functions deleted, 730 kept)

 Construction of CABS:
 Smallest eigenvalue of S          8.86E-09  (threshold= 1.00E-08)
 Ratio eigmin/eigmax               8.86E-09  (threshold= 1.00E-09)
 Smallest eigenvalue of S kept     7.60E-08  (threshold= 7.60E-08, 1 functions deleted, 729 kept)

 CPU time for CABS singles                        3.04 sec

 CABS-singles contribution of  -0.00007930 patched into reference energy.
 New reference energy        -116.28106261

 AO(A)-basis ORBITAL           loaded. Number of functions:     734
 RI(R)-basis RI                loaded. Number of functions:     730
 DF-basis MP2FIT               loaded. Number of functions:    1246

 Screening thresholds:   THRAO=  1.00D-10  THRMO=  1.00D-09  THRPROD=  1.00D-09
                         THRSW=  1.00D-05  THROV=  1.00D-12  THRAOF12= 1.00D-10

 CPU time for 3-index integral evaluation        25.27 sec
 CPU time for first  half transformation          6.06 sec ( 4890.1 MFLOP/sec)
 CPU time for second half transformation          0.10 sec ( 2564.9 MFLOP/sec)
 CPU time for sorting                             0.23 sec
 CPU time for fitting                             1.27 sec ( 7305.4 MFLOP/sec)
 CPU time for tilde quantities                    1.69 sec ( 8150.2 MFLOP/sec)
 CPU time for assembly                           16.02 sec ( 7952.7 MFLOP/sec)
 CPU time for tranop_f12                         21.02 sec ( 7935.3 MFLOP/sec)
 CPU time for f12 integrals (total)              99.31 sec, Elapsed time:    103.67 sec
 F12-matrices built in  4 passes.
 F12-matrices built in  4 passes.
 F12-matrices built in  4 passes.
 F12-matrices built in  4 passes.
 FC-matrix built in  4 passes.
 CPU time for f12 matrices (total)               15.10 sec, Elapsed time:     15.45 sec

 Diagonal F12 approximation with fixed coefficients:  TSING= 0.500,  TTRIP= 0.250 (scaled by -1/beta)

 DF-MP2-F12 energy corrections:
 ==============================
 Approx.                                    Singlet             Triplet             Total
 DF-MP2-F12/3*C(DX,FIX)                -0.011190728458     -0.000786546568     -0.011977275026
 DF-MP2-F12/3*C(FIX)                   -0.010380799032     -0.000515703428     -0.010896502460
 DF-MP2-F12/3C(FIX)                    -0.010491949680     -0.000531322383     -0.011023272063

 DF-MP2-F12 correlation energies:
 ================================
 Approx.                                    Singlet             Triplet             Ecorr            Total Energy
 DF-MP2                                -0.350288609123     -0.159753134399     -0.510041743522   -116.791104352534
 DF-MP2-F12/3*C(DX,FIX)                -0.361479337581     -0.160539680967     -0.522019018548   -116.803081627559
 DF-MP2-F12/3*C(FIX)                   -0.360669408155     -0.160268837827     -0.520938245982   -116.802000854993
 DF-MP2-F12/3C(FIX)                    -0.360780558803     -0.160284456783     -0.521065015586   -116.802127624597

 SCS-DF-MP2 energies (F_SING= 1.20000  F_TRIP= 0.62222  F_PARALLEL= 0.33333):
 ============================================================================
 SCS-DF-MP2                            -0.519748281241   -116.800810890252
 SCS-DF-MP2-F12/3*C(DX,FIX)            -0.533666562144   -116.814729171155
 SCS-DF-MP2-F12/3*C(FIX)               -0.532526122212   -116.813588731223
 SCS-DF-MP2-F12/3C(FIX)                -0.532669221451   -116.813731830462
 Symmetry transformation completed.

 Number of N-1 electron functions:               8
 Number of N-2 electron functions:              36
 Number of singly external CSFs:              5792
 Number of doubly external CSFs:          16776528
 Total number of CSFs:                    16782321

 Pair and operator lists are different

 Length of J-op  integral file:               1.47 GB
 Length of K-op  integral file:               2.18 GB
 Length of 3-ext integral record:             0.00 MB

 For full I/O caching in triples, increase memory by 34.16 Mwords to 4034.21 Mwords.

 Integral transformation finished. Total CPU:1487.24 sec, npass=  1  Memory used:1826.21 MW

 Reference energy:                   -116.28106261

 Adding F12 terms to K(Cij), methodcc=6,  factor= 1.0

 ITER.      SQ.NORM     CORR.ENERGY   TOTAL ENERGY   ENERGY CHANGE        DEN1      VAR(S)    VAR(P)  DIIS     TIME  TIME/IT
   1      1.13431374    -0.52204416  -116.80310677    -0.01198962    -0.00005943  0.14D-02  0.20D-02  1  1  2329.54   715.03
   2      1.14257784    -0.52309480  -116.80415741    -0.00105064    -0.01022305  0.33D-04  0.25D-03  2  2  3040.18   724.96
   3      1.14581114    -0.52325881  -116.80432142    -0.00016401    -0.00233853  0.12D-04  0.14D-04  3  3  3735.94   725.51
   4      1.14677117    -0.52326319  -116.80432580    -0.00000438    -0.00053112  0.68D-06  0.13D-05  4  4  4441.07   726.55
   5      1.14694137    -0.52326500  -116.80432761    -0.00000181    -0.00004277  0.21D-06  0.95D-07  5  5  5140.59   726.90
   6      1.14698800    -0.52326225  -116.80432486     0.00000275    -0.00000822  0.23D-07  0.84D-08  6  6  5833.48   726.12
   7      1.14699904    -0.52326101  -116.80432362     0.00000124    -0.00000276  0.24D-08  0.11D-08  6  2  6530.76   726.23
   8      1.14700194    -0.52326074  -116.80432335     0.00000027    -0.00000047  0.37D-09  0.12D-09  6  1  7237.45   727.19
   9      1.14700283    -0.52326071  -116.80432332     0.00000003    -0.00000000  0.36D-10  0.18D-10  6  3  7941.32   727.77
  10      1.14700301    -0.52326071  -116.80432332     0.00000000     0.00000007  0.38D-11  0.25D-11  6  4  8638.53   727.67
  11      1.14700298    -0.52326072  -116.80432332    -0.00000001     0.00000008  0.62D-12  0.32D-12  6  5  9350.18   728.99
  12      1.14700296    -0.52326072  -116.80432333    -0.00000000     0.00000002  0.12D-12  0.43D-13  6  6 10056.23   729.41
  13      1.14700295    -0.52326072  -116.80432333    -0.00000000     0.00000001  0.24D-13  0.62D-14  6  2 10780.46   731.23
  14      1.14700294    -0.52326072  -116.80432333    -0.00000000     0.00000000  0.43D-14  0.14D-14  6  1 11482.10   731.17
  15      1.14700294    -0.52326072  -116.80432333    -0.00000000    -0.00000000  0.65D-15  0.26D-15  6  3 12184.78   731.03
  16      1.14700294    -0.52326072  -116.80432333    -0.00000000    -0.00000000  0.13D-15  0.42D-16  6  4 12909.06   732.52
  17      1.14700294    -0.52326072  -116.80432333     0.00000000    -0.00000000  0.45D-16  0.11D-16  6  5 13632.41   733.68

 Norm of t1 vector:      0.04986329      S-energy:    -0.00000000      T1 diagnostic:  0.00881467
                                                                       D1 diagnostic:  0.01950520

 Adding energy correction from Wij-K(Fij), methodcc=6  factor= 1.0

  CCSD correlation energy              -0.523260718120
  MP2-F12 correction (uncoupled)       -0.010846234167
  C*T doubles correction               -0.000159243640
  f12b correction                       0.002682507273

   CPU time for triples:   2031.06 sec for i =  1 -  4 /  8 (~  14.3 % done)
   CPU time for triples:   2025.10 sec for i =  5 -  5 /  8 (~  26.8 % done)
   CPU time for triples:   2053.89 sec for i =  6 -  6 /  8 (~  44.6 % done)
   CPU time for triples:   3626.79 sec for i =  7 -  7 /  8 (~  68.8 % done)
   CPU time for triples:   4625.09 sec for i =  8 -  8 /  8 (  100.0 % done)

 Total CPU time for triples:  14362.09 sec

  Ecorr(MP2)                           -0.510054537375
  Ecorr(MP2-F12)                       -0.521077809438
  Scale factor for triples energy       1.021611947852


 RESULTS
 =======

  Reference energy                   -116.280983311614
  F12 singles correction               -0.000079297397

 F12 singles corrections added to reference energy

  New reference energy               -116.281062609011

  F12a singlet correction              -0.010433818144
  F12a triplet correction              -0.000571659663
  F12a total correction                -0.011005477807

 F12a corrections for ansatz F12/3C(FIX) added to CCSD energy

  CCSD-F12a singlet pair energy        -0.387604227333
  CCSD-F12a triplet pair energy        -0.146661968224
  CCSD-F12a correlation energy         -0.534266195927

  Triples (T) contribution (scaled)    -0.017328248613
  Total correlation energy             -0.551594444541

  CCSD-F12a total energy             -116.815328804939
  CCSD[T]-F12a energy                -116.833215459218
  CCSD-T-F12a energy                 -116.832446574580
 !CCSD(T)-F12a total energy          -116.832657053552

 F12b corrections for ansatz F12/3C(FIX) added to CCSD(T)-F12a energy

  CCSD-F12b singlet pair energy        -0.385014466343
  CCSD-F12b triplet pair energy        -0.146569221942
  CCSD-F12b correlation energy         -0.531583688654

  Triples (T) contribution (scaled)    -0.017328248613
  Total correlation energy             -0.548911937268

  CCSD-F12b total energy             -116.812646297666
  CCSD[T]-F12b energy                -116.830532951945
  CCSD-T-F12b energy                 -116.829764067307
 !CCSD(T)-F12b total energy          -116.829974546279

 Timing summary (sec):

 STEP                 CPU(USER)    SYS     CPU(TOT)    WALL
 Transformation       1490.38     32.47   1522.85   1541.83
 CCSD iterations     12001.07    221.72  12222.79  12473.32
 Triples             14362.09     19.60  14381.69  14768.04
 MP2-F12               141.29      4.32    145.61    147.39
 F12b energy           630.09     10.75    640.84    655.01

 Program statistics:

 Available memory in ccsd:              3999999554
 Min. memory needed in ccsd:              48689265
 Max. memory used in ccsd:                63255345
 Max. memory used in cckext:              42753482 (18 integral passes)



 **********************************************************************************************************************************
 DATASETS  * FILE   NREC   LENGTH (MB)   RECORD NAMES
              1      19    12452.16       500      610      700      900      950      970     1000      129      960     1100   
                                          VAR    BASINP    GEOM    SYMINP    ZMAT    AOBASIS   BASIS     P2S    ABASIS      S 
                                         1400     1410     1200     1210     1080     1600     1650     1700     1380   
                                           T        V       H0       H01     AOSYM     SMH    MOLCAS    OPER     JKOP   

              2       6       24.60       700     1000      520     2100     7360     7350   
                                         GEOM     BASIS   MCVARS     RHF    F12ABS    EF12   

 PROGRAMS   *        TOTAL   CCSD(T)    HF-SCF       INT
 CPU TIMES  *     31442.32  28625.09   1203.74   1613.26
 REAL TIME  *     33086.12 SEC
 DISK USED  *        14.29 GB (local),      542.61 GB (total)
 SF USED    *        17.68 GB
 GA USED    *         4.87 MB       (max)       0.00 MB       (current)
 **********************************************************************************************************************************

 Running procedure: SET_MONOMER1

 Dummy atoms: C1  H41  H42  H43  H44


 Recomputing one-electron integrals since nuclear charges changed


 PROGRAM * SEWARD (Integral evaluation for generally contracted gaussian basis sets)     Author: Roland Lindh, 1990

 Geometry written to block  1 of record 700


 Point group  C1  



 ATOMIC COORDINATES

 NR  ATOM    CHARGE       X              Y              Z

   1  O8      8.00   -4.613766333    5.431639800   -4.129996445
   2  H15     1.00   -5.898213180    6.513508006   -3.364279420
   3  H16     1.00   -5.466221788    3.814790128   -4.412888446
   4  C1      0.00   -6.193010455    2.801518980    2.403542658
   5  H41     0.00   -4.656285171    1.699997622    3.119937832
   6  H42     0.00   -5.973046335    4.726205038    2.982932688
   7  H43     0.00   -7.940251230    2.077186956    3.118237078
   8  H44     0.00   -6.176569838    2.685300823    0.384937212

 Bond lengths in Bohr (Angstrom)

 1-2  1.845688241  1-3  1.849570504  4-5  2.021904040  4-6  2.022002335  4-7  2.021953343
     ( 0.976696155)     ( 0.978750561)     ( 1.069945541)     ( 1.069997556)     ( 1.069971630)

 4-8  2.022015060
     ( 1.070004290)

 Bond angles

  2-1-3  104.78050181   5-4-6  109.53398059   5-4-7  109.65604535   5-4-8  108.43490854

  6-4-7  109.49436728   6-4-8  109.86987750   7-4-8  109.83468330

 NUCLEAR CHARGE:                   10
 NUMBER OF PRIMITIVE AOS:        1046
 NUMBER OF SYMMETRY AOS:          786
 NUMBER OF CONTRACTIONS:          734   (  734A   )
 NUMBER OF CORE ORBITALS:           1   (    1A   )
 NUMBER OF VALENCE ORBITALS:        6   (    6A   )

 MOLECULE CHANGED: INITIALIZING OCCUPATION AND DUMP RECORDS


 NUCLEAR REPULSION ENERGY    9.00136291

 Basis set:  JKFIT                   
 Basis size:  1104
 Attributes:
 Sphericals:   T
 Basis set:  MP2FIT                  
 Basis size:  1246
 Attributes:
 Sphericals:   T
 Basis set:  RI                      
 Basis size:   730
 Attributes:
 Sphericals:   T
 Basis set:  TDDFT                   
 Basis size:  1246
 Attributes:
 Sphericals:   T

 Eigenvalues of metric

         1 0.139E-05 0.202E-05 0.330E-05 0.430E-05 0.523E-05 0.690E-05 0.871E-05 0.900E-05


 Contracted 2-electron integrals neglected if value below      1.0D-14

 OPERATOR DM      FOR CENTER  0  COORDINATES:    0.000000    0.000000    0.000000


 **********************************************************************************************************************************
 DATASETS  * FILE   NREC   LENGTH (MB)   RECORD NAMES
              1      18       49.80       500      610      700      900      950      970     1000      129      960     1100   
                                          VAR    BASINP    GEOM    SYMINP    ZMAT    AOBASIS   BASIS     P2S    ABASIS      S 
                                         1400     1410     1200     1210     1080     1600     1650     1700   
                                           T        V       H0       H01     AOSYM     SMH    MOLCAS    OPER   

              2       7       24.63       700     1000      520     2100     7360     7350      200   
                                         GEOM     BASIS   MCVARS     RHF    F12ABS    EF12    OPTIONS    

 PROGRAMS   *        TOTAL       INT   CCSD(T)    HF-SCF       INT
 CPU TIMES  *     31443.07      0.75  28625.09   1203.74   1613.26
 REAL TIME  *     33088.80 SEC
 DISK USED  *        14.29 GB (local),      542.61 GB (total)
 SF USED    *        17.68 GB
 GA USED    *         4.87 MB       (max)       0.00 MB       (current)
 **********************************************************************************************************************************


 PROGRAM * RHF-SCF (CLOSED SHELL)       Authors: W. Meyer, H.-J. Werner


 NUMBER OF ELECTRONS:       5+    5-    SPACE SYMMETRY=1    SPIN SYMMETRY: Singlet 
 CONVERGENCE THRESHOLDS:    1.00E-08 (Density)    1.00E-11 (Energy)
 MAX. NUMBER OF ITERATIONS:       60
 INTERPOLATION TYPE:            DIIS
 INTERPOLATION STEPS:              2 (START)      1 (STEP)
 LEVEL SHIFTS:                  0.00 (CLOSED)  0.00 (OPEN) 



 Orbital guess generated from atomic densities. Full valence occupancy:    7

 Molecular orbital dump at record        2101.2

 Initial occupancy:   5

 ITERATION    DDIFF          GRAD             ENERGY        2-EL.EN.            DIPOLE MOMENTS         DIIS   ORB.
    1      0.000D+00      0.000D+00       -76.02639313     77.417567   -1.09436   -0.27463    0.24704    0    start
    2      0.000D+00      0.360D-02       -76.05325425     73.760993   -0.63479   -0.15869    0.14351    1    diag
    3      0.131D-02      0.229D-02       -76.06486639     75.386718   -0.74970   -0.18755    0.16944    2    diag
    4      0.494D-03      0.215D-03       -76.06506121     75.295023   -0.74510   -0.18628    0.16844    3    diag
    5      0.625D-04      0.603D-04       -76.06508232     75.309685   -0.74344   -0.18581    0.16808    4    diag
    6      0.200D-04      0.121D-04       -76.06508370     75.308609   -0.74306   -0.18570    0.16800    5    diag
    7      0.527D-05      0.246D-05       -76.06508377     75.308754   -0.74294   -0.18567    0.16798    6    diag
    8      0.142D-05      0.463D-06       -76.06508377     75.308742   -0.74290   -0.18566    0.16797    7    diag
    9      0.321D-06      0.625D-07       -76.06508377     75.308733   -0.74290   -0.18566    0.16797    8    diag
   10      0.520D-07      0.137D-07       -76.06508377     75.308736   -0.74290   -0.18566    0.16797    9    orth
   11      0.889D-08      0.241D-08       -76.06508377     75.308735   -0.74290   -0.18566    0.16797    0    orth

 Final occupancy:   5

 !RHF STATE  1.1 Energy               -76.065083773740
 Nuclear energy                         9.00136291
 One-electron energy                 -122.72081424
 Two-electron energy                   37.65436755
 Virial quotient                       -1.00190129
 !RHF STATE  1.1 Dipole moment         -0.74289593    -0.18565676     0.16796876
 Dipole moment /Debye                  -1.88812943    -0.47186150     0.42690603

 Orbital energies:

         1.1          2.1          3.1          4.1          5.1          6.1          7.1
    -20.567435    -1.342107    -0.707179    -0.580526    -0.508791     0.015357     0.032856


 HOMO      5.1    -0.508791 =     -13.8449eV
 LUMO      6.1     0.015357 =       0.4179eV
 LUMO-HOMO         0.524148 =      14.2628eV


 **********************************************************************************************************************************
 DATASETS  * FILE   NREC   LENGTH (MB)   RECORD NAMES
              1      18       49.80       500      610      700      900      950      970     1000      129      960     1100   
                                          VAR    BASINP    GEOM    SYMINP    ZMAT    AOBASIS   BASIS     P2S    ABASIS      S 
                                         1400     1410     1200     1210     1080     1600     1650     1700   
                                           T        V       H0       H01     AOSYM     SMH    MOLCAS    OPER   

              2       8       38.40       700     1000      520     2100     7360     7350      200     2101   
                                         GEOM     BASIS   MCVARS     RHF    F12ABS    EF12    OPTIONS    RHF  

 PROGRAMS   *        TOTAL    HF-SCF       INT   CCSD(T)    HF-SCF       INT
 CPU TIMES  *     32604.70   1161.63      0.75  28625.09   1203.74   1613.26
 REAL TIME  *     34399.91 SEC
 DISK USED  *        14.29 GB (local),      542.61 GB (total)
 SF USED    *        17.68 GB
 GA USED    *         4.87 MB       (max)       0.00 MB       (current)
 **********************************************************************************************************************************

 Basis set:  JKFIT                   
 Basis size:  1104
 Attributes:
 Sphericals:   T
 Basis set:  MP2FIT                  
 Basis size:  1246
 Attributes:
 Sphericals:   T
 Basis set:  RI                      
 Basis size:   730
 Attributes:
 Sphericals:   T
 Basis set:  TDDFT                   
 Basis size:  1246
 Attributes:
 Sphericals:   T

 PROGRAM * CCSD (Closed-shell coupled cluster)     Authors: C. Hampel, H.-J. Werner, 1991, M. Deegan, P.J. Knowles, 1992

                                  CCSD-F12 implementation by  H.-J. Werner, 2007

                   Density fitting integral evaluation by F.R. Manby, 2003,2007, G. Knizia, 2010



 Convergence thresholds:  THRVAR = 1.00D-08  THRDEN = 1.00D-10

 CCSD(T)     terms to be evaluated (factor= 1.000)


 Number of core orbitals:           1 (   1 )
 Number of closed-shell orbitals:   4 (   4 )
 Number of external orbitals:     729 ( 729 )

 Molecular orbitals read from record     2101.2  Type=RHF/CANONICAL (state 1.1)

 MP2-F12 correlation treatment (H.-J. Werner, 2006)
 ==================================================

 Using MP2-F12 with ansatz 3C(FIX)

 Using projected zeroth-order Hamiltonian (+Z)

 FOCKRIB=T FOCKRIC=T FOCKRIP=T CABSP=T CABSA=T CABSK=T CABSF=T GBC=F EBC=F DMAT=T NOFIK=T NOPAO=1 SOLVE=-1  USEPAO=0
 EXCH_A= T EXCH_B= F EXCH_C= F EXCH_P= F

 Geminal basis:    OPTFULL  GEM_TYPE=SLATER  BETA=1.0  NGEM=6

 Optimizing Gaussian exponents for each gem_beta

 Geminal optimization for beta= 1.0000
 Weight function:   m=0, omega= 1.4646

 Augmented Hessian optimization of geminal fit. Trust ratio= 0.40000
 Convergence reached after   2 iterations. Final gradient= 8.31D-16, Step= 4.24D-06, Delta= 1.28D-09

 Alpha:                 0.19532     0.81920     2.85917     9.50073    35.69989   197.79328
 Coeff:                 0.27070     0.30552     0.18297     0.10986     0.06810     0.04224


 All pairs explicitly correlated. Number of r12-pairs:           10

 Excluding core orbitals from MO domains

 AO(A)-basis ORBITAL           loaded. Number of functions:     734
 RI(R)-basis RI                loaded. Number of functions:     730
 DF-basis JKFIT                loaded. Number of functions:    1104

 Screening thresholds:   THRAO=  1.00D-10  THRMO=  1.00D-09  THRPROD=  1.00D-09
                         THRSW=  1.00D-05  THROV=  1.00D-12  THRAOF12= 1.00D-10

 CPU time for Fock operators                      9.95 sec

 Construction of ABS:
 Smallest eigenvalue of S          2.25E-04  (threshold= 1.00E-08)
 Ratio eigmin/eigmax               3.91E-05  (threshold= 1.00E-09)
 Smallest eigenvalue of S kept     2.25E-04  (threshold= 2.25E-04, 0 functions deleted, 730 kept)

 Construction of CABS:
 Smallest eigenvalue of S          8.86E-09  (threshold= 1.00E-08)
 Ratio eigmin/eigmax               8.86E-09  (threshold= 1.00E-09)
 Smallest eigenvalue of S kept     7.60E-08  (threshold= 7.60E-08, 1 functions deleted, 729 kept)

 CPU time for CABS singles                        3.07 sec

 CABS-singles contribution of  -0.00003860 patched into reference energy.
 New reference energy         -76.06512237

 AO(A)-basis ORBITAL           loaded. Number of functions:     734
 RI(R)-basis RI                loaded. Number of functions:     730
 DF-basis MP2FIT               loaded. Number of functions:    1246

 Screening thresholds:   THRAO=  1.00D-10  THRMO=  1.00D-09  THRPROD=  1.00D-09
                         THRSW=  1.00D-05  THROV=  1.00D-12  THRAOF12= 1.00D-10

 CPU time for 3-index integral evaluation        25.95 sec
 CPU time for first  half transformation          4.08 sec ( 3740.8 MFLOP/sec)
 CPU time for second half transformation          0.03 sec ( 2145.7 MFLOP/sec)
 CPU time for sorting                             0.10 sec
 CPU time for fitting                             1.26 sec ( 7240.1 MFLOP/sec)
 CPU time for tilde quantities                    1.70 sec ( 8065.8 MFLOP/sec)
 CPU time for assembly                            5.22 sec ( 7441.6 MFLOP/sec)
 CPU time for tranop_f12                          5.95 sec ( 7173.5 MFLOP/sec)
 CPU time for f12 integrals (total)              53.50 sec, Elapsed time:     56.00 sec
 F12-matrices built in  4 passes.
 F12-matrices built in  4 passes.
 F12-matrices built in  4 passes.
 F12-matrices built in  4 passes.
 FC-matrix built in  4 passes.
 CPU time for f12 matrices (total)                4.49 sec, Elapsed time:      4.78 sec

 Diagonal F12 approximation with fixed coefficients:  TSING= 0.500,  TTRIP= 0.250 (scaled by -1/beta)

 DF-MP2-F12 energy corrections:
 ==============================
 Approx.                                    Singlet             Triplet             Total
 DF-MP2-F12/3*C(DX,FIX)                -0.007251969519     -0.000571772473     -0.007823741992
 DF-MP2-F12/3*C(FIX)                   -0.006605371825     -0.000352758267     -0.006958130092
 DF-MP2-F12/3C(FIX)                    -0.006669499549     -0.000364995718     -0.007034495267

 DF-MP2-F12 correlation energies:
 ================================
 Approx.                                    Singlet             Triplet             Ecorr            Total Energy
 DF-MP2                                -0.192181463621     -0.102281275492     -0.294462739113    -76.359585110752
 DF-MP2-F12/3*C(DX,FIX)                -0.199433433140     -0.102853047965     -0.302286481105    -76.367408852744
 DF-MP2-F12/3*C(FIX)                   -0.198786835446     -0.102634033759     -0.301420869205    -76.366543240844
 DF-MP2-F12/3C(FIX)                    -0.198850963170     -0.102646271210     -0.301497234381    -76.366619606020

 SCS-DF-MP2 energies (F_SING= 1.20000  F_TRIP= 0.62222  F_PARALLEL= 0.33333):
 ============================================================================
 SCS-DF-MP2                            -0.294259438874    -76.359381810513
 SCS-DF-MP2-F12/3*C(DX,FIX)            -0.303317571835    -76.368439943474
 SCS-DF-MP2-F12/3*C(FIX)               -0.302405379096    -76.367527750735
 SCS-DF-MP2-F12/3C(FIX)                -0.302489946780    -76.367612318419
 Symmetry transformation completed.

 Number of N-1 electron functions:               4
 Number of N-2 electron functions:              10
 Number of singly external CSFs:              2916
 Number of doubly external CSFs:           4252986
 Total number of CSFs:                     4255903

 Pair and operator lists are different

 Length of J-op  integral file:             411.24 MB
 Length of K-op  integral file:             721.80 MB
 Length of 3-ext integral record:             0.00 MB

 Memory could be reduced to 2535.14 Mwords without degradation in triples

 Integral transformation finished. Total CPU: 820.32 sec, npass=  1  Memory used:1009.99 MW

 Reference energy:                    -76.06512237

 Adding F12 terms to K(Cij), methodcc=6,  factor= 1.0

 ITER.      SQ.NORM     CORR.ENERGY   TOTAL ENERGY   ENERGY CHANGE        DEN1      VAR(S)    VAR(P)  DIIS     TIME  TIME/IT
   1      1.06365981    -0.29290409   -76.35802646     0.00156485     0.00762517  0.79D-03  0.10D-02  1  1  1115.01   231.99
   2      1.06718490    -0.29299818   -76.35812056    -0.00009410    -0.00498175  0.15D-04  0.12D-03  2  2  1350.08   242.93
   3      1.06851950    -0.29309047   -76.35821284    -0.00009229    -0.00094775  0.82D-05  0.73D-05  3  3  1581.16   244.98
   4      1.06903212    -0.29309596   -76.35821833    -0.00000549    -0.00028005  0.53D-06  0.74D-06  4  4  1808.82   245.11
   5      1.06913680    -0.29309469   -76.35821707     0.00000127    -0.00003131  0.17D-06  0.56D-07  5  5  2073.09   252.93
   6      1.06917108    -0.29309248   -76.35821485     0.00000222    -0.00000579  0.20D-07  0.47D-08  6  6  2323.62   256.09
   7      1.06917957    -0.29309191   -76.35821428     0.00000056    -0.00000134  0.17D-08  0.86D-09  6  2  2558.21   255.66
   8      1.06918161    -0.29309178   -76.35821415     0.00000013    -0.00000010  0.24D-09  0.93D-10  6  1  2792.42   255.10
   9      1.06918227    -0.29309175   -76.35821412     0.00000003     0.00000006  0.22D-10  0.10D-10  6  3  3033.90   255.85
  10      1.06918243    -0.29309174   -76.35821411     0.00000001     0.00000001  0.22D-11  0.13D-11  6  4  3287.39   257.70
  11      1.06918243    -0.29309174   -76.35821411    -0.00000000     0.00000004  0.43D-12  0.15D-12  6  5  3531.08   258.32
  12      1.06918243    -0.29309174   -76.35821411    -0.00000000     0.00000001  0.78D-13  0.23D-13  6  6  3774.03   258.88
  13      1.06918242    -0.29309174   -76.35821412    -0.00000000     0.00000000  0.14D-13  0.41D-14  6  2  4018.71   259.39
  14      1.06918242    -0.29309174   -76.35821412    -0.00000000     0.00000000  0.19D-14  0.73D-15  6  1  4253.91   259.18
  15      1.06918242    -0.29309174   -76.35821412    -0.00000000    -0.00000000  0.22D-15  0.12D-15  6  3  4481.40   258.38
  16      1.06918242    -0.29309174   -76.35821412     0.00000000    -0.00000000  0.42D-16  0.18D-16  6  4  4720.81   258.43

 Norm of t1 vector:      0.03671021      S-energy:    -0.00000000      T1 diagnostic:  0.00917755
                                                                       D1 diagnostic:  0.01871742

 Adding energy correction from Wij-K(Fij), methodcc=6  factor= 1.0

  CCSD correlation energy              -0.293091744376
  MP2-F12 correction (uncoupled)       -0.006955355476
  C*T doubles correction               -0.000089896171
  f12b correction                       0.001579882555


 Total CPU time for triples:   2058.80 sec

  Ecorr(MP2)                           -0.294468937009
  Ecorr(MP2-F12)                       -0.301503432276
  Scale factor for triples energy       1.023888751522


 RESULTS
 =======

  Reference energy                    -76.065083773741
  F12 singles correction               -0.000038597898

 F12 singles corrections added to reference energy

  New reference energy                -76.065122371639

  F12a singlet correction              -0.006646922031
  F12a triplet correction              -0.000398329616
  F12a total correction                -0.007045251647

 F12a corrections for ansatz F12/3C(FIX) added to CCSD energy

  CCSD-F12a singlet pair energy        -0.209343650167
  CCSD-F12a triplet pair energy        -0.090793345231
  CCSD-F12a correlation energy         -0.300136996023

  Triples (T) contribution (scaled)    -0.010045056951
  Total correlation energy             -0.310182052974

  CCSD-F12a total energy              -76.365259367662
  CCSD[T]-F12a energy                 -76.375621983837
  CCSD-T-F12a energy                  -76.375165178677
 !CCSD(T)-F12a total energy           -76.375304424613

 F12b corrections for ansatz F12/3C(FIX) added to CCSD(T)-F12a energy

  CCSD-F12b singlet pair energy        -0.207826975150
  CCSD-F12b triplet pair energy        -0.090730137693
  CCSD-F12b correlation energy         -0.298557113468

  Triples (T) contribution (scaled)    -0.010045056951
  Total correlation energy             -0.308602170419

  CCSD-F12b total energy              -76.363679485107
  CCSD[T]-F12b energy                 -76.374042101282
  CCSD-T-F12b energy                  -76.373585296123
 !CCSD(T)-F12b total energy           -76.373724542058

 Timing summary (sec):

 STEP                 CPU(USER)    SYS     CPU(TOT)    WALL
 Transformation        821.34     22.02    843.36    863.30
 CCSD iterations      3821.76    197.30   4019.06   4135.34
 Triples              2058.80      4.82   2063.62   2099.79
 MP2-F12                77.99      1.75     79.74     81.78
 F12b energy           219.76     10.52    230.28    237.70

 Program statistics:

 Available memory in ccsd:              3999999871
 Min. memory needed in ccsd:              19260852
 Max. memory used in ccsd:                22423154
 Max. memory used in cckext:              14628952 (17 integral passes)



 **********************************************************************************************************************************
 DATASETS  * FILE   NREC   LENGTH (MB)   RECORD NAMES
              1      19     6330.34       500      610      700      900      950      970     1000      129      960     1100   
                                          VAR    BASINP    GEOM    SYMINP    ZMAT    AOBASIS   BASIS     P2S    ABASIS      S 
                                         1400     1410     1200     1210     1080     1600     1650     1700     1380   
                                           T        V       H0       H01     AOSYM     SMH    MOLCAS    OPER     JKOP   

              2       8       38.40       700     1000      520     2100     7360     7350      200     2101   
                                         GEOM     BASIS   MCVARS     RHF    F12ABS    EF12    OPTIONS    RHF  

 PROGRAMS   *        TOTAL   CCSD(T)    HF-SCF       INT   CCSD(T)    HF-SCF       INT
 CPU TIMES  *     39604.51   6999.80   1161.63      0.75  28625.09   1203.74   1613.26
 REAL TIME  *     41819.15 SEC
 DISK USED  *        14.29 GB (local),      542.61 GB (total)
 SF USED    *        17.68 GB
 GA USED    *         4.87 MB       (max)       0.00 MB       (current)
 **********************************************************************************************************************************

 Running procedure: SET_MONOMER2

 Dummy atoms: O8  H15  H16


 Recomputing one-electron integrals since nuclear charges changed


 PROGRAM * SEWARD (Integral evaluation for generally contracted gaussian basis sets)     Author: Roland Lindh, 1990

 Geometry written to block  1 of record 700


 Point group  C1  



 ATOMIC COORDINATES

 NR  ATOM    CHARGE       X              Y              Z

   1  O8      0.00   -4.613766333    5.431639800   -4.129996445
   2  H15     0.00   -5.898213180    6.513508006   -3.364279420
   3  H16     0.00   -5.466221788    3.814790128   -4.412888446
   4  C1      6.00   -6.193010455    2.801518980    2.403542658
   5  H41     1.00   -4.656285171    1.699997622    3.119937832
   6  H42     1.00   -5.973046335    4.726205038    2.982932688
   7  H43     1.00   -7.940251230    2.077186956    3.118237078
   8  H44     1.00   -6.176569838    2.685300823    0.384937212

 Bond lengths in Bohr (Angstrom)

 1-2  1.845688241  1-3  1.849570504  4-5  2.021904040  4-6  2.022002335  4-7  2.021953343
     ( 0.976696155)     ( 0.978750561)     ( 1.069945541)     ( 1.069997556)     ( 1.069971630)

 4-8  2.022015060
     ( 1.070004290)

 Bond angles

  2-1-3  104.78050181   5-4-6  109.53398059   5-4-7  109.65604535   5-4-8  108.43490854

  6-4-7  109.49436728   6-4-8  109.86987750   7-4-8  109.83468330

 NUCLEAR CHARGE:                   10
 NUMBER OF PRIMITIVE AOS:        1046
 NUMBER OF SYMMETRY AOS:          786
 NUMBER OF CONTRACTIONS:          734   (  734A   )
 NUMBER OF CORE ORBITALS:           1   (    1A   )
 NUMBER OF VALENCE ORBITALS:        8   (    8A   )

 MOLECULE CHANGED: INITIALIZING OCCUPATION AND DUMP RECORDS


 NUCLEAR REPULSION ENERGY   13.68681606

 Basis set:  JKFIT                   
 Basis size:  1104
 Attributes:
 Sphericals:   T
 Basis set:  MP2FIT                  
 Basis size:  1246
 Attributes:
 Sphericals:   T
 Basis set:  RI                      
 Basis size:   730
 Attributes:
 Sphericals:   T
 Basis set:  TDDFT                   
 Basis size:  1246
 Attributes:
 Sphericals:   T

 Eigenvalues of metric

         1 0.139E-05 0.202E-05 0.330E-05 0.430E-05 0.523E-05 0.690E-05 0.871E-05 0.900E-05


 Contracted 2-electron integrals neglected if value below      1.0D-14

 OPERATOR DM      FOR CENTER  0  COORDINATES:    0.000000    0.000000    0.000000


 **********************************************************************************************************************************
 DATASETS  * FILE   NREC   LENGTH (MB)   RECORD NAMES
              1      18       49.80       500      610      700      900      950      970     1000      129      960     1100   
                                          VAR    BASINP    GEOM    SYMINP    ZMAT    AOBASIS   BASIS     P2S    ABASIS      S 
                                         1400     1410     1200     1210     1080     1600     1650     1700   
                                           T        V       H0       H01     AOSYM     SMH    MOLCAS    OPER   

              2       8       38.40       700     1000      520     2100     7360     7350      200     2101   
                                         GEOM     BASIS   MCVARS     RHF    F12ABS    EF12    OPTIONS    RHF  

 PROGRAMS   *        TOTAL       INT   CCSD(T)    HF-SCF       INT   CCSD(T)    HF-SCF       INT
 CPU TIMES  *     39605.26      0.74   6999.80   1161.63      0.75  28625.09   1203.74   1613.26
 REAL TIME  *     41820.80 SEC
 DISK USED  *        14.29 GB (local),      542.61 GB (total)
 SF USED    *        17.68 GB
 GA USED    *         4.87 MB       (max)       0.00 MB       (current)
 **********************************************************************************************************************************


 PROGRAM * RHF-SCF (CLOSED SHELL)       Authors: W. Meyer, H.-J. Werner


 NUMBER OF ELECTRONS:       5+    5-    SPACE SYMMETRY=1    SPIN SYMMETRY: Singlet 
 CONVERGENCE THRESHOLDS:    1.00E-08 (Density)    1.00E-11 (Energy)
 MAX. NUMBER OF ITERATIONS:       60
 INTERPOLATION TYPE:            DIIS
 INTERPOLATION STEPS:              2 (START)      1 (STEP)
 LEVEL SHIFTS:                  0.00 (CLOSED)  0.00 (OPEN) 



 Orbital guess generated from atomic densities. Full valence occupancy:    9

 Molecular orbital dump at record        2102.2

 Initial occupancy:   5

 ITERATION    DDIFF          GRAD             ENERGY        2-EL.EN.            DIPOLE MOMENTS         DIIS   ORB.
    1      0.000D+00      0.000D+00       -40.19676551     53.509906    0.00411   -0.00276   -0.00130    0    start
    2      0.000D+00      0.198D-02       -40.21405770     52.218482    0.00128   -0.00087   -0.00038    1    diag
    3      0.949D-03      0.769D-03       -40.21634113     52.673989    0.00182   -0.00123   -0.00055    2    diag
    4      0.262D-03      0.192D-03       -40.21666146     52.619252    0.00162   -0.00110   -0.00048    3    diag
    5      0.104D-03      0.248D-04       -40.21666694     52.621410    0.00159   -0.00108   -0.00047    4    diag
    6      0.356D-04      0.204D-05       -40.21666698     52.621538    0.00159   -0.00108   -0.00047    5    diag
    7      0.597D-05      0.166D-06       -40.21666698     52.621500    0.00159   -0.00108   -0.00047    6    diag
    8      0.333D-06      0.136D-07       -40.21666698     52.621501    0.00159   -0.00108   -0.00047    7    diag
    9      0.584D-07      0.167D-08       -40.21666698     52.621501    0.00159   -0.00108   -0.00047    8    diag
   10      0.103D-07      0.465D-09       -40.21666698     52.621501    0.00159   -0.00108   -0.00047    9    orth
   11      0.106D-08      0.667D-10       -40.21666698     52.621501    0.00159   -0.00108   -0.00047    0    orth

 Final occupancy:   5

 !RHF STATE  1.1 Energy               -40.216666981166
 Nuclear energy                        13.68681606
 One-electron energy                  -80.21423329
 Two-electron energy                   26.31075026
 Virial quotient                       -0.99832812
 !RHF STATE  1.1 Dipole moment          0.00158665    -0.00107865    -0.00047072
 Dipole moment /Debye                   0.00403260    -0.00274148    -0.00119638

 Orbital energies:

         1.1          2.1          3.1          4.1          5.1          6.1          7.1
    -11.196017    -0.950605    -0.551931    -0.549996    -0.547818     0.021240     0.034268


 HOMO      5.1    -0.547818 =     -14.9069eV
 LUMO      6.1     0.021240 =       0.5780eV
 LUMO-HOMO         0.569057 =      15.4848eV


 **********************************************************************************************************************************
 DATASETS  * FILE   NREC   LENGTH (MB)   RECORD NAMES
              1      18       49.80       500      610      700      900      950      970     1000      129      960     1100   
                                          VAR    BASINP    GEOM    SYMINP    ZMAT    AOBASIS   BASIS     P2S    ABASIS      S 
                                         1400     1410     1200     1210     1080     1600     1650     1700   
                                           T        V       H0       H01     AOSYM     SMH    MOLCAS    OPER   

              2       9       62.49       700     1000      520     2100     7360     7350      200     2101     2102   
                                         GEOM     BASIS   MCVARS     RHF    F12ABS    EF12    OPTIONS    RHF      RHF  

 PROGRAMS   *        TOTAL    HF-SCF       INT   CCSD(T)    HF-SCF       INT   CCSD(T)    HF-SCF       INT
 CPU TIMES  *     40801.76   1196.50      0.74   6999.80   1161.63      0.75  28625.09   1203.74   1613.26
 REAL TIME  *     43164.52 SEC
 DISK USED  *        14.29 GB (local),      542.61 GB (total)
 SF USED    *        17.68 GB
 GA USED    *         4.87 MB       (max)       0.00 MB       (current)
 **********************************************************************************************************************************

 Basis set:  JKFIT                   
 Basis size:  1104
 Attributes:
 Sphericals:   T
 Basis set:  MP2FIT                  
 Basis size:  1246
 Attributes:
 Sphericals:   T
 Basis set:  RI                      
 Basis size:   730
 Attributes:
 Sphericals:   T
 Basis set:  TDDFT                   
 Basis size:  1246
 Attributes:
 Sphericals:   T

 PROGRAM * CCSD (Closed-shell coupled cluster)     Authors: C. Hampel, H.-J. Werner, 1991, M. Deegan, P.J. Knowles, 1992

                                  CCSD-F12 implementation by  H.-J. Werner, 2007

                   Density fitting integral evaluation by F.R. Manby, 2003,2007, G. Knizia, 2010



 Convergence thresholds:  THRVAR = 1.00D-08  THRDEN = 1.00D-10

 CCSD(T)     terms to be evaluated (factor= 1.000)


 Number of core orbitals:           1 (   1 )
 Number of closed-shell orbitals:   4 (   4 )
 Number of external orbitals:     729 ( 729 )

 Molecular orbitals read from record     2102.2  Type=RHF/CANONICAL (state 1.1)

 MP2-F12 correlation treatment (H.-J. Werner, 2006)
 ==================================================

 Using MP2-F12 with ansatz 3C(FIX)

 Using projected zeroth-order Hamiltonian (+Z)

 FOCKRIB=T FOCKRIC=T FOCKRIP=T CABSP=T CABSA=T CABSK=T CABSF=T GBC=F EBC=F DMAT=T NOFIK=T NOPAO=1 SOLVE=-1  USEPAO=0
 EXCH_A= T EXCH_B= F EXCH_C= F EXCH_P= F

 Geminal basis:    OPTFULL  GEM_TYPE=SLATER  BETA=1.0  NGEM=6

 Optimizing Gaussian exponents for each gem_beta

 Geminal optimization for beta= 1.0000
 Weight function:   m=0, omega= 1.4646

 Augmented Hessian optimization of geminal fit. Trust ratio= 0.40000
 Convergence reached after   2 iterations. Final gradient= 7.85D-16, Step= 4.26D-06, Delta= 1.28D-09

 Alpha:                 0.19532     0.81920     2.85917     9.50073    35.69989   197.79328
 Coeff:                 0.27070     0.30552     0.18297     0.10986     0.06810     0.04224


 All pairs explicitly correlated. Number of r12-pairs:           10

 Excluding core orbitals from MO domains

 AO(A)-basis ORBITAL           loaded. Number of functions:     734
 RI(R)-basis RI                loaded. Number of functions:     730
 DF-basis JKFIT                loaded. Number of functions:    1104

 Screening thresholds:   THRAO=  1.00D-10  THRMO=  1.00D-09  THRPROD=  1.00D-09
                         THRSW=  1.00D-05  THROV=  1.00D-12  THRAOF12= 1.00D-10

 CPU time for Fock operators                      9.90 sec

 Construction of ABS:
 Smallest eigenvalue of S          2.25E-04  (threshold= 1.00E-08)
 Ratio eigmin/eigmax               3.91E-05  (threshold= 1.00E-09)
 Smallest eigenvalue of S kept     2.25E-04  (threshold= 2.25E-04, 0 functions deleted, 730 kept)

 Construction of CABS:
 Smallest eigenvalue of S          8.86E-09  (threshold= 1.00E-08)
 Ratio eigmin/eigmax               8.86E-09  (threshold= 1.00E-09)
 Smallest eigenvalue of S kept     7.60E-08  (threshold= 7.60E-08, 1 functions deleted, 729 kept)

 CPU time for CABS singles                        3.08 sec

 CABS-singles contribution of  -0.00004070 patched into reference energy.
 New reference energy         -40.21670768

 AO(A)-basis ORBITAL           loaded. Number of functions:     734
 RI(R)-basis RI                loaded. Number of functions:     730
 DF-basis MP2FIT               loaded. Number of functions:    1246

 Screening thresholds:   THRAO=  1.00D-10  THRMO=  1.00D-09  THRPROD=  1.00D-09
                         THRSW=  1.00D-05  THROV=  1.00D-12  THRAOF12= 1.00D-10

 CPU time for 3-index integral evaluation        25.38 sec
 CPU time for first  half transformation          3.97 sec ( 3805.0 MFLOP/sec)
 CPU time for second half transformation          0.05 sec ( 1351.7 MFLOP/sec)
 CPU time for sorting                             0.11 sec
 CPU time for fitting                             1.20 sec ( 7602.2 MFLOP/sec)
 CPU time for tilde quantities                    1.66 sec ( 8260.1 MFLOP/sec)
 CPU time for assembly                            4.90 sec ( 7377.7 MFLOP/sec)
 CPU time for tranop_f12                          5.77 sec ( 7126.1 MFLOP/sec)
 CPU time for f12 integrals (total)              51.91 sec, Elapsed time:     53.51 sec
 F12-matrices built in  4 passes.
 F12-matrices built in  4 passes.
 F12-matrices built in  4 passes.
 F12-matrices built in  4 passes.
 FC-matrix built in  4 passes.
 CPU time for f12 matrices (total)                4.41 sec, Elapsed time:      4.51 sec

 Diagonal F12 approximation with fixed coefficients:  TSING= 0.500,  TTRIP= 0.250 (scaled by -1/beta)

 DF-MP2-F12 energy corrections:
 ==============================
 Approx.                                    Singlet             Triplet             Total
 DF-MP2-F12/3*C(DX,FIX)                -0.003931395124     -0.000212889124     -0.004144284248
 DF-MP2-F12/3*C(FIX)                   -0.003768217478     -0.000160776170     -0.003928993648
 DF-MP2-F12/3C(FIX)                    -0.003814912874     -0.000163801112     -0.003978713986

 DF-MP2-F12 correlation energies:
 ================================
 Approx.                                    Singlet             Triplet             Ecorr            Total Energy
 DF-MP2                                -0.157872428456     -0.056825170318     -0.214697598774    -40.431405281086
 DF-MP2-F12/3*C(DX,FIX)                -0.161803823581     -0.057038059442     -0.218841883023    -40.435549565334
 DF-MP2-F12/3*C(FIX)                   -0.161640645935     -0.056985946488     -0.218626592422    -40.435334274734
 DF-MP2-F12/3C(FIX)                    -0.161687341331     -0.056988971429     -0.218676312760    -40.435383995072

 SCS-DF-MP2 energies (F_SING= 1.20000  F_TRIP= 0.62222  F_PARALLEL= 0.33333):
 ============================================================================
 SCS-DF-MP2                            -0.224804797901    -40.441512480213
 SCS-DF-MP2-F12/3*C(DX,FIX)            -0.229654936394    -40.446362618706
 SCS-DF-MP2-F12/3*C(FIX)               -0.229426697380    -40.446134379692
 SCS-DF-MP2-F12/3C(FIX)                -0.229484614041    -40.446192296353
 Symmetry transformation completed.

 Number of N-1 electron functions:               4
 Number of N-2 electron functions:              10
 Number of singly external CSFs:              2916
 Number of doubly external CSFs:           4252986
 Total number of CSFs:                     4255903

 Pair and operator lists are different

 Length of J-op  integral file:             411.24 MB
 Length of K-op  integral file:             721.80 MB
 Length of 3-ext integral record:             0.00 MB

 Memory could be reduced to 2535.14 Mwords without degradation in triples

 Integral transformation finished. Total CPU: 806.13 sec, npass=  1  Memory used:1009.99 MW

 Reference energy:                    -40.21670768

 Adding F12 terms to K(Cij), methodcc=6,  factor= 1.0

 ITER.      SQ.NORM     CORR.ENERGY   TOTAL ENERGY   ENERGY CHANGE        DEN1      VAR(S)    VAR(P)  DIIS     TIME  TIME/IT
   1      1.07033699    -0.22827463   -40.44498231    -0.01357033    -0.00771589  0.62D-03  0.94D-03  1  1  1107.21   235.30
   2      1.07515871    -0.22923197   -40.44593965    -0.00095734    -0.00531238  0.16D-04  0.11D-03  2  2  1336.53   238.52
   3      1.07694860    -0.22929932   -40.44600701    -0.00006735    -0.00133801  0.22D-05  0.64D-05  3  3  1565.92   239.56
   4      1.07735140    -0.22930176   -40.44600944    -0.00000243    -0.00021861  0.16D-06  0.39D-06  4  4  1806.97   243.19
   5      1.07740871    -0.22930533   -40.44601301    -0.00000357    -0.00000967  0.14D-07  0.24D-07  5  5  2032.88   242.41
   6      1.07741896    -0.22930399   -40.44601167     0.00000134    -0.00000403  0.90D-09  0.19D-08  6  6  2252.56   240.70
   7      1.07742049    -0.22930359   -40.44601127     0.00000040    -0.00000091  0.56D-10  0.13D-09  6  1  2473.34   239.66
   8      1.07742042    -0.22930364   -40.44601133    -0.00000006     0.00000024  0.62D-11  0.89D-11  6  3  2710.34   240.85
   9      1.07742057    -0.22930363   -40.44601131     0.00000002    -0.00000009  0.43D-12  0.63D-12  6  2  2933.26   240.32
  10      1.07742057    -0.22930363   -40.44601131     0.00000000     0.00000001  0.59D-13  0.65D-13  6  4  3160.15   240.35
  11      1.07742057    -0.22930363   -40.44601131     0.00000000    -0.00000000  0.60D-14  0.66D-14  6  5  3389.67   240.62
  12      1.07742057    -0.22930363   -40.44601131     0.00000000     0.00000000  0.18D-15  0.67D-15  6  6  3616.52   240.48
  13      1.07742057    -0.22930363   -40.44601131    -0.00000000     0.00000000  0.14D-16  0.74D-16  6  1  3845.46   240.64
  14      1.07742057    -0.22930363   -40.44601131    -0.00000000     0.00000000  0.21D-17  0.12D-16  6  3  4064.55   240.02

 Norm of t1 vector:      0.03268876      S-energy:     0.00000000      T1 diagnostic:  0.00817219
                                                                       D1 diagnostic:  0.01311232

 Adding energy correction from Wij-K(Fij), methodcc=6  factor= 1.0

  CCSD correlation energy              -0.229303625656
  MP2-F12 correction (uncoupled)       -0.003882461435
  C*T doubles correction               -0.000068430474
  f12b correction                       0.001099715723

 Total CPU time for triples:   2048.55 sec

  Ecorr(MP2)                           -0.214704301419
  Ecorr(MP2-F12)                       -0.218683015404
  Scale factor for triples energy       1.018531133095


 RESULTS
 =======

  Reference energy                    -40.216666981166
  F12 singles correction               -0.000040701146

 F12 singles corrections added to reference energy

  New reference energy                -40.216707682312

  F12a singlet correction              -0.003779796696
  F12a triplet correction              -0.000171095213
  F12a total correction                -0.003950891909

 F12a corrections for ansatz F12/3C(FIX) added to CCSD energy

  CCSD-F12a singlet pair energy        -0.178095936864
  CCSD-F12a triplet pair energy        -0.055158580705
  CCSD-F12a correlation energy         -0.233254517565

  Triples (T) contribution (scaled)    -0.007109388491
  Total correlation energy             -0.240363906056

  CCSD-F12a total energy              -40.449962199877
  CCSD[T]-F12a energy                 -40.457307200561
  CCSD-T-F12a energy                  -40.457003747234
 !CCSD(T)-F12a total energy           -40.457071588368

 F12b corrections for ansatz F12/3C(FIX) added to CCSD(T)-F12a energy

  CCSD-F12b singlet pair energy        -0.177025332808
  CCSD-F12b triplet pair energy        -0.055129469037
  CCSD-F12b correlation energy         -0.232154801842

  Triples (T) contribution (scaled)    -0.007109388491
  Total correlation energy             -0.239264190333

  CCSD-F12b total energy              -40.448862484154
  CCSD[T]-F12b energy                 -40.456207484838
  CCSD-T-F12b energy                  -40.455904031511
 !CCSD(T)-F12b total energy           -40.455971872645

 Timing summary (sec):

 STEP                 CPU(USER)    SYS     CPU(TOT)    WALL
 Transformation        807.14     21.26    828.40    832.18
 CCSD iterations      3181.61    159.00   3340.61   3360.77
 Triples              2048.55      4.37   2052.92   2068.11
 MP2-F12                76.07      1.76     77.83     78.35
 F12b energy           222.57     10.03    232.60    234.29

 Program statistics:

 Available memory in ccsd:              3999999866
 Min. memory needed in ccsd:              19260852
 Max. memory used in ccsd:                22423154
 Max. memory used in cckext:              14628952 (15 integral passes)



 **********************************************************************************************************************************
 DATASETS  * FILE   NREC   LENGTH (MB)   RECORD NAMES
              1      19     6330.34       500      610      700      900      950      970     1000      129      960     1100   
                                          VAR    BASINP    GEOM    SYMINP    ZMAT    AOBASIS   BASIS     P2S    ABASIS      S 
                                         1400     1410     1200     1210     1080     1600     1650     1700     1380   
                                           T        V       H0       H01     AOSYM     SMH    MOLCAS    OPER     JKOP   

              2       9       62.49       700     1000      520     2100     7360     7350      200     2101     2102   
                                         GEOM     BASIS   MCVARS     RHF    F12ABS    EF12    OPTIONS    RHF      RHF  

 PROGRAMS   *        TOTAL   CCSD(T)    HF-SCF       INT   CCSD(T)    HF-SCF       INT   CCSD(T)    HF-SCF       INT
 CPU TIMES  *     47137.90   6336.13   1196.50      0.74   6999.80   1161.63      0.75  28625.09   1203.74   1613.26
 REAL TIME  *     49739.62 SEC
 DISK USED  *        14.29 GB (local),      542.61 GB (total)
 SF USED    *        17.68 GB
 GA USED    *         4.87 MB       (max)       0.00 MB       (current)
 **********************************************************************************************************************************
 Molecular orbitals read from record     2102.2  Type=RHF/CANONICAL (state 1.1)
 Occupation numbers read from record     2102.2  Type=RHF/RHF (state 1.1)
 Orbital energies read from record       2102.2  Type=RHF/CANONICAL (state 1.1)
 Redundancy group numbers read from rec  2102.2  Type=RHF/RHF (state 1.1)

 CCSD(T)-F12/aug-cc-pV5Z energy=    -40.455971872645

     CCSD(T)-F12          HF-SCF     CCSD(T)-F12          HF-SCF     CCSD(T)-F12          HF-SCF
    -40.45597187    -40.21666698    -76.37372454    -76.06508377   -116.82997455   -116.28098331
 **********************************************************************************************************************************
 Molpro calculation terminated
