
 Primary working directories    : /scratch.ssd/kelum/job_380607.cerit-pbs.cerit-sc.cz/molpro.CEDN4V7TQ9
 Secondary working directories  : /scratch.ssd/kelum/job_380607.cerit-pbs.cerit-sc.cz/molpro.CEDN4V7TQ9
 Wavefunction directory         : /scratch.ssd/kelum/job_380607.cerit-pbs.cerit-sc.cz/
 Main file repository           : /scratch.ssd/kelum/job_380607.cerit-pbs.cerit-sc.cz/molpro.CEDN4V7TQ9/

 id        : karlovklimes

 Nodes             nprocs
 zelda3.cerit-sc.cz    4

 Using customized tuning parameters: mindgm=1; mindgv=20; mindgc=4; mindgr=1; noblas=0; minvec=7
 default implementation of scratch files=sf  


 Variables initialized (934), CPU time= 0.00 sec
                                                                                 !gdirect
 memory,4000,m
 gthresh,orbital=1d-10,energy=1d-10
 
 symmetry,nosym
 angstrom
 geometry={
 O9        -3.518900000000     -2.419500000000      0.991300000000
 H17        -3.388900000000     -3.371800000000      0.893300000000
 H18        -2.990700000000     -2.010200000000      0.231000000000
 C1        -3.277200000000      1.482500000000      1.271900000000
 H41        -2.464000000000      0.899600000000      1.651000000000
 H42        -3.160800000000      2.501000000000      1.578500000000
 H43        -4.201800000000      1.099200000000      1.650100000000
 H44        -3.268500000000      1.421000000000      0.203700000000
 }
 
 nkerna=1
 nkernb=1
 
 gf=0
 sing=1
 thrdum=1d-4
 gridthr=1d-8
 
 basis={
 set,orbital
 default,av5z
 set,jkfit
 default,av5z/jkfit
 set,mp2fit
 default,av5z/mp2fit
 set,ri
 default,av5z/optri
 set,tddft
 default,av5z/mp2fit
 }
 
 proc set_monomer1
 dummy,4,5,6,7,8
 endproc
 
 proc set_monomer2
 dummy,1,2,3
 endproc
 
                                                                                 !12 energy
 {hf,accu=1.d-16}
 {ccsd(t)-f12,df_basis=mp2fit,df_basis_exch=jkfit,ri_basis=ri,scale_trip=1,THRAOF12=1d-10}
 
 set_monomer1
 {hf,accu=1.d-16}
 {ccsd(t)-f12,df_basis=mp2fit,df_basis_exch=jkfit,ri_basis=ri,scale_trip=1,THRAOF12=1d-10}
 
 set_monomer2
 {hf,accu=1.d-16}
 {ccsd(t)-f12,df_basis=mp2fit,df_basis_exch=jkfit,ri_basis=ri,scale_trip=1,THRAOF12=1d-10}
 
 Commands  initialized (763), CPU time= 0.02 sec, 617 directives.
 Default parameters read. Elapsed time= 0.10 sec

 Checking input...
 Passed
1


                                         ***  PROGRAM SYSTEM MOLPRO  ***
                                       Copyright, TTI GmbH Stuttgart, 2015
                                    Version 2019.2 linked Jun  8 2019 11:26:33


 **********************************************************************************************************************************
 LABEL *                                                                                 
  64 bit mpp version                                                                     DATE: 24-Mar-20          TIME: 10:54:21  
 **********************************************************************************************************************************

 SHA1:             8135a10abc80eafa5b3ae28ffc55be4890dc4c84
 **********************************************************************************************************************************

 THRESHOLDS:

 ZERO    =  1.00D-12  ONEINT  =  1.00D-12  TWOINT  =  1.00D-11  PREFAC  =  1.00D-14  XXXXXX  =  1.00D-09  EORDER  =  1.00D-04
 ENERGY  =  1.00D-10  ETEST   =  0.00D+00  EDENS   =  0.00D+00  THRDEDEF=  1.00D-06  GRADIENT=  1.00D-02  STEP    =  1.00D-03
 ORBITAL =  1.00D-10  CIVEC   =  1.00D-05  COEFF   =  1.00D-04  PRINTCI =  5.00D-02  PUNCHCI =  9.90D+01  OPTGRAD =  3.00D-04
 OPTENERG=  1.00D-06  OPTSTEP =  3.00D-04  THRGRAD =  1.00D-10  COMPRESS=  1.00D-11  VARMIN  =  1.00D-07  VARMAX  =  1.00D-03
 THRDOUB =  0.00D+00  THRDIV  =  1.00D-05  THRRED  =  1.00D-07  THRPSP  =  1.00D+00  THRDC   =  1.00D-10  THRCS   =  1.00D-10
 THRNRM  =  1.00D-08  THREQ   =  0.00D+00  THRDE   =  1.00D+00  THRREF  =  1.00D-05  SPARFAC =  1.00D+00  THRDLP  =  1.00D-07
 THRDIA  =  1.00D-10  THRDLS  =  1.00D-07  THRGPS  =  0.00D+00  THRKEX  =  0.00D+00  THRDIS  =  2.00D-01  THRVAR  =  1.00D-10
 THRLOC  =  1.00D-06  THRGAP  =  1.00D-06  THRLOCT = -1.00D+00  THRGAPT = -1.00D+00  THRORB  =  1.00D-06  THRMLTP =  0.00D+00
 THRCPQCI=  1.00D-10  KEXTA   =  0.00D+00  THRCOARS=  0.00D+00  SYMTOL  =  1.00D-06  GRADTOL =  1.00D-06  THROVL  =  1.00D-08
 THRORTH =  1.00D-08  GRID    =  1.00D-06  GRIDMAX =  1.00D-03  DTMAX   =  0.00D+00  THROCCDE=  1.00D-01  THROCCDE=  1.00D-01
 THRPRINT=  2.50D-01


 Variable memory set to 4000000000 words,  buffer space 

 ZSYMEL=NOSYM
 ZUNIT=ANG


Geometry recognized as XYZ

 SETTING NKERNA         =         1.00000000                                  
 SETTING NKERNB         =         1.00000000                                  
 SETTING GF             =     0.00000000D+00                                  
 SETTING SING           =         1.00000000                                  
 SETTING THRDUM         =     1.00000000D-04                                  
 SETTING GRIDTHR        =     1.00000000D-08                                  
 SETTING BASIS          =    AV5Z


 Recomputing integrals since basis changed


 Using spherical harmonics

 Library entry O      S aug-cc-pV5Z          selected for orbital group  1
 Library entry O      P aug-cc-pV5Z          selected for orbital group  1
 Library entry O      D aug-cc-pV5Z          selected for orbital group  1
 Library entry O      F aug-cc-pV5Z          selected for orbital group  1
 Library entry O      G aug-cc-pV5Z          selected for orbital group  1
 Library entry O      H aug-cc-pV5Z          selected for orbital group  1
 Library entry H      S aug-cc-pV5Z          selected for orbital group  2
 Library entry H      P aug-cc-pV5Z          selected for orbital group  2
 Library entry H      D aug-cc-pV5Z          selected for orbital group  2
 Library entry H      F aug-cc-pV5Z          selected for orbital group  2
 Library entry H      G aug-cc-pV5Z          selected for orbital group  2
 Library entry C      S aug-cc-pV5Z          selected for orbital group  3
 Library entry C      P aug-cc-pV5Z          selected for orbital group  3
 Library entry C      D aug-cc-pV5Z          selected for orbital group  3
 Library entry C      F aug-cc-pV5Z          selected for orbital group  3
 Library entry C      G aug-cc-pV5Z          selected for orbital group  3
 Library entry C      H aug-cc-pV5Z          selected for orbital group  3


 PROGRAM * SEWARD (Integral evaluation for generally contracted gaussian basis sets)     Author: Roland Lindh, 1990

 Geometry written to block  1 of record 700


 Point group  C1  



 ATOMIC COORDINATES

 NR  ATOM    CHARGE       X              Y              Z

   1  O9      8.00   -6.649757260   -4.572192358    1.873285507
   2  H17     1.00   -6.404092864   -6.371778547    1.688092347
   3  H18     1.00   -5.651603921   -3.798727456    0.436526735
   4  C1      6.00   -6.193010455    2.801518980    2.403542658
   5  H41     1.00   -4.656285171    1.699997622    3.119937832
   6  H42     1.00   -5.973046335    4.726205038    2.982932688
   7  H43     1.00   -7.940251230    2.077186956    3.118237078
   8  H44     1.00   -6.176569838    2.685300823    0.384937212

 Bond lengths in Bohr (Angstrom)

 1-2  1.825693827  1-3  1.912807835  4-5  2.021904040  4-6  2.022002335  4-7  2.021953343
     ( 0.966115568)     ( 1.012214315)     ( 1.069945541)     ( 1.069997556)     ( 1.069971630)

 4-8  2.022015060
     ( 1.070004290)

 Bond angles

  2-1-3  104.60595341   5-4-6  109.53398059   5-4-7  109.65604535   5-4-8  108.43490854

  6-4-7  109.49436728   6-4-8  109.86987750   7-4-8  109.83468330

 NUCLEAR CHARGE:                   20
 NUMBER OF PRIMITIVE AOS:        1046
 NUMBER OF SYMMETRY AOS:          786
 NUMBER OF CONTRACTIONS:          734   (  734A   )
 NUMBER OF CORE ORBITALS:           2   (    2A   )
 NUMBER OF VALENCE ORBITALS:       14   (   14A   )


 NUCLEAR REPULSION ENERGY   35.88176990


 Basis set:  JKFIT                   
 Basis size:  1104
 Attributes:
 Sphericals:   T
 Basis set:  MP2FIT                  
 Basis size:  1246
 Attributes:
 Sphericals:   T
 Basis set:  RI                      
 Basis size:   730
 Attributes:
 Sphericals:   T
 Basis set:  TDDFT                   
 Basis size:  1246
 Attributes:
 Sphericals:   T

 **********************************************************************************************************************************


 Eigenvalues of metric

         1 0.143E-05 0.189E-05 0.353E-05 0.526E-05 0.537E-05 0.816E-05 0.841E-05 0.849E-05


 Contracted 2-electron integrals neglected if value below      1.0D-14
 AO integral compression algorithm  1   Integral accuracy      1.0D-14

     142661.124 MB (compressed) written to integral file ( 45.2%)

     Node minimum: 33403.437 MB, node maximum: 37954.519 MB


 NUMBER OF SORTED TWO-ELECTRON INTEGRALS: 9095363064.     BUFFER LENGTH:  32768
 NUMBER OF SEGMENTS: 190  SEGMENT LENGTH:   47999780      RECORD LENGTH: 131072

 Memory used in sort:      48.16 MW

 SORT1 READ 39467791461. AND WROTE  6554290869. INTEGRALS IN  75109 RECORDS. CPU TIME:   417.43 SEC, REAL TIME:   510.07 SEC
 SORT2 READ 26223804300. AND WROTE 36381317385. INTEGRALS IN 509696 RECORDS. CPU TIME:   108.07 SEC, REAL TIME:   185.58 SEC

 Node minimum:  9095228192.  Node maximum:  9095430501. integrals

 OPERATOR DM      FOR CENTER  0  COORDINATES:    0.000000    0.000000    0.000000


 **********************************************************************************************************************************
 DATASETS  * FILE   NREC   LENGTH (MB)   RECORD NAMES
              1      18       49.80       500      610      700      900      950      970     1000      129      960     1100   
                                          VAR    BASINP    GEOM    SYMINP    ZMAT    AOBASIS   BASIS     P2S    ABASIS      S 
                                         1400     1410     1200     1210     1080     1600     1650     1700   
                                           T        V       H0       H01     AOSYM     SMH    MOLCAS    OPER   

 PROGRAMS   *        TOTAL       INT
 CPU TIMES  *      1072.14   1071.97
 REAL TIME  *      1274.07 SEC
 DISK USED  *        50.44 MB (local),      457.19 GB (total)
 GA USED    *         0.00 MB       (max)       0.00 MB       (current)
 **********************************************************************************************************************************


 PROGRAM * RHF-SCF (CLOSED SHELL)       Authors: W. Meyer, H.-J. Werner


 NUMBER OF ELECTRONS:      10+   10-    SPACE SYMMETRY=1    SPIN SYMMETRY: Singlet 
 CONVERGENCE THRESHOLDS:    1.00E-08 (Density)    1.00E-11 (Energy)
 MAX. NUMBER OF ITERATIONS:       60
 INTERPOLATION TYPE:            DIIS
 INTERPOLATION STEPS:              2 (START)      1 (STEP)
 LEVEL SHIFTS:                  0.00 (CLOSED)  0.00 (OPEN) 



 Orbital guess generated from atomic densities. Full valence occupancy:   16

 Molecular orbital dump at record        2100.2

 Initial occupancy:  10

 ITERATION    DDIFF          GRAD             ENERGY        2-EL.EN.            DIPOLE MOMENTS         DIIS   ORB.
    1      0.000D+00      0.000D+00      -116.21967105    157.547982    0.64546   -0.51554   -0.83903    0    start
    2      0.000D+00      0.292D-02      -116.26401780    152.451492    0.34003   -0.32989   -0.44339    1    diag
    3      0.162D-02      0.174D-02      -116.27820039    154.573774    0.41829   -0.38031   -0.54290    2    diag
    4      0.562D-03      0.256D-03      -116.27887257    154.460072    0.41148   -0.37741   -0.53311    3    diag
    5      0.122D-03      0.761D-04      -116.27894507    154.455064    0.41075   -0.37830   -0.53198    4    diag
    6      0.493D-04      0.185D-04      -116.27894920    154.460707    0.41017   -0.37831   -0.53114    5    diag
    7      0.177D-04      0.389D-05      -116.27894947    154.458973    0.41014   -0.37841   -0.53109    6    diag
    8      0.561D-05      0.103D-05      -116.27894950    154.459166    0.41008   -0.37843   -0.53101    7    diag
    9      0.136D-05      0.234D-06      -116.27894950    154.459139    0.41006   -0.37843   -0.53099    8    diag
   10      0.311D-06      0.270D-07      -116.27894950    154.459139    0.41006   -0.37843   -0.53099    9    orth
   11      0.669D-07      0.645D-08      -116.27894950    154.459141    0.41006   -0.37843   -0.53099    9    diag
   12      0.550D-08      0.166D-08      -116.27894950    154.459141    0.41006   -0.37843   -0.53099    0    orth

 Final occupancy:  10

 !RHF STATE  1.1 Energy              -116.278949496367
 Nuclear energy                        35.88176990
 One-electron energy                 -229.39028975
 Two-electron energy                   77.22957036
 Virial quotient                       -1.00095192
 !RHF STATE  1.1 Dipole moment          0.41006156    -0.37842922    -0.53099221
 Dipole moment /Debye                   1.04220425    -0.96180813    -1.34955917

 Orbital energies:

         1.1          2.1          3.1          4.1          5.1          6.1          7.1          8.1          9.1         10.1
    -20.569052   -11.191276    -1.336927    -0.945911    -0.700785    -0.578361    -0.547780    -0.544474    -0.543264    -0.507744

        11.1         12.1
      0.020491     0.030323


 HOMO     10.1    -0.507744 =     -13.8164eV
 LUMO     11.1     0.020491 =       0.5576eV
 LUMO-HOMO         0.528235 =      14.3740eV


 **********************************************************************************************************************************
 DATASETS  * FILE   NREC   LENGTH (MB)   RECORD NAMES
              1      18       49.80       500      610      700      900      950      970     1000      129      960     1100   
                                          VAR    BASINP    GEOM    SYMINP    ZMAT    AOBASIS   BASIS     P2S    ABASIS      S 
                                         1400     1410     1200     1210     1080     1600     1650     1700   
                                           T        V       H0       H01     AOSYM     SMH    MOLCAS    OPER   

              2       4       13.79       700     1000      520     2100   
                                         GEOM     BASIS   MCVARS     RHF  

 PROGRAMS   *        TOTAL    HF-SCF       INT
 CPU TIMES  *      2230.78   1158.64   1071.97
 REAL TIME  *      2590.63 SEC
 DISK USED  *       102.61 MB (local),      457.40 GB (total)
 SF USED    *         2.16 MB
 GA USED    *         0.00 MB       (max)       0.00 MB       (current)
 **********************************************************************************************************************************

 Basis set:  JKFIT                   
 Basis size:  1104
 Attributes:
 Sphericals:   T
 Basis set:  MP2FIT                  
 Basis size:  1246
 Attributes:
 Sphericals:   T
 Basis set:  RI                      
 Basis size:   730
 Attributes:
 Sphericals:   T
 Basis set:  TDDFT                   
 Basis size:  1246
 Attributes:
 Sphericals:   T

 PROGRAM * CCSD (Closed-shell coupled cluster)     Authors: C. Hampel, H.-J. Werner, 1991, M. Deegan, P.J. Knowles, 1992

                                  CCSD-F12 implementation by  H.-J. Werner, 2007

                   Density fitting integral evaluation by F.R. Manby, 2003,2007, G. Knizia, 2010



 Convergence thresholds:  THRVAR = 1.00D-08  THRDEN = 1.00D-10

 CCSD(T)     terms to be evaluated (factor= 1.000)


 Number of core orbitals:           2 (   2 )
 Number of closed-shell orbitals:   8 (   8 )
 Number of external orbitals:     724 ( 724 )

 Molecular orbitals read from record     2100.2  Type=RHF/CANONICAL (state 1.1)

 MP2-F12 correlation treatment (H.-J. Werner, 2006)
 ==================================================

 Using MP2-F12 with ansatz 3C(FIX)

 Using projected zeroth-order Hamiltonian (+Z)

 FOCKRIB=T FOCKRIC=T FOCKRIP=T CABSP=T CABSA=T CABSK=T CABSF=T GBC=F EBC=F DMAT=T NOFIK=T NOPAO=1 SOLVE=-1  USEPAO=0
 EXCH_A= T EXCH_B= F EXCH_C= F EXCH_P= F

 Geminal basis:    OPTFULL  GEM_TYPE=SLATER  BETA=1.0  NGEM=6

 Optimizing Gaussian exponents for each gem_beta

 Geminal optimization for beta= 1.0000
 Weight function:   m=0, omega= 1.4646

 Augmented Hessian optimization of geminal fit. Trust ratio= 0.40000
 Convergence reached after   2 iterations. Final gradient= 8.53D-16, Step= 4.26D-06, Delta= 1.28D-09

 Alpha:                 0.19532     0.81920     2.85917     9.50073    35.69989   197.79328
 Coeff:                 0.27070     0.30552     0.18297     0.10986     0.06810     0.04224


 All pairs explicitly correlated. Number of r12-pairs:           36

 Excluding core orbitals from MO domains

 AO(A)-basis ORBITAL           loaded. Number of functions:     734
 RI(R)-basis RI                loaded. Number of functions:     730
 DF-basis JKFIT                loaded. Number of functions:    1104

 Screening thresholds:   THRAO=  1.00D-10  THRMO=  1.00D-09  THRPROD=  1.00D-09
                         THRSW=  1.00D-05  THROV=  1.00D-12  THRAOF12= 1.00D-10

 CPU time for Fock operators                      7.15 sec

 Construction of ABS:
 Smallest eigenvalue of S          2.27E-04  (threshold= 1.00E-08)
 Ratio eigmin/eigmax               3.94E-05  (threshold= 1.00E-09)
 Smallest eigenvalue of S kept     2.27E-04  (threshold= 2.27E-04, 0 functions deleted, 730 kept)

 Construction of CABS:
 Smallest eigenvalue of S          9.85E-09  (threshold= 1.00E-08)
 Ratio eigmin/eigmax               9.85E-09  (threshold= 1.00E-09)
 Smallest eigenvalue of S kept     7.85E-08  (threshold= 7.85E-08, 1 functions deleted, 729 kept)

 CPU time for CABS singles                        0.71 sec

 CABS-singles contribution of  -0.00007879 patched into reference energy.
 New reference energy        -116.27902828

 AO(A)-basis ORBITAL           loaded. Number of functions:     734
 RI(R)-basis RI                loaded. Number of functions:     730
 DF-basis MP2FIT               loaded. Number of functions:    1246

 Screening thresholds:   THRAO=  1.00D-10  THRMO=  1.00D-09  THRPROD=  1.00D-09
                         THRSW=  1.00D-05  THROV=  1.00D-12  THRAOF12= 1.00D-10

 CPU time for 3-index integral evaluation        22.08 sec
 CPU time for first  half transformation          1.94 sec (15284.2 MFLOP/sec)
 CPU time for second half transformation          0.05 sec ( 5392.6 MFLOP/sec)
 CPU time for sorting                             0.29 sec
 CPU time for fitting                             0.21 sec (44180.2 MFLOP/sec)
 CPU time for tilde quantities                    0.27 sec (51014.5 MFLOP/sec)
 CPU time for assembly                            2.21 sec (60043.8 MFLOP/sec)
 CPU time for tranop_f12                          3.02 sec (56856.9 MFLOP/sec)
 CPU time for f12 integrals (total)              34.11 sec, Elapsed time:     38.06 sec
 F12-matrices built in  4 passes.
 F12-matrices built in  4 passes.
 F12-matrices built in  4 passes.
 F12-matrices built in  4 passes.
 FC-matrix built in  4 passes.
 CPU time for f12 matrices (total)                2.53 sec, Elapsed time:      2.68 sec

 Diagonal F12 approximation with fixed coefficients:  TSING= 0.500,  TTRIP= 0.250 (scaled by -1/beta)

 DF-MP2-F12 energy corrections:
 ==============================
 Approx.                                    Singlet             Triplet             Total
 DF-MP2-F12/3*C(DX,FIX)                -0.011205496948     -0.000787004976     -0.011992501924
 DF-MP2-F12/3*C(FIX)                   -0.010396682795     -0.000516242732     -0.010912925527
 DF-MP2-F12/3C(FIX)                    -0.010512088978     -0.000531665808     -0.011043754786

 DF-MP2-F12 correlation energies:
 ================================
 Approx.                                    Singlet             Triplet             Ecorr            Total Energy
 DF-MP2                                -0.350757655295     -0.159801707328     -0.510559362623   -116.789587644697
 DF-MP2-F12/3*C(DX,FIX)                -0.361963152242     -0.160588712305     -0.522551864547   -116.801580146621
 DF-MP2-F12/3*C(FIX)                   -0.361154338090     -0.160317950060     -0.521472288150   -116.800500570224
 DF-MP2-F12/3C(FIX)                    -0.361269744273     -0.160333373136     -0.521603117409   -116.800631399483

 SCS-DF-MP2 energies (F_SING= 1.20000  F_TRIP= 0.62222  F_PARALLEL= 0.33333):
 ============================================================================
 SCS-DF-MP2                            -0.520341359803   -116.799369641877
 SCS-DF-MP2-F12/3*C(DX,FIX)            -0.534277648125   -116.813305930199
 SCS-DF-MP2-F12/3*C(FIX)               -0.533138596857   -116.812166878931
 SCS-DF-MP2-F12/3C(FIX)                -0.533286680857   -116.812314962931
 Symmetry transformation completed.

 Number of N-1 electron functions:               8
 Number of N-2 electron functions:              36
 Number of singly external CSFs:              5792
 Number of doubly external CSFs:          16776528
 Total number of CSFs:                    16782321

 Pair and operator lists are different

 Length of J-op  integral file:               1.47 GB
 Length of K-op  integral file:               2.18 GB
 Length of 3-ext integral record:             0.00 MB

 For full I/O caching in triples, increase memory by 34.16 Mwords to 4034.21 Mwords.

 Integral transformation finished. Total CPU: 815.72 sec, npass=  1  Memory used:1826.21 MW

 Reference energy:                   -116.27902828

 Adding F12 terms to K(Cij), methodcc=6,  factor= 1.0

 ITER.      SQ.NORM     CORR.ENERGY   TOTAL ENERGY   ENERGY CHANGE        DEN1      VAR(S)    VAR(P)  DIIS     TIME  TIME/IT
   1      1.13495318    -0.52241312  -116.80144140    -0.01184089     0.00023034  0.15D-02  0.20D-02  1  1  1045.74   194.70
   2      1.14331789    -0.52346322  -116.80249150    -0.00105010    -0.01031187  0.34D-04  0.26D-03  2  2  1239.87   203.11
   3      1.14662670    -0.52363566  -116.80266395    -0.00017244    -0.00238784  0.12D-04  0.15D-04  3  3  1430.88   204.90
   4      1.14761581    -0.52364191  -116.80267019    -0.00000625    -0.00054318  0.71D-06  0.13D-05  4  4  1632.52   208.14
   5      1.14778995    -0.52364380  -116.80267208    -0.00000189    -0.00004353  0.21D-06  0.97D-07  5  5  1832.44   210.31
   6      1.14783735    -0.52364100  -116.80266928     0.00000280    -0.00000832  0.24D-07  0.84D-08  6  6  2018.50   208.86
   7      1.14784855    -0.52363977  -116.80266805     0.00000124    -0.00000270  0.24D-08  0.10D-08  6  2  2206.18   208.07
   8      1.14785147    -0.52363953  -116.80266781     0.00000023    -0.00000035  0.33D-09  0.10D-09  6  1  2387.12   206.53
   9      1.14785236    -0.52363950  -116.80266778     0.00000004    -0.00000003  0.27D-10  0.17D-10  6  3  2579.02   206.62
  10      1.14785249    -0.52363950  -116.80266778    -0.00000001     0.00000011  0.29D-11  0.19D-11  6  4  2765.46   206.21
  11      1.14785246    -0.52363951  -116.80266779    -0.00000001     0.00000008  0.44D-12  0.26D-12  6  5  2954.44   206.15
  12      1.14785243    -0.52363951  -116.80266779    -0.00000000     0.00000002  0.96D-13  0.35D-13  6  6  3133.00   205.05
  13      1.14785241    -0.52363951  -116.80266779    -0.00000000     0.00000001  0.19D-13  0.50D-14  6  2  3337.76   206.48
  14      1.14785240    -0.52363951  -116.80266779    -0.00000000     0.00000000  0.30D-14  0.11D-14  6  1  3532.86   207.04
  15      1.14785240    -0.52363951  -116.80266779    -0.00000000    -0.00000000  0.36D-15  0.17D-15  6  3  3719.11   206.67
  16      1.14785240    -0.52363951  -116.80266779    -0.00000000    -0.00000000  0.52D-16  0.26D-16  6  4  3922.41   207.62
  17      1.14785240    -0.52363951  -116.80266779    -0.00000000    -0.00000000  0.15D-16  0.68D-17  6  5  4107.53   207.28

 Norm of t1 vector:      0.05012891      S-energy:    -0.00000000      T1 diagnostic:  0.00886162
                                                                       D1 diagnostic:  0.01940750

 Adding energy correction from Wij-K(Fij), methodcc=6  factor= 1.0

  CCSD correlation energy              -0.523639512128
  MP2-F12 correction (uncoupled)       -0.010856331815
  C*T doubles correction               -0.000164611524
  f12b correction                       0.002690280579

   CPU time for triples:   2105.15 sec for i =  1 -  7 /  8 (~  68.8 % done)
   CPU time for triples:    904.53 sec for i =  8 -  8 /  8 (  100.0 % done)

 Total CPU time for triples:   3009.75 sec

  Ecorr(MP2)                           -0.510572235576
  Ecorr(MP2-F12)                       -0.521615990362
  Scale factor for triples energy       1.021630151458


 RESULTS
 =======

  Reference energy                   -116.278949496368
  F12 singles correction               -0.000078785706

 F12 singles corrections added to reference energy

  New reference energy               -116.279028282074

  F12a singlet correction              -0.010448612337
  F12a triplet correction              -0.000572331001
  F12a total correction                -0.011020943339

 F12a corrections for ansatz F12/3C(FIX) added to CCSD energy

  CCSD-F12a singlet pair energy        -0.388250737446
  CCSD-F12a triplet pair energy        -0.146409717772
  CCSD-F12a correlation energy         -0.534660455467

  Triples (T) contribution (scaled)    -0.017372370829
  Total correlation energy             -0.552032826296

  CCSD-F12a total energy             -116.813688737541
  CCSD[T]-F12a energy                -116.831627784872
  CCSD-T-F12a energy                 -116.830847272212
 !CCSD(T)-F12a total energy          -116.831061108370

 F12b corrections for ansatz F12/3C(FIX) added to CCSD(T)-F12a energy

  CCSD-F12b singlet pair energy        -0.385653260899
  CCSD-F12b triplet pair energy        -0.146316913740
  CCSD-F12b correlation energy         -0.531970174888

  Triples (T) contribution (scaled)    -0.017372370829
  Total correlation energy             -0.549342545717

  CCSD-F12b total energy             -116.810998456962
  CCSD[T]-F12b energy                -116.828937504293
  CCSD-T-F12b energy                 -116.828156991633
 !CCSD(T)-F12b total energy          -116.828370827791

 Timing summary (sec):

 STEP                 CPU(USER)    SYS     CPU(TOT)    WALL
 Transformation        816.80     52.98    869.78    873.40
 CCSD iterations      3244.02    266.91   3510.93   3524.39
 Triples              3009.75     33.41   3043.16   3055.15
 MP2-F12                46.90      4.47     51.37     52.07
 F12b energy           160.22     10.82    171.04    171.71

 Program statistics:

 Available memory in ccsd:              3999999554
 Min. memory needed in ccsd:              48689265
 Max. memory used in ccsd:                63255345
 Max. memory used in cckext:              42753482 (18 integral passes)



 **********************************************************************************************************************************
 DATASETS  * FILE   NREC   LENGTH (MB)   RECORD NAMES
              1      19    12452.16       500      610      700      900      950      970     1000      129      960     1100   
                                          VAR    BASINP    GEOM    SYMINP    ZMAT    AOBASIS   BASIS     P2S    ABASIS      S 
                                         1400     1410     1200     1210     1080     1600     1650     1700     1380   
                                           T        V       H0       H01     AOSYM     SMH    MOLCAS    OPER     JKOP   

              2       6       24.60       700     1000      520     2100     7360     7350   
                                         GEOM     BASIS   MCVARS     RHF    F12ABS    EF12   

 PROGRAMS   *        TOTAL   CCSD(T)    HF-SCF       INT
 CPU TIMES  *      9508.78   7278.00   1158.64   1071.97
 REAL TIME  *     10269.95 SEC
 DISK USED  *        14.29 GB (local),      508.71 GB (total)
 SF USED    *        17.68 GB
 GA USED    *         4.87 MB       (max)       0.00 MB       (current)
 **********************************************************************************************************************************

 Running procedure: SET_MONOMER1

 Dummy atoms: C1  H41  H42  H43  H44


 Recomputing one-electron integrals since nuclear charges changed


 PROGRAM * SEWARD (Integral evaluation for generally contracted gaussian basis sets)     Author: Roland Lindh, 1990

 Geometry written to block  1 of record 700


 Point group  C1  



 ATOMIC COORDINATES

 NR  ATOM    CHARGE       X              Y              Z

   1  O9      8.00   -6.649757260   -4.572192358    1.873285507
   2  H17     1.00   -6.404092864   -6.371778547    1.688092347
   3  H18     1.00   -5.651603921   -3.798727456    0.436526735
   4  C1      0.00   -6.193010455    2.801518980    2.403542658
   5  H41     0.00   -4.656285171    1.699997622    3.119937832
   6  H42     0.00   -5.973046335    4.726205038    2.982932688
   7  H43     0.00   -7.940251230    2.077186956    3.118237078
   8  H44     0.00   -6.176569838    2.685300823    0.384937212

 Bond lengths in Bohr (Angstrom)

 1-2  1.825693827  1-3  1.912807835  4-5  2.021904040  4-6  2.022002335  4-7  2.021953343
     ( 0.966115568)     ( 1.012214315)     ( 1.069945541)     ( 1.069997556)     ( 1.069971630)

 4-8  2.022015060
     ( 1.070004290)

 Bond angles

  2-1-3  104.60595341   5-4-6  109.53398059   5-4-7  109.65604535   5-4-8  108.43490854

  6-4-7  109.49436728   6-4-8  109.86987750   7-4-8  109.83468330

 NUCLEAR CHARGE:                   10
 NUMBER OF PRIMITIVE AOS:        1046
 NUMBER OF SYMMETRY AOS:          786
 NUMBER OF CONTRACTIONS:          734   (  734A   )
 NUMBER OF CORE ORBITALS:           1   (    1A   )
 NUMBER OF VALENCE ORBITALS:        6   (    6A   )

 MOLECULE CHANGED: INITIALIZING OCCUPATION AND DUMP RECORDS


 NUCLEAR REPULSION ENERGY    8.90222806

 Basis set:  JKFIT                   
 Basis size:  1104
 Attributes:
 Sphericals:   T
 Basis set:  MP2FIT                  
 Basis size:  1246
 Attributes:
 Sphericals:   T
 Basis set:  RI                      
 Basis size:   730
 Attributes:
 Sphericals:   T
 Basis set:  TDDFT                   
 Basis size:  1246
 Attributes:
 Sphericals:   T

 Eigenvalues of metric

         1 0.143E-05 0.189E-05 0.353E-05 0.526E-05 0.537E-05 0.816E-05 0.841E-05 0.849E-05


 Contracted 2-electron integrals neglected if value below      1.0D-14

 OPERATOR DM      FOR CENTER  0  COORDINATES:    0.000000    0.000000    0.000000


 **********************************************************************************************************************************
 DATASETS  * FILE   NREC   LENGTH (MB)   RECORD NAMES
              1      18       49.80       500      610      700      900      950      970     1000      129      960     1100   
                                          VAR    BASINP    GEOM    SYMINP    ZMAT    AOBASIS   BASIS     P2S    ABASIS      S 
                                         1400     1410     1200     1210     1080     1600     1650     1700   
                                           T        V       H0       H01     AOSYM     SMH    MOLCAS    OPER   

              2       7       24.63       700     1000      520     2100     7360     7350      200   
                                         GEOM     BASIS   MCVARS     RHF    F12ABS    EF12    OPTIONS    

 PROGRAMS   *        TOTAL       INT   CCSD(T)    HF-SCF       INT
 CPU TIMES  *      9509.36      0.57   7278.00   1158.64   1071.97
 REAL TIME  *     10273.47 SEC
 DISK USED  *        14.29 GB (local),      508.71 GB (total)
 SF USED    *        17.68 GB
 GA USED    *         4.87 MB       (max)       0.00 MB       (current)
 **********************************************************************************************************************************


 PROGRAM * RHF-SCF (CLOSED SHELL)       Authors: W. Meyer, H.-J. Werner


 NUMBER OF ELECTRONS:       5+    5-    SPACE SYMMETRY=1    SPIN SYMMETRY: Singlet 
 CONVERGENCE THRESHOLDS:    1.00E-08 (Density)    1.00E-11 (Energy)
 MAX. NUMBER OF ITERATIONS:       60
 INTERPOLATION TYPE:            DIIS
 INTERPOLATION STEPS:              2 (START)      1 (STEP)
 LEVEL SHIFTS:                  0.00 (CLOSED)  0.00 (OPEN) 



 Orbital guess generated from atomic densities. Full valence occupancy:    7

 Molecular orbital dump at record        2101.2

 Initial occupancy:   5

 ITERATION    DDIFF          GRAD             ENERGY        2-EL.EN.            DIPOLE MOMENTS         DIIS   ORB.
    1      0.000D+00      0.000D+00       -76.02310189     77.283398    0.64181   -0.51264   -0.83836    0    start
    2      0.000D+00      0.361D-02       -76.05004849     73.574373    0.36399   -0.30617   -0.47415    1    diag
    3      0.131D-02      0.233D-02       -76.06210321     75.231430    0.43302   -0.36068   -0.56438    2    diag
    4      0.499D-03      0.218D-03       -76.06230818     75.139150    0.42920   -0.36071   -0.55913    3    diag
    5      0.640D-04      0.628D-04       -76.06233188     75.154306    0.42774   -0.36086   -0.55711    4    diag
    6      0.212D-04      0.130D-04       -76.06233354     75.153088    0.42734   -0.36098   -0.55655    5    diag
    7      0.566D-05      0.271D-05       -76.06233363     75.153234    0.42723   -0.36101   -0.55639    6    diag
    8      0.149D-05      0.491D-06       -76.06233363     75.153220    0.42720   -0.36100   -0.55636    7    diag
    9      0.259D-06      0.694D-07       -76.06233363     75.153209    0.42720   -0.36100   -0.55635    8    diag
   10      0.398D-07      0.169D-07       -76.06233363     75.153212    0.42720   -0.36100   -0.55635    9    orth
   11      0.955D-08      0.426D-08       -76.06233363     75.153212    0.42720   -0.36100   -0.55635    0    orth

 Final occupancy:   5

 !RHF STATE  1.1 Energy               -76.062333628098
 Nuclear energy                         8.90222806
 One-electron energy                 -122.54116780
 Two-electron energy                   37.57660611
 Virial quotient                       -1.00235751
 !RHF STATE  1.1 Dipole moment          0.42719769    -0.36100044    -0.55635162
 Dipole moment /Debye                   1.08575712    -0.91751150    -1.41401214

 Orbital energies:

         1.1          2.1          3.1          4.1          5.1          6.1          7.1
    -20.569329    -1.337162    -0.701006    -0.578464    -0.508017     0.017876     0.027823


 HOMO      5.1    -0.508017 =     -13.8239eV
 LUMO      6.1     0.017876 =       0.4864eV
 LUMO-HOMO         0.525894 =      14.3103eV


 **********************************************************************************************************************************
 DATASETS  * FILE   NREC   LENGTH (MB)   RECORD NAMES
              1      18       49.80       500      610      700      900      950      970     1000      129      960     1100   
                                          VAR    BASINP    GEOM    SYMINP    ZMAT    AOBASIS   BASIS     P2S    ABASIS      S 
                                         1400     1410     1200     1210     1080     1600     1650     1700   
                                           T        V       H0       H01     AOSYM     SMH    MOLCAS    OPER   

              2       8       38.40       700     1000      520     2100     7360     7350      200     2101   
                                         GEOM     BASIS   MCVARS     RHF    F12ABS    EF12    OPTIONS    RHF  

 PROGRAMS   *        TOTAL    HF-SCF       INT   CCSD(T)    HF-SCF       INT
 CPU TIMES  *     10454.00    944.64      0.57   7278.00   1158.64   1071.97
 REAL TIME  *     11359.61 SEC
 DISK USED  *        14.29 GB (local),      508.71 GB (total)
 SF USED    *        17.68 GB
 GA USED    *         4.87 MB       (max)       0.00 MB       (current)
 **********************************************************************************************************************************

 Basis set:  JKFIT                   
 Basis size:  1104
 Attributes:
 Sphericals:   T
 Basis set:  MP2FIT                  
 Basis size:  1246
 Attributes:
 Sphericals:   T
 Basis set:  RI                      
 Basis size:   730
 Attributes:
 Sphericals:   T
 Basis set:  TDDFT                   
 Basis size:  1246
 Attributes:
 Sphericals:   T

 PROGRAM * CCSD (Closed-shell coupled cluster)     Authors: C. Hampel, H.-J. Werner, 1991, M. Deegan, P.J. Knowles, 1992

                                  CCSD-F12 implementation by  H.-J. Werner, 2007

                   Density fitting integral evaluation by F.R. Manby, 2003,2007, G. Knizia, 2010



 Convergence thresholds:  THRVAR = 1.00D-08  THRDEN = 1.00D-10

 CCSD(T)     terms to be evaluated (factor= 1.000)


 Number of core orbitals:           1 (   1 )
 Number of closed-shell orbitals:   4 (   4 )
 Number of external orbitals:     729 ( 729 )

 Molecular orbitals read from record     2101.2  Type=RHF/CANONICAL (state 1.1)

 MP2-F12 correlation treatment (H.-J. Werner, 2006)
 ==================================================

 Using MP2-F12 with ansatz 3C(FIX)

 Using projected zeroth-order Hamiltonian (+Z)

 FOCKRIB=T FOCKRIC=T FOCKRIP=T CABSP=T CABSA=T CABSK=T CABSF=T GBC=F EBC=F DMAT=T NOFIK=T NOPAO=1 SOLVE=-1  USEPAO=0
 EXCH_A= T EXCH_B= F EXCH_C= F EXCH_P= F

 Geminal basis:    OPTFULL  GEM_TYPE=SLATER  BETA=1.0  NGEM=6

 Optimizing Gaussian exponents for each gem_beta

 Geminal optimization for beta= 1.0000
 Weight function:   m=0, omega= 1.4646

 Augmented Hessian optimization of geminal fit. Trust ratio= 0.40000
 Convergence reached after   2 iterations. Final gradient= 8.53D-16, Step= 4.26D-06, Delta= 1.28D-09

 Alpha:                 0.19532     0.81920     2.85917     9.50073    35.69989   197.79328
 Coeff:                 0.27070     0.30552     0.18297     0.10986     0.06810     0.04224


 All pairs explicitly correlated. Number of r12-pairs:           10

 Excluding core orbitals from MO domains

 AO(A)-basis ORBITAL           loaded. Number of functions:     734
 RI(R)-basis RI                loaded. Number of functions:     730
 DF-basis JKFIT                loaded. Number of functions:    1104

 Screening thresholds:   THRAO=  1.00D-10  THRMO=  1.00D-09  THRPROD=  1.00D-09
                         THRSW=  1.00D-05  THROV=  1.00D-12  THRAOF12= 1.00D-10

 CPU time for Fock operators                      6.60 sec

 Construction of ABS:
 Smallest eigenvalue of S          2.27E-04  (threshold= 1.00E-08)
 Ratio eigmin/eigmax               3.94E-05  (threshold= 1.00E-09)
 Smallest eigenvalue of S kept     2.27E-04  (threshold= 2.27E-04, 0 functions deleted, 730 kept)

 Construction of CABS:
 Smallest eigenvalue of S          9.85E-09  (threshold= 1.00E-08)
 Ratio eigmin/eigmax               9.85E-09  (threshold= 1.00E-09)
 Smallest eigenvalue of S kept     7.85E-08  (threshold= 7.85E-08, 1 functions deleted, 729 kept)

 CPU time for CABS singles                        0.76 sec

 CABS-singles contribution of  -0.00003791 patched into reference energy.
 New reference energy         -76.06237154

 AO(A)-basis ORBITAL           loaded. Number of functions:     734
 RI(R)-basis RI                loaded. Number of functions:     730
 DF-basis MP2FIT               loaded. Number of functions:    1246

 Screening thresholds:   THRAO=  1.00D-10  THRMO=  1.00D-09  THRPROD=  1.00D-09
                         THRSW=  1.00D-05  THROV=  1.00D-12  THRAOF12= 1.00D-10

 CPU time for 3-index integral evaluation        20.98 sec
 CPU time for first  half transformation          1.82 sec ( 8150.9 MFLOP/sec)
 CPU time for second half transformation          0.05 sec ( 1359.3 MFLOP/sec)
 CPU time for sorting                             0.19 sec
 CPU time for fitting                             0.17 sec (13881.3 MFLOP/sec)
 CPU time for tilde quantities                    0.16 sec (57210.2 MFLOP/sec)
 CPU time for assembly                            0.70 sec (42082.7 MFLOP/sec)
 CPU time for tranop_f12                          0.84 sec (44208.6 MFLOP/sec)
 CPU time for f12 integrals (total)              26.29 sec, Elapsed time:     27.73 sec
 F12-matrices built in  4 passes.
 F12-matrices built in  4 passes.
 F12-matrices built in  4 passes.
 F12-matrices built in  4 passes.
 FC-matrix built in  4 passes.
 CPU time for f12 matrices (total)                0.63 sec, Elapsed time:      0.66 sec

 Diagonal F12 approximation with fixed coefficients:  TSING= 0.500,  TTRIP= 0.250 (scaled by -1/beta)

 DF-MP2-F12 energy corrections:
 ==============================
 Approx.                                    Singlet             Triplet             Total
 DF-MP2-F12/3*C(DX,FIX)                -0.007267418073     -0.000572743525     -0.007840161598
 DF-MP2-F12/3*C(FIX)                   -0.006621768925     -0.000353844243     -0.006975613169
 DF-MP2-F12/3C(FIX)                    -0.006689866754     -0.000366017431     -0.007055884184

 DF-MP2-F12 correlation energies:
 ================================
 Approx.                                    Singlet             Triplet             Ecorr            Total Energy
 DF-MP2                                -0.192748256437     -0.102579290004     -0.295327546441    -76.357699087800
 DF-MP2-F12/3*C(DX,FIX)                -0.200015674510     -0.103152033529     -0.303167708039    -76.365539249398
 DF-MP2-F12/3*C(FIX)                   -0.199370025363     -0.102933134247     -0.302303159610    -76.364674700969
 DF-MP2-F12/3C(FIX)                    -0.199438123191     -0.102945307435     -0.302383430626    -76.364754971985

 SCS-DF-MP2 energies (F_SING= 1.20000  F_TRIP= 0.62222  F_PARALLEL= 0.33333):
 ============================================================================
 SCS-DF-MP2                            -0.295125021505    -76.357496562864
 SCS-DF-MP2-F12/3*C(DX,FIX)            -0.304202296942    -76.366573838301
 SCS-DF-MP2-F12/3*C(FIX)               -0.303291313967    -76.365662855326
 SCS-DF-MP2-F12/3C(FIX)                -0.303380605788    -76.365752147147
 Symmetry transformation completed.

 Number of N-1 electron functions:               4
 Number of N-2 electron functions:              10
 Number of singly external CSFs:              2916
 Number of doubly external CSFs:           4252986
 Total number of CSFs:                     4255903

 Pair and operator lists are different

 Length of J-op  integral file:             411.24 MB
 Length of K-op  integral file:             721.80 MB
 Length of 3-ext integral record:             0.00 MB

 Memory could be reduced to 2535.14 Mwords without degradation in triples

 Integral transformation finished. Total CPU: 401.77 sec, npass=  1  Memory used:1009.99 MW

 Reference energy:                    -76.06237154

 Adding F12 terms to K(Cij), methodcc=6,  factor= 1.0

 ITER.      SQ.NORM     CORR.ENERGY   TOTAL ENERGY   ENERGY CHANGE        DEN1      VAR(S)    VAR(P)  DIIS     TIME  TIME/IT
   1      1.06441829    -0.29365485   -76.35602639     0.00167890     0.00789125  0.82D-03  0.11D-02  1  1   527.94   101.33
   2      1.06807094    -0.29375242   -76.35612396    -0.00009757    -0.00509072  0.16D-04  0.12D-03  2  2   618.72   101.84
   3      1.06948519    -0.29385214   -76.35622368    -0.00009972    -0.00098671  0.87D-05  0.78D-05  3  3   708.81   101.80
   4      1.07003312    -0.29385831   -76.35622985    -0.00000617    -0.00029454  0.55D-06  0.78D-06  4  4   799.26   101.89
   5      1.07014321    -0.29385707   -76.35622862     0.00000124    -0.00003204  0.17D-06  0.57D-07  5  5   890.66   102.35
   6      1.07017935    -0.29385473   -76.35622627     0.00000235    -0.00000628  0.19D-07  0.47D-08  6  6   981.16   102.31
   7      1.07018801    -0.29385418   -76.35622572     0.00000055    -0.00000132  0.14D-08  0.71D-09  6  2  1070.26   101.99
   8      1.07018987    -0.29385407   -76.35622561     0.00000011    -0.00000000  0.19D-09  0.74D-10  6  1  1159.37   101.74
   9      1.07019050    -0.29385403   -76.35622558     0.00000003     0.00000000  0.15D-10  0.92D-11  6  3  1251.39   101.92
  10      1.07019061    -0.29385403   -76.35622557     0.00000001     0.00000004  0.21D-11  0.10D-11  6  4  1342.98   102.06
  11      1.07019060    -0.29385403   -76.35622557    -0.00000000     0.00000004  0.43D-12  0.16D-12  6  5  1435.78   102.31
  12      1.07019059    -0.29385403   -76.35622557    -0.00000000     0.00000001  0.89D-13  0.23D-13  6  6  1527.26   102.46
  13      1.07019058    -0.29385403   -76.35622557    -0.00000000     0.00000000  0.14D-13  0.38D-14  6  2  1618.49   102.48
  14      1.07019058    -0.29385403   -76.35622557    -0.00000000     0.00000000  0.16D-14  0.80D-15  6  1  1711.02   102.67
  15      1.07019058    -0.29385403   -76.35622557    -0.00000000    -0.00000000  0.17D-15  0.11D-15  6  3  1800.84   102.59
  16      1.07019058    -0.29385403   -76.35622557    -0.00000000    -0.00000000  0.21D-16  0.14D-16  6  4  1894.62   102.76

 Norm of t1 vector:      0.03755513      S-energy:    -0.00000000      T1 diagnostic:  0.00938878
                                                                       D1 diagnostic:  0.01917248

 Adding energy correction from Wij-K(Fij), methodcc=6  factor= 1.0

  CCSD correlation energy              -0.293854032366
  MP2-F12 correction (uncoupled)       -0.006967011382
  C*T doubles correction               -0.000094807079
  f12b correction                       0.001587898094


 Total CPU time for triples:    411.56 sec

  Ecorr(MP2)                           -0.295333753657
  Ecorr(MP2-F12)                       -0.302389637841
  Scale factor for triples energy       1.023891221700


 RESULTS
 =======

  Reference energy                    -76.062333628098
  F12 singles correction               -0.000037913261

 F12 singles corrections added to reference energy

  New reference energy                -76.062371541359

  F12a singlet correction              -0.006662284099
  F12a triplet correction              -0.000399534362
  F12a total correction                -0.007061818461

 F12a corrections for ansatz F12/3C(FIX) added to CCSD energy

  CCSD-F12a singlet pair energy        -0.210064313952
  CCSD-F12a triplet pair energy        -0.090851536226
  CCSD-F12a correlation energy         -0.300915850827

  Triples (T) contribution (scaled)    -0.010172486727
  Total correlation energy             -0.311088337554

  CCSD-F12a total energy              -76.363287392186
  CCSD[T]-F12a energy                 -76.373788462903
  CCSD-T-F12a energy                  -76.373315222531
 !CCSD(T)-F12a total energy           -76.373459878913

 F12b corrections for ansatz F12/3C(FIX) added to CCSD(T)-F12a energy

  CCSD-F12b singlet pair energy        -0.208539833896
  CCSD-F12b triplet pair energy        -0.090788118187
  CCSD-F12b correlation energy         -0.299327952732

  Triples (T) contribution (scaled)    -0.010172486727
  Total correlation energy             -0.309500439460

  CCSD-F12b total energy              -76.361699494091
  CCSD[T]-F12b energy                 -76.372200564808
  CCSD-T-F12b energy                  -76.371727324436
 !CCSD(T)-F12b total energy           -76.371871980819

 Timing summary (sec):

 STEP                 CPU(USER)    SYS     CPU(TOT)    WALL
 Transformation        402.11     25.81    427.92    429.81
 CCSD iterations      1457.00    180.49   1637.49   1644.44
 Triples               411.56      5.45    417.01    418.68
 MP2-F12                35.62      1.74     37.36     37.62
 F12b energy            87.07     10.83     97.90     98.29

 Program statistics:

 Available memory in ccsd:              3999999871
 Min. memory needed in ccsd:              19260852
 Max. memory used in ccsd:                22423154
 Max. memory used in cckext:              14628952 (17 integral passes)



 **********************************************************************************************************************************
 DATASETS  * FILE   NREC   LENGTH (MB)   RECORD NAMES
              1      19     6330.34       500      610      700      900      950      970     1000      129      960     1100   
                                          VAR    BASINP    GEOM    SYMINP    ZMAT    AOBASIS   BASIS     P2S    ABASIS      S 
                                         1400     1410     1200     1210     1080     1600     1650     1700     1380   
                                           T        V       H0       H01     AOSYM     SMH    MOLCAS    OPER     JKOP   

              2       8       38.40       700     1000      520     2100     7360     7350      200     2101   
                                         GEOM     BASIS   MCVARS     RHF    F12ABS    EF12    OPTIONS    RHF  

 PROGRAMS   *        TOTAL   CCSD(T)    HF-SCF       INT   CCSD(T)    HF-SCF       INT
 CPU TIMES  *     12847.67   2393.66    944.64      0.57   7278.00   1158.64   1071.97
 REAL TIME  *     13990.17 SEC
 DISK USED  *        14.29 GB (local),      508.71 GB (total)
 SF USED    *        17.68 GB
 GA USED    *         4.87 MB       (max)       0.00 MB       (current)
 **********************************************************************************************************************************

 Running procedure: SET_MONOMER2

 Dummy atoms: O9  H17  H18


 Recomputing one-electron integrals since nuclear charges changed


 PROGRAM * SEWARD (Integral evaluation for generally contracted gaussian basis sets)     Author: Roland Lindh, 1990

 Geometry written to block  1 of record 700


 Point group  C1  



 ATOMIC COORDINATES

 NR  ATOM    CHARGE       X              Y              Z

   1  O9      0.00   -6.649757260   -4.572192358    1.873285507
   2  H17     0.00   -6.404092864   -6.371778547    1.688092347
   3  H18     0.00   -5.651603921   -3.798727456    0.436526735
   4  C1      6.00   -6.193010455    2.801518980    2.403542658
   5  H41     1.00   -4.656285171    1.699997622    3.119937832
   6  H42     1.00   -5.973046335    4.726205038    2.982932688
   7  H43     1.00   -7.940251230    2.077186956    3.118237078
   8  H44     1.00   -6.176569838    2.685300823    0.384937212

 Bond lengths in Bohr (Angstrom)

 1-2  1.825693827  1-3  1.912807835  4-5  2.021904040  4-6  2.022002335  4-7  2.021953343
     ( 0.966115568)     ( 1.012214315)     ( 1.069945541)     ( 1.069997556)     ( 1.069971630)

 4-8  2.022015060
     ( 1.070004290)

 Bond angles

  2-1-3  104.60595341   5-4-6  109.53398059   5-4-7  109.65604535   5-4-8  108.43490854

  6-4-7  109.49436728   6-4-8  109.86987750   7-4-8  109.83468330

 NUCLEAR CHARGE:                   10
 NUMBER OF PRIMITIVE AOS:        1046
 NUMBER OF SYMMETRY AOS:          786
 NUMBER OF CONTRACTIONS:          734   (  734A   )
 NUMBER OF CORE ORBITALS:           1   (    1A   )
 NUMBER OF VALENCE ORBITALS:        8   (    8A   )

 MOLECULE CHANGED: INITIALIZING OCCUPATION AND DUMP RECORDS


 NUCLEAR REPULSION ENERGY   13.68681606

 Basis set:  JKFIT                   
 Basis size:  1104
 Attributes:
 Sphericals:   T
 Basis set:  MP2FIT                  
 Basis size:  1246
 Attributes:
 Sphericals:   T
 Basis set:  RI                      
 Basis size:   730
 Attributes:
 Sphericals:   T
 Basis set:  TDDFT                   
 Basis size:  1246
 Attributes:
 Sphericals:   T

 Eigenvalues of metric

         1 0.143E-05 0.189E-05 0.353E-05 0.526E-05 0.537E-05 0.816E-05 0.841E-05 0.849E-05


 Contracted 2-electron integrals neglected if value below      1.0D-14

 OPERATOR DM      FOR CENTER  0  COORDINATES:    0.000000    0.000000    0.000000


 **********************************************************************************************************************************
 DATASETS  * FILE   NREC   LENGTH (MB)   RECORD NAMES
              1      18       49.80       500      610      700      900      950      970     1000      129      960     1100   
                                          VAR    BASINP    GEOM    SYMINP    ZMAT    AOBASIS   BASIS     P2S    ABASIS      S 
                                         1400     1410     1200     1210     1080     1600     1650     1700   
                                           T        V       H0       H01     AOSYM     SMH    MOLCAS    OPER   

              2       8       38.40       700     1000      520     2100     7360     7350      200     2101   
                                         GEOM     BASIS   MCVARS     RHF    F12ABS    EF12    OPTIONS    RHF  

 PROGRAMS   *        TOTAL       INT   CCSD(T)    HF-SCF       INT   CCSD(T)    HF-SCF       INT
 CPU TIMES  *     12848.28      0.60   2393.66    944.64      0.57   7278.00   1158.64   1071.97
 REAL TIME  *     13992.19 SEC
 DISK USED  *        14.29 GB (local),      508.71 GB (total)
 SF USED    *        17.68 GB
 GA USED    *         4.87 MB       (max)       0.00 MB       (current)
 **********************************************************************************************************************************


 PROGRAM * RHF-SCF (CLOSED SHELL)       Authors: W. Meyer, H.-J. Werner


 NUMBER OF ELECTRONS:       5+    5-    SPACE SYMMETRY=1    SPIN SYMMETRY: Singlet 
 CONVERGENCE THRESHOLDS:    1.00E-08 (Density)    1.00E-11 (Energy)
 MAX. NUMBER OF ITERATIONS:       60
 INTERPOLATION TYPE:            DIIS
 INTERPOLATION STEPS:              2 (START)      1 (STEP)
 LEVEL SHIFTS:                  0.00 (CLOSED)  0.00 (OPEN) 



 Orbital guess generated from atomic densities. Full valence occupancy:    9

 Molecular orbital dump at record        2102.2

 Initial occupancy:   5

 ITERATION    DDIFF          GRAD             ENERGY        2-EL.EN.            DIPOLE MOMENTS         DIIS   ORB.
    1      0.000D+00      0.000D+00       -40.19676517     53.509901    0.00411   -0.00276   -0.00131    0    start
    2      0.000D+00      0.198D-02       -40.21405737     52.218477    0.00128   -0.00088   -0.00039    1    diag
    3      0.948D-03      0.769D-03       -40.21634080     52.673984    0.00182   -0.00124   -0.00056    2    diag
    4      0.258D-03      0.192D-03       -40.21666113     52.619247    0.00162   -0.00110   -0.00049    3    diag
    5      0.958D-04      0.248D-04       -40.21666661     52.621405    0.00159   -0.00108   -0.00048    4    diag
    6      0.323D-04      0.204D-05       -40.21666665     52.621533    0.00159   -0.00108   -0.00048    5    diag
    7      0.624D-05      0.166D-06       -40.21666665     52.621495    0.00159   -0.00108   -0.00048    6    diag
    8      0.424D-06      0.136D-07       -40.21666665     52.621495    0.00159   -0.00108   -0.00048    7    diag
    9      0.540D-07      0.167D-08       -40.21666665     52.621495    0.00159   -0.00108   -0.00048    8    diag
   10      0.111D-07      0.465D-09       -40.21666665     52.621495    0.00159   -0.00108   -0.00048    9    orth
   11      0.123D-08      0.666D-10       -40.21666665     52.621495    0.00159   -0.00108   -0.00048    0    orth

 Final occupancy:   5

 !RHF STATE  1.1 Energy               -40.216666653126
 Nuclear energy                        13.68681606
 One-electron energy                  -80.21423044
 Two-electron energy                   26.31074773
 Virial quotient                       -0.99832816
 !RHF STATE  1.1 Dipole moment          0.00158623    -0.00108252    -0.00047759
 Dipole moment /Debye                   0.00403152    -0.00275131    -0.00121384

 Orbital energies:

         1.1          2.1          3.1          4.1          5.1          6.1          7.1
    -11.196017    -0.950605    -0.551931    -0.549996    -0.547818     0.020574     0.030324


 HOMO      5.1    -0.547818 =     -14.9069eV
 LUMO      6.1     0.020574 =       0.5599eV
 LUMO-HOMO         0.568392 =      15.4667eV


 **********************************************************************************************************************************
 DATASETS  * FILE   NREC   LENGTH (MB)   RECORD NAMES
              1      18       49.80       500      610      700      900      950      970     1000      129      960     1100   
                                          VAR    BASINP    GEOM    SYMINP    ZMAT    AOBASIS   BASIS     P2S    ABASIS      S 
                                         1400     1410     1200     1210     1080     1600     1650     1700   
                                           T        V       H0       H01     AOSYM     SMH    MOLCAS    OPER   

              2       9       62.49       700     1000      520     2100     7360     7350      200     2101     2102   
                                         GEOM     BASIS   MCVARS     RHF    F12ABS    EF12    OPTIONS    RHF      RHF  

 PROGRAMS   *        TOTAL    HF-SCF       INT   CCSD(T)    HF-SCF       INT   CCSD(T)    HF-SCF       INT
 CPU TIMES  *     13806.83    958.55      0.60   2393.66    944.64      0.57   7278.00   1158.64   1071.97
 REAL TIME  *     15083.65 SEC
 DISK USED  *        14.29 GB (local),      508.71 GB (total)
 SF USED    *        17.68 GB
 GA USED    *         4.87 MB       (max)       0.00 MB       (current)
 **********************************************************************************************************************************

 Basis set:  JKFIT                   
 Basis size:  1104
 Attributes:
 Sphericals:   T
 Basis set:  MP2FIT                  
 Basis size:  1246
 Attributes:
 Sphericals:   T
 Basis set:  RI                      
 Basis size:   730
 Attributes:
 Sphericals:   T
 Basis set:  TDDFT                   
 Basis size:  1246
 Attributes:
 Sphericals:   T

 PROGRAM * CCSD (Closed-shell coupled cluster)     Authors: C. Hampel, H.-J. Werner, 1991, M. Deegan, P.J. Knowles, 1992

                                  CCSD-F12 implementation by  H.-J. Werner, 2007

                   Density fitting integral evaluation by F.R. Manby, 2003,2007, G. Knizia, 2010



 Convergence thresholds:  THRVAR = 1.00D-08  THRDEN = 1.00D-10

 CCSD(T)     terms to be evaluated (factor= 1.000)


 Number of core orbitals:           1 (   1 )
 Number of closed-shell orbitals:   4 (   4 )
 Number of external orbitals:     729 ( 729 )

 Molecular orbitals read from record     2102.2  Type=RHF/CANONICAL (state 1.1)

 MP2-F12 correlation treatment (H.-J. Werner, 2006)
 ==================================================

 Using MP2-F12 with ansatz 3C(FIX)

 Using projected zeroth-order Hamiltonian (+Z)

 FOCKRIB=T FOCKRIC=T FOCKRIP=T CABSP=T CABSA=T CABSK=T CABSF=T GBC=F EBC=F DMAT=T NOFIK=T NOPAO=1 SOLVE=-1  USEPAO=0
 EXCH_A= T EXCH_B= F EXCH_C= F EXCH_P= F

 Geminal basis:    OPTFULL  GEM_TYPE=SLATER  BETA=1.0  NGEM=6

 Optimizing Gaussian exponents for each gem_beta

 Geminal optimization for beta= 1.0000
 Weight function:   m=0, omega= 1.4646

 Augmented Hessian optimization of geminal fit. Trust ratio= 0.40000
 Convergence reached after   2 iterations. Final gradient= 8.53D-16, Step= 4.26D-06, Delta= 1.28D-09

 Alpha:                 0.19532     0.81920     2.85917     9.50073    35.69989   197.79328
 Coeff:                 0.27070     0.30552     0.18297     0.10986     0.06810     0.04224


 All pairs explicitly correlated. Number of r12-pairs:           10

 Excluding core orbitals from MO domains

 AO(A)-basis ORBITAL           loaded. Number of functions:     734
 RI(R)-basis RI                loaded. Number of functions:     730
 DF-basis JKFIT                loaded. Number of functions:    1104

 Screening thresholds:   THRAO=  1.00D-10  THRMO=  1.00D-09  THRPROD=  1.00D-09
                         THRSW=  1.00D-05  THROV=  1.00D-12  THRAOF12= 1.00D-10

 CPU time for Fock operators                      6.49 sec

 Construction of ABS:
 Smallest eigenvalue of S          2.27E-04  (threshold= 1.00E-08)
 Ratio eigmin/eigmax               3.94E-05  (threshold= 1.00E-09)
 Smallest eigenvalue of S kept     2.27E-04  (threshold= 2.27E-04, 0 functions deleted, 730 kept)

 Construction of CABS:
 Smallest eigenvalue of S          9.85E-09  (threshold= 1.00E-08)
 Ratio eigmin/eigmax               9.85E-09  (threshold= 1.00E-09)
 Smallest eigenvalue of S kept     7.85E-08  (threshold= 7.85E-08, 1 functions deleted, 729 kept)

 CPU time for CABS singles                        0.72 sec

 CABS-singles contribution of  -0.00004090 patched into reference energy.
 New reference energy         -40.21670756

 AO(A)-basis ORBITAL           loaded. Number of functions:     734
 RI(R)-basis RI                loaded. Number of functions:     730
 DF-basis MP2FIT               loaded. Number of functions:    1246

 Screening thresholds:   THRAO=  1.00D-10  THRMO=  1.00D-09  THRPROD=  1.00D-09
                         THRSW=  1.00D-05  THROV=  1.00D-12  THRAOF12= 1.00D-10

 CPU time for 3-index integral evaluation        20.03 sec
 CPU time for first  half transformation          1.48 sec ( 9957.0 MFLOP/sec)
 CPU time for second half transformation          0.04 sec ( 1733.0 MFLOP/sec)
 CPU time for sorting                             0.12 sec
 CPU time for fitting                             0.12 sec (57520.7 MFLOP/sec)
 CPU time for tilde quantities                    0.24 sec (38062.5 MFLOP/sec)
 CPU time for assembly                            0.60 sec (55809.7 MFLOP/sec)
 CPU time for tranop_f12                          0.63 sec (61438.2 MFLOP/sec)
 CPU time for f12 integrals (total)              24.61 sec, Elapsed time:     25.95 sec
 F12-matrices built in  4 passes.
 F12-matrices built in  4 passes.
 F12-matrices built in  4 passes.
 F12-matrices built in  4 passes.
 FC-matrix built in  4 passes.
 CPU time for f12 matrices (total)                0.58 sec, Elapsed time:      0.60 sec

 Diagonal F12 approximation with fixed coefficients:  TSING= 0.500,  TTRIP= 0.250 (scaled by -1/beta)

 DF-MP2-F12 energy corrections:
 ==============================
 Approx.                                    Singlet             Triplet             Total
 DF-MP2-F12/3*C(DX,FIX)                -0.003936110897     -0.000213254680     -0.004149365576
 DF-MP2-F12/3*C(FIX)                   -0.003773018318     -0.000161128171     -0.003934146489
 DF-MP2-F12/3C(FIX)                    -0.003820202548     -0.000164179149     -0.003984381697

 DF-MP2-F12 correlation energies:
 ================================
 Approx.                                    Singlet             Triplet             Ecorr            Total Energy
 DF-MP2                                -0.157866844438     -0.056824677284     -0.214691521722    -40.431399079630
 DF-MP2-F12/3*C(DX,FIX)                -0.161802955334     -0.057037931964     -0.218840887298    -40.435548445206
 DF-MP2-F12/3*C(FIX)                   -0.161639862755     -0.056985805455     -0.218625668211    -40.435333226119
 DF-MP2-F12/3C(FIX)                    -0.161687046985     -0.056988856433     -0.218675903418    -40.435383461326

 SCS-DF-MP2 energies (F_SING= 1.20000  F_TRIP= 0.62222  F_PARALLEL= 0.33333):
 ============================================================================
 SCS-DF-MP2                            -0.224797790302    -40.441505348210
 SCS-DF-MP2-F12/3*C(DX,FIX)            -0.229653815179    -40.446361373087
 SCS-DF-MP2-F12/3*C(FIX)               -0.229425669812    -40.446133227720
 SCS-DF-MP2-F12/3C(FIX)                -0.229484189274    -40.446191747182
 Symmetry transformation completed.

 Number of N-1 electron functions:               4
 Number of N-2 electron functions:              10
 Number of singly external CSFs:              2916
 Number of doubly external CSFs:           4252986
 Total number of CSFs:                     4255903

 Pair and operator lists are different

 Length of J-op  integral file:             411.24 MB
 Length of K-op  integral file:             721.80 MB
 Length of 3-ext integral record:             0.00 MB

 Memory could be reduced to 2535.14 Mwords without degradation in triples

 Integral transformation finished. Total CPU: 390.41 sec, npass=  1  Memory used:1009.99 MW

 Reference energy:                    -40.21670756

 Adding F12 terms to K(Cij), methodcc=6,  factor= 1.0

 ITER.      SQ.NORM     CORR.ENERGY   TOTAL ENERGY   ENERGY CHANGE        DEN1      VAR(S)    VAR(P)  DIIS     TIME  TIME/IT
   1      1.07033674    -0.22827067   -40.44497822    -0.01357243    -0.00771825  0.62D-03  0.94D-03  1  1   513.25   100.30
   2      1.07515859    -0.22922760   -40.44593515    -0.00095693    -0.00531219  0.16D-04  0.11D-03  2  2   605.85   102.24
   3      1.07694813    -0.22929496   -40.44600252    -0.00006737    -0.00133761  0.22D-05  0.64D-05  3  3   701.08   104.05
   4      1.07735091    -0.22929742   -40.44600497    -0.00000245    -0.00021860  0.16D-06  0.39D-06  4  4   794.82   104.66
   5      1.07740818    -0.22930099   -40.44600854    -0.00000357    -0.00000963  0.14D-07  0.24D-07  5  5   885.87   104.40
   6      1.07741842    -0.22929963   -40.44600719     0.00000135    -0.00000405  0.88D-09  0.18D-08  6  6   977.24   104.27
   7      1.07741993    -0.22929924   -40.44600680     0.00000039    -0.00000089  0.55D-10  0.13D-09  6  1  1066.83   103.99
   8      1.07741986    -0.22929930   -40.44600686    -0.00000006     0.00000024  0.59D-11  0.84D-11  6  3  1159.73   104.04
   9      1.07742000    -0.22929928   -40.44600684     0.00000002    -0.00000009  0.39D-12  0.57D-12  6  2  1250.90   103.95
  10      1.07742000    -0.22929928   -40.44600684     0.00000000     0.00000001  0.55D-13  0.61D-13  6  4  1340.68   103.76
  11      1.07742001    -0.22929928   -40.44600684     0.00000000    -0.00000000  0.57D-14  0.65D-14  6  5  1432.89   103.90
  12      1.07742000    -0.22929928   -40.44600684     0.00000000     0.00000000  0.15D-15  0.65D-15  6  6  1521.95   103.61
  13      1.07742000    -0.22929928   -40.44600684    -0.00000000     0.00000000  0.12D-16  0.73D-16  6  1  1611.47   103.46
  14      1.07742000    -0.22929928   -40.44600684    -0.00000000     0.00000000  0.19D-17  0.12D-16  6  3  1701.95   103.45

 Norm of t1 vector:      0.03268919      S-energy:     0.00000000      T1 diagnostic:  0.00817230
                                                                       D1 diagnostic:  0.01311254

 Adding energy correction from Wij-K(Fij), methodcc=6  factor= 1.0

  CCSD correlation energy              -0.229299282018
  MP2-F12 correction (uncoupled)       -0.003886592365
  C*T doubles correction               -0.000069369666
  f12b correction                       0.001101127249

 Total CPU time for triples:    408.31 sec

  Ecorr(MP2)                           -0.214698230653
  Ecorr(MP2-F12)                       -0.218682612350
  Scale factor for triples energy       1.018558055577


 RESULTS
 =======

  Reference energy                    -40.216666653127
  F12 singles correction               -0.000040904781

 F12 singles corrections added to reference energy

  New reference energy                -40.216707557908

  F12a singlet correction              -0.003784481255
  F12a triplet correction              -0.000171480776
  F12a total correction                -0.003955962031

 F12a corrections for ansatz F12/3C(FIX) added to CCSD energy

  CCSD-F12a singlet pair energy        -0.178096673350
  CCSD-F12a triplet pair energy        -0.055158570706
  CCSD-F12a correlation energy         -0.233255244049

  Triples (T) contribution (scaled)    -0.007109194326
  Total correlation energy             -0.240364438375

  CCSD-F12a total energy              -40.449962801957
  CCSD[T]-F12a energy                 -40.457307622288
  CCSD-T-F12a energy                  -40.457004150057
 !CCSD(T)-F12a total energy           -40.457071996283

 F12b corrections for ansatz F12/3C(FIX) added to CCSD(T)-F12a energy

  CCSD-F12b singlet pair energy        -0.177024722391
  CCSD-F12b triplet pair energy        -0.055129394416
  CCSD-F12b correlation energy         -0.232154116800

  Triples (T) contribution (scaled)    -0.007109194326
  Total correlation energy             -0.239263311127

  CCSD-F12b total energy              -40.448861674709
  CCSD[T]-F12b energy                 -40.456206495039
  CCSD-T-F12b energy                  -40.455903022808
 !CCSD(T)-F12b total energy           -40.455970869035

 Timing summary (sec):

 STEP                 CPU(USER)    SYS     CPU(TOT)    WALL
 Transformation        390.70     24.37    415.07    416.79
 CCSD iterations      1277.78    164.55   1442.33   1448.49
 Triples               408.31      5.86    414.17    415.98
 MP2-F12                33.59      1.58     35.17     35.37
 F12b energy            87.54     10.58     98.12     98.55

 Program statistics:

 Available memory in ccsd:              3999999866
 Min. memory needed in ccsd:              19260852
 Max. memory used in ccsd:                22423154
 Max. memory used in cckext:              14628952 (15 integral passes)



 **********************************************************************************************************************************
 DATASETS  * FILE   NREC   LENGTH (MB)   RECORD NAMES
              1      19     6330.34       500      610      700      900      950      970     1000      129      960     1100   
                                          VAR    BASINP    GEOM    SYMINP    ZMAT    AOBASIS   BASIS     P2S    ABASIS      S 
                                         1400     1410     1200     1210     1080     1600     1650     1700     1380   
                                           T        V       H0       H01     AOSYM     SMH    MOLCAS    OPER     JKOP   

              2       9       62.49       700     1000      520     2100     7360     7350      200     2101     2102   
                                         GEOM     BASIS   MCVARS     RHF    F12ABS    EF12    OPTIONS    RHF      RHF  

 PROGRAMS   *        TOTAL   CCSD(T)    HF-SCF       INT   CCSD(T)    HF-SCF       INT   CCSD(T)    HF-SCF       INT
 CPU TIMES  *     16005.08   2198.25    958.55      0.60   2393.66    944.64      0.57   7278.00   1158.64   1071.97
 REAL TIME  *     17500.51 SEC
 DISK USED  *        14.29 GB (local),      508.71 GB (total)
 SF USED    *        17.68 GB
 GA USED    *         4.87 MB       (max)       0.00 MB       (current)
 **********************************************************************************************************************************
 Molecular orbitals read from record     2102.2  Type=RHF/CANONICAL (state 1.1)
 Occupation numbers read from record     2102.2  Type=RHF/RHF (state 1.1)
 Orbital energies read from record       2102.2  Type=RHF/CANONICAL (state 1.1)
 Redundancy group numbers read from rec  2102.2  Type=RHF/RHF (state 1.1)

 CCSD(T)-F12/aug-cc-pV5Z energy=    -40.455970869035

     CCSD(T)-F12          HF-SCF     CCSD(T)-F12          HF-SCF     CCSD(T)-F12          HF-SCF
    -40.45597087    -40.21666665    -76.37187198    -76.06233363   -116.82837083   -116.27894950
 **********************************************************************************************************************************
 Molpro calculation terminated
