
 Primary working directories    : /scratch.ssd/kelum/job_380609.cerit-pbs.cerit-sc.cz/molpro.UQVWC72l8E
 Secondary working directories  : /scratch.ssd/kelum/job_380609.cerit-pbs.cerit-sc.cz/molpro.UQVWC72l8E
 Wavefunction directory         : /scratch.ssd/kelum/job_380609.cerit-pbs.cerit-sc.cz/
 Main file repository           : /scratch.ssd/kelum/job_380609.cerit-pbs.cerit-sc.cz/molpro.UQVWC72l8E/

 id        : karlovklimes

 Nodes              nprocs
 zenon51.cerit-sc.cz    4

 Using customized tuning parameters: mindgm=1; mindgv=20; mindgc=4; mindgr=1; noblas=0; minvec=7
 default implementation of scratch files=sf  


 Variables initialized (934), CPU time= 0.06 sec
                                                                                 !gdirect
 memory,4000,m
 gthresh,orbital=1d-10,energy=1d-10
 
 symmetry,nosym
 angstrom
 geometry={
 O11        -2.921900000000      2.481400000000      4.906200000000
 H21        -2.027400000000      2.492000000000      4.514500000000
 H22        -3.418800000000      3.190500000000      4.446000000000
 C1        -3.277200000000      1.482500000000      1.271900000000
 H41        -2.464000000000      0.899600000000      1.651000000000
 H42        -3.160800000000      2.501000000000      1.578500000000
 H43        -4.201800000000      1.099200000000      1.650100000000
 H44        -3.268500000000      1.421000000000      0.203700000000
 }
 
 nkerna=1
 nkernb=1
 
 gf=0
 sing=1
 thrdum=1d-4
 gridthr=1d-8
 
 basis={
 set,orbital
 default,av5z
 set,jkfit
 default,av5z/jkfit
 set,mp2fit
 default,av5z/mp2fit
 set,ri
 default,av5z/optri
 set,tddft
 default,av5z/mp2fit
 }
 
 proc set_monomer1
 dummy,4,5,6,7,8
 endproc
 
 proc set_monomer2
 dummy,1,2,3
 endproc
 
                                                                                 !12 energy
 {hf,accu=1.d-16}
 {ccsd(t)-f12,df_basis=mp2fit,df_basis_exch=jkfit,ri_basis=ri,scale_trip=1,THRAOF12=1d-10}
 
 set_monomer1
 {hf,accu=1.d-16}
 {ccsd(t)-f12,df_basis=mp2fit,df_basis_exch=jkfit,ri_basis=ri,scale_trip=1,THRAOF12=1d-10}
 
 set_monomer2
 {hf,accu=1.d-16}
 {ccsd(t)-f12,df_basis=mp2fit,df_basis_exch=jkfit,ri_basis=ri,scale_trip=1,THRAOF12=1d-10}
 
 Commands  initialized (763), CPU time= 0.02 sec, 617 directives.
 Default parameters read. Elapsed time= 0.21 sec

 Checking input...
 Passed
1


                                         ***  PROGRAM SYSTEM MOLPRO  ***
                                       Copyright, TTI GmbH Stuttgart, 2015
                                    Version 2019.2 linked Jun  8 2019 11:26:33


 **********************************************************************************************************************************
 LABEL *                                                                                 
  64 bit mpp version                                                                     DATE: 24-Mar-20          TIME: 13:50:52  
 **********************************************************************************************************************************

 SHA1:             8135a10abc80eafa5b3ae28ffc55be4890dc4c84
 **********************************************************************************************************************************

 THRESHOLDS:

 ZERO    =  1.00D-12  ONEINT  =  1.00D-12  TWOINT  =  1.00D-11  PREFAC  =  1.00D-14  XXXXXX  =  1.00D-09  EORDER  =  1.00D-04
 ENERGY  =  1.00D-10  ETEST   =  0.00D+00  EDENS   =  0.00D+00  THRDEDEF=  1.00D-06  GRADIENT=  1.00D-02  STEP    =  1.00D-03
 ORBITAL =  1.00D-10  CIVEC   =  1.00D-05  COEFF   =  1.00D-04  PRINTCI =  5.00D-02  PUNCHCI =  9.90D+01  OPTGRAD =  3.00D-04
 OPTENERG=  1.00D-06  OPTSTEP =  3.00D-04  THRGRAD =  1.00D-10  COMPRESS=  1.00D-11  VARMIN  =  1.00D-07  VARMAX  =  1.00D-03
 THRDOUB =  0.00D+00  THRDIV  =  1.00D-05  THRRED  =  1.00D-07  THRPSP  =  1.00D+00  THRDC   =  1.00D-10  THRCS   =  1.00D-10
 THRNRM  =  1.00D-08  THREQ   =  0.00D+00  THRDE   =  1.00D+00  THRREF  =  1.00D-05  SPARFAC =  1.00D+00  THRDLP  =  1.00D-07
 THRDIA  =  1.00D-10  THRDLS  =  1.00D-07  THRGPS  =  0.00D+00  THRKEX  =  0.00D+00  THRDIS  =  2.00D-01  THRVAR  =  1.00D-10
 THRLOC  =  1.00D-06  THRGAP  =  1.00D-06  THRLOCT = -1.00D+00  THRGAPT = -1.00D+00  THRORB  =  1.00D-06  THRMLTP =  0.00D+00
 THRCPQCI=  1.00D-10  KEXTA   =  0.00D+00  THRCOARS=  0.00D+00  SYMTOL  =  1.00D-06  GRADTOL =  1.00D-06  THROVL  =  1.00D-08
 THRORTH =  1.00D-08  GRID    =  1.00D-06  GRIDMAX =  1.00D-03  DTMAX   =  0.00D+00  THROCCDE=  1.00D-01  THROCCDE=  1.00D-01
 THRPRINT=  2.50D-01


 Variable memory set to 4000000000 words,  buffer space 

 ZSYMEL=NOSYM
 ZUNIT=ANG


Geometry recognized as XYZ

 SETTING NKERNA         =         1.00000000                                  
 SETTING NKERNB         =         1.00000000                                  
 SETTING GF             =     0.00000000D+00                                  
 SETTING SING           =         1.00000000                                  
 SETTING THRDUM         =     1.00000000D-04                                  
 SETTING GRIDTHR        =     1.00000000D-08                                  
 SETTING BASIS          =    AV5Z


 Recomputing integrals since basis changed


 Using spherical harmonics

 Library entry O      S aug-cc-pV5Z          selected for orbital group  1
 Library entry O      P aug-cc-pV5Z          selected for orbital group  1
 Library entry O      D aug-cc-pV5Z          selected for orbital group  1
 Library entry O      F aug-cc-pV5Z          selected for orbital group  1
 Library entry O      G aug-cc-pV5Z          selected for orbital group  1
 Library entry O      H aug-cc-pV5Z          selected for orbital group  1
 Library entry H      S aug-cc-pV5Z          selected for orbital group  2
 Library entry H      P aug-cc-pV5Z          selected for orbital group  2
 Library entry H      D aug-cc-pV5Z          selected for orbital group  2
 Library entry H      F aug-cc-pV5Z          selected for orbital group  2
 Library entry H      G aug-cc-pV5Z          selected for orbital group  2
 Library entry C      S aug-cc-pV5Z          selected for orbital group  3
 Library entry C      P aug-cc-pV5Z          selected for orbital group  3
 Library entry C      D aug-cc-pV5Z          selected for orbital group  3
 Library entry C      F aug-cc-pV5Z          selected for orbital group  3
 Library entry C      G aug-cc-pV5Z          selected for orbital group  3
 Library entry C      H aug-cc-pV5Z          selected for orbital group  3


 PROGRAM * SEWARD (Integral evaluation for generally contracted gaussian basis sets)     Author: Roland Lindh, 1990

 Geometry written to block  1 of record 700


 Point group  C1  



 ATOMIC COORDINATES

 NR  ATOM    CHARGE       X              Y              Z

   1  O11     8.00   -5.521590763    4.689166405    9.271374312
   2  H21     1.00   -3.831230745    4.709197502    8.531168589
   3  H22     1.00   -6.460595675    6.029171200    8.401722350
   4  C1      6.00   -6.193010455    2.801518980    2.403542658
   5  H41     1.00   -4.656285171    1.699997622    3.119937832
   6  H42     1.00   -5.973046335    4.726205038    2.982932688
   7  H43     1.00   -7.940251230    2.077186956    3.118237078
   8  H44     1.00   -6.176569838    2.685300823    0.384937212

 Bond lengths in Bohr (Angstrom)

 1-2  1.845432944  1-3  1.853007720  4-5  2.021904040  4-6  2.022002335  4-7  2.021953343
     ( 0.976561058)     ( 0.980569457)     ( 1.069945541)     ( 1.069997556)     ( 1.069971630)

 4-8  2.022015060
     ( 1.070004290)

 Bond angles

  2-1-3  105.54946434   5-4-6  109.53398059   5-4-7  109.65604535   5-4-8  108.43490854

  6-4-7  109.49436728   6-4-8  109.86987750   7-4-8  109.83468330

 NUCLEAR CHARGE:                   20
 NUMBER OF PRIMITIVE AOS:        1046
 NUMBER OF SYMMETRY AOS:          786
 NUMBER OF CONTRACTIONS:          734   (  734A   )
 NUMBER OF CORE ORBITALS:           2   (    2A   )
 NUMBER OF VALENCE ORBITALS:       14   (   14A   )


 NUCLEAR REPULSION ENERGY   36.73986578


 Basis set:  JKFIT                   
 Basis size:  1104
 Attributes:
 Sphericals:   T
 Basis set:  MP2FIT                  
 Basis size:  1246
 Attributes:
 Sphericals:   T
 Basis set:  RI                      
 Basis size:   730
 Attributes:
 Sphericals:   T
 Basis set:  TDDFT                   
 Basis size:  1246
 Attributes:
 Sphericals:   T

 **********************************************************************************************************************************


 Eigenvalues of metric

         1 0.173E-05 0.182E-05 0.349E-05 0.446E-05 0.531E-05 0.721E-05 0.798E-05 0.879E-05


 Contracted 2-electron integrals neglected if value below      1.0D-14
 AO integral compression algorithm  1   Integral accuracy      1.0D-14

     152160.961 MB (compressed) written to integral file ( 48.2%)

     Node minimum: 37140.300 MB, node maximum: 39505.101 MB


 NUMBER OF SORTED TWO-ELECTRON INTEGRALS: 9095363064.     BUFFER LENGTH:  32768
 NUMBER OF SEGMENTS: 190  SEGMENT LENGTH:   47999780      RECORD LENGTH: 131072

 Memory used in sort:      48.16 MW

 SORT1 READ 39471791889. AND WROTE  7008873555. INTEGRALS IN  80308 RECORDS. CPU TIME:  1036.51 SEC, REAL TIME:  1273.47 SEC
 SORT2 READ 28040468351. AND WROTE 36381317385. INTEGRALS IN 566716 RECORDS. CPU TIME:   122.84 SEC, REAL TIME:   452.46 SEC

 Node minimum:  9095228192.  Node maximum:  9095430501. integrals

 OPERATOR DM      FOR CENTER  0  COORDINATES:    0.000000    0.000000    0.000000


 **********************************************************************************************************************************
 DATASETS  * FILE   NREC   LENGTH (MB)   RECORD NAMES
              1      18       49.80       500      610      700      900      950      970     1000      129      960     1100   
                                          VAR    BASINP    GEOM    SYMINP    ZMAT    AOBASIS   BASIS     P2S    ABASIS      S 
                                         1400     1410     1200     1210     1080     1600     1650     1700   
                                           T        V       H0       H01     AOSYM     SMH    MOLCAS    OPER   

 PROGRAMS   *        TOTAL       INT
 CPU TIMES  *      1707.71   1707.53
 REAL TIME  *      2331.75 SEC
 DISK USED  *        50.44 MB (local),      488.49 GB (total)
 GA USED    *         0.00 MB       (max)       0.00 MB       (current)
 **********************************************************************************************************************************


 PROGRAM * RHF-SCF (CLOSED SHELL)       Authors: W. Meyer, H.-J. Werner


 NUMBER OF ELECTRONS:      10+   10-    SPACE SYMMETRY=1    SPIN SYMMETRY: Singlet 
 CONVERGENCE THRESHOLDS:    1.00E-08 (Density)    1.00E-11 (Energy)
 MAX. NUMBER OF ITERATIONS:       60
 INTERPOLATION TYPE:            DIIS
 INTERPOLATION STEPS:              2 (START)      1 (STEP)
 LEVEL SHIFTS:                  0.00 (CLOSED)  0.00 (OPEN) 



 Orbital guess generated from atomic densities. Full valence occupancy:   16

 Molecular orbital dump at record        2100.2

 Initial occupancy:  10

 ITERATION    DDIFF          GRAD             ENERGY        2-EL.EN.            DIPOLE MOMENTS         DIIS   ORB.
    1      0.000D+00      0.000D+00      -116.22254870    158.937522    0.38789    0.69412   -0.82696    0    start
    2      0.000D+00      0.291D-02      -116.26683051    154.073602    0.20495    0.35866   -0.48530    1    diag
    3      0.163D-02      0.171D-02      -116.28046434    156.107662    0.25190    0.44511   -0.57118    2    diag
    4      0.558D-03      0.255D-03      -116.28112962    155.995442    0.24879    0.43932   -0.56263    3    diag
    5      0.124D-03      0.746D-04      -116.28119905    155.989760    0.24846    0.43887   -0.56250    4    diag
    6      0.503D-04      0.181D-04      -116.28120288    155.995461    0.24819    0.43838   -0.56194    5    diag
    7      0.177D-04      0.359D-05      -116.28120311    155.993728    0.24820    0.43841   -0.56194    6    diag
    8      0.533D-05      0.901D-06      -116.28120312    155.993905    0.24817    0.43836   -0.56189    7    diag
    9      0.122D-05      0.214D-06      -116.28120312    155.993880    0.24817    0.43835   -0.56187    8    diag
   10      0.273D-06      0.255D-07      -116.28120312    155.993881    0.24817    0.43835   -0.56187    9    orth
   11      0.628D-07      0.590D-08      -116.28120312    155.993882    0.24817    0.43835   -0.56187    9    diag
   12      0.467D-08      0.159D-08      -116.28120312    155.993882    0.24817    0.43835   -0.56187    0    orth

 Final occupancy:  10

 !RHF STATE  1.1 Energy              -116.281203124838
 Nuclear energy                        36.73986578
 One-electron energy                 -231.01800992
 Two-electron energy                   77.99694102
 Virial quotient                       -1.00067263
 !RHF STATE  1.1 Dipole moment          0.24816571     0.43834932    -0.56187416
 Dipole moment /Debye                   0.63073301     1.11409986    -1.42804814

 Orbital energies:

         1.1          2.1          3.1          4.1          5.1          6.1          7.1          8.1          9.1         10.1
    -20.565992   -11.199464    -1.340154    -0.953920    -0.707162    -0.578455    -0.555637    -0.553220    -0.551036    -0.507021

        11.1         12.1
      0.020055     0.032172


 HOMO     10.1    -0.507021 =     -13.7968eV
 LUMO     11.1     0.020055 =       0.5457eV
 LUMO-HOMO         0.527076 =      14.3425eV


 **********************************************************************************************************************************
 DATASETS  * FILE   NREC   LENGTH (MB)   RECORD NAMES
              1      18       49.80       500      610      700      900      950      970     1000      129      960     1100   
                                          VAR    BASINP    GEOM    SYMINP    ZMAT    AOBASIS   BASIS     P2S    ABASIS      S 
                                         1400     1410     1200     1210     1080     1600     1650     1700   
                                           T        V       H0       H01     AOSYM     SMH    MOLCAS    OPER   

              2       4       13.79       700     1000      520     2100   
                                         GEOM     BASIS   MCVARS     RHF  

 PROGRAMS   *        TOTAL    HF-SCF       INT
 CPU TIMES  *      2882.05   1174.34   1707.53
 REAL TIME  *      3687.98 SEC
 DISK USED  *       102.61 MB (local),      488.70 GB (total)
 SF USED    *         2.16 MB
 GA USED    *         0.00 MB       (max)       0.00 MB       (current)
 **********************************************************************************************************************************

 Basis set:  JKFIT                   
 Basis size:  1104
 Attributes:
 Sphericals:   T
 Basis set:  MP2FIT                  
 Basis size:  1246
 Attributes:
 Sphericals:   T
 Basis set:  RI                      
 Basis size:   730
 Attributes:
 Sphericals:   T
 Basis set:  TDDFT                   
 Basis size:  1246
 Attributes:
 Sphericals:   T

 PROGRAM * CCSD (Closed-shell coupled cluster)     Authors: C. Hampel, H.-J. Werner, 1991, M. Deegan, P.J. Knowles, 1992

                                  CCSD-F12 implementation by  H.-J. Werner, 2007

                   Density fitting integral evaluation by F.R. Manby, 2003,2007, G. Knizia, 2010



 Convergence thresholds:  THRVAR = 1.00D-08  THRDEN = 1.00D-10

 CCSD(T)     terms to be evaluated (factor= 1.000)


 Number of core orbitals:           2 (   2 )
 Number of closed-shell orbitals:   8 (   8 )
 Number of external orbitals:     724 ( 724 )

 Molecular orbitals read from record     2100.2  Type=RHF/CANONICAL (state 1.1)

 MP2-F12 correlation treatment (H.-J. Werner, 2006)
 ==================================================

 Using MP2-F12 with ansatz 3C(FIX)

 Using projected zeroth-order Hamiltonian (+Z)

 FOCKRIB=T FOCKRIC=T FOCKRIP=T CABSP=T CABSA=T CABSK=T CABSF=T GBC=F EBC=F DMAT=T NOFIK=T NOPAO=1 SOLVE=-1  USEPAO=0
 EXCH_A= T EXCH_B= F EXCH_C= F EXCH_P= F

 Geminal basis:    OPTFULL  GEM_TYPE=SLATER  BETA=1.0  NGEM=6

 Optimizing Gaussian exponents for each gem_beta

 Geminal optimization for beta= 1.0000
 Weight function:   m=0, omega= 1.4646

 Augmented Hessian optimization of geminal fit. Trust ratio= 0.40000
 Convergence reached after   2 iterations. Final gradient= 7.85D-16, Step= 4.26D-06, Delta= 1.28D-09

 Alpha:                 0.19532     0.81920     2.85917     9.50073    35.69989   197.79328
 Coeff:                 0.27070     0.30552     0.18297     0.10986     0.06810     0.04224


 All pairs explicitly correlated. Number of r12-pairs:           36

 Excluding core orbitals from MO domains

 AO(A)-basis ORBITAL           loaded. Number of functions:     734
 RI(R)-basis RI                loaded. Number of functions:     730
 DF-basis JKFIT                loaded. Number of functions:    1104

 Screening thresholds:   THRAO=  1.00D-10  THRMO=  1.00D-09  THRPROD=  1.00D-09
                         THRSW=  1.00D-05  THROV=  1.00D-12  THRAOF12= 1.00D-10

 CPU time for Fock operators                     11.61 sec

 Construction of ABS:
 Smallest eigenvalue of S          2.27E-04  (threshold= 1.00E-08)
 Ratio eigmin/eigmax               3.94E-05  (threshold= 1.00E-09)
 Smallest eigenvalue of S kept     2.27E-04  (threshold= 2.27E-04, 0 functions deleted, 730 kept)

 Construction of CABS:
 Smallest eigenvalue of S          9.87E-09  (threshold= 1.00E-08)
 Ratio eigmin/eigmax               9.87E-09  (threshold= 1.00E-09)
 Smallest eigenvalue of S kept     7.95E-08  (threshold= 7.95E-08, 1 functions deleted, 729 kept)

 CPU time for CABS singles                        3.06 sec

 CABS-singles contribution of  -0.00007959 patched into reference energy.
 New reference energy        -116.28128272

 AO(A)-basis ORBITAL           loaded. Number of functions:     734
 RI(R)-basis RI                loaded. Number of functions:     730
 DF-basis MP2FIT               loaded. Number of functions:    1246

 Screening thresholds:   THRAO=  1.00D-10  THRMO=  1.00D-09  THRPROD=  1.00D-09
                         THRSW=  1.00D-05  THROV=  1.00D-12  THRAOF12= 1.00D-10

 CPU time for 3-index integral evaluation        25.58 sec
 CPU time for first  half transformation          5.74 sec ( 5168.0 MFLOP/sec)
 CPU time for second half transformation          0.12 sec ( 2268.4 MFLOP/sec)
 CPU time for sorting                             0.22 sec
 CPU time for fitting                             1.26 sec ( 7363.4 MFLOP/sec)
 CPU time for tilde quantities                    1.69 sec ( 8150.2 MFLOP/sec)
 CPU time for assembly                           16.13 sec ( 7903.0 MFLOP/sec)
 CPU time for tranop_f12                         21.24 sec ( 7854.1 MFLOP/sec)
 CPU time for f12 integrals (total)              99.53 sec, Elapsed time:    104.58 sec
 F12-matrices built in  4 passes.
 F12-matrices built in  4 passes.
 F12-matrices built in  4 passes.
 F12-matrices built in  4 passes.
 FC-matrix built in  4 passes.
 CPU time for f12 matrices (total)               15.29 sec, Elapsed time:     15.60 sec

 Diagonal F12 approximation with fixed coefficients:  TSING= 0.500,  TTRIP= 0.250 (scaled by -1/beta)

 DF-MP2-F12 energy corrections:
 ==============================
 Approx.                                    Singlet             Triplet             Total
 DF-MP2-F12/3*C(DX,FIX)                -0.011197807254     -0.000787112037     -0.011984919291
 DF-MP2-F12/3*C(FIX)                   -0.010388689350     -0.000516380644     -0.010905069995
 DF-MP2-F12/3C(FIX)                    -0.010500873949     -0.000531962480     -0.011032836430

 DF-MP2-F12 correlation energies:
 ================================
 Approx.                                    Singlet             Triplet             Ecorr            Total Energy
 DF-MP2                                -0.350246356233     -0.159620533385     -0.509866889618   -116.791149608783
 DF-MP2-F12/3*C(DX,FIX)                -0.361444163488     -0.160407645422     -0.521851808909   -116.803134528074
 DF-MP2-F12/3*C(FIX)                   -0.360635045583     -0.160136914030     -0.520771959613   -116.802054678777
 DF-MP2-F12/3C(FIX)                    -0.360747230182     -0.160152495866     -0.520899726048   -116.802182445212

 SCS-DF-MP2 energies (F_SING= 1.20000  F_TRIP= 0.62222  F_PARALLEL= 0.33333):
 ============================================================================
 SCS-DF-MP2                            -0.519615070475   -116.800897789640
 SCS-DF-MP2-F12/3*C(DX,FIX)            -0.533542197781   -116.814824916945
 SCS-DF-MP2-F12/3*C(FIX)               -0.532402801207   -116.813685520372
 SCS-DF-MP2-F12/3C(FIX)                -0.532547118091   -116.813829837255
 Symmetry transformation completed.

 Number of N-1 electron functions:               8
 Number of N-2 electron functions:              36
 Number of singly external CSFs:              5792
 Number of doubly external CSFs:          16776528
 Total number of CSFs:                    16782321

 Pair and operator lists are different

 Length of J-op  integral file:               1.47 GB
 Length of K-op  integral file:               2.18 GB
 Length of 3-ext integral record:             0.00 MB

 For full I/O caching in triples, increase memory by 34.16 Mwords to 4034.21 Mwords.

 Integral transformation finished. Total CPU:1476.29 sec, npass=  1  Memory used:1826.21 MW

 Reference energy:                   -116.28128272

 Adding F12 terms to K(Cij), methodcc=6,  factor= 1.0

 ITER.      SQ.NORM     CORR.ENERGY   TOTAL ENERGY   ENERGY CHANGE        DEN1      VAR(S)    VAR(P)  DIIS     TIME  TIME/IT
   1      1.13430239    -0.52187202  -116.80315474    -0.01199231    -0.00006011  0.14D-02  0.20D-02  1  1  2279.34   675.95
   2      1.14256992    -0.52292429  -116.80420701    -0.00105227    -0.01022404  0.33D-04  0.25D-03  2  2  2951.39   684.67
   3      1.14580744    -0.52308958  -116.80437230    -0.00016529    -0.00234340  0.12D-04  0.14D-04  3  3  3623.02   686.51
   4      1.14676844    -0.52309444  -116.80437716    -0.00000486    -0.00053131  0.67D-06  0.13D-05  4  4  4302.52   690.90
   5      1.14693734    -0.52309625  -116.80437897    -0.00000181    -0.00004224  0.20D-06  0.94D-07  5  5  4983.39   692.76
   6      1.14698335    -0.52309352  -116.80437623     0.00000274    -0.00000819  0.22D-07  0.83D-08  6  6  5669.91   694.85
   7      1.14699424    -0.52309230  -116.80437502     0.00000122    -0.00000276  0.24D-08  0.11D-08  6  2  6349.49   696.62
   8      1.14699708    -0.52309204  -116.80437476     0.00000025    -0.00000045  0.36D-09  0.11D-09  6  1  7009.21   694.35
   9      1.14699795    -0.52309201  -116.80437473     0.00000003    -0.00000000  0.36D-10  0.18D-10  6  3  7675.90   693.30
  10      1.14699813    -0.52309201  -116.80437473     0.00000000     0.00000007  0.38D-11  0.25D-11  6  4  8353.38   693.50
  11      1.14699809    -0.52309202  -116.80437474    -0.00000001     0.00000008  0.61D-12  0.31D-12  6  5  9016.49   692.36
  12      1.14699808    -0.52309202  -116.80437474    -0.00000000     0.00000002  0.11D-12  0.43D-13  6  6  9689.89   692.39
  13      1.14699806    -0.52309202  -116.80437474    -0.00000000     0.00000001  0.21D-13  0.60D-14  6  2 10359.95   692.02
  14      1.14699806    -0.52309202  -116.80437474    -0.00000000     0.00000000  0.34D-14  0.13D-14  6  1 11032.25   692.01
  15      1.14699805    -0.52309202  -116.80437474    -0.00000000    -0.00000000  0.43D-15  0.23D-15  6  3 11716.35   692.84
  16      1.14699805    -0.52309202  -116.80437474    -0.00000000    -0.00000000  0.72D-16  0.32D-16  6  4 12403.79   693.76
  17      1.14699805    -0.52309202  -116.80437474     0.00000000    -0.00000000  0.18D-16  0.66D-17  6  5 13088.36   694.32

 Norm of t1 vector:      0.04979257      S-energy:    -0.00000000      T1 diagnostic:  0.00880217
                                                                       D1 diagnostic:  0.01939154

 Adding energy correction from Wij-K(Fij), methodcc=6  factor= 1.0

  CCSD correlation energy              -0.523092022921
  MP2-F12 correction (uncoupled)       -0.010852318309
  C*T doubles correction               -0.000161296904
  f12b correction                       0.002684785172

   CPU time for triples:   2214.95 sec for i =  1 -  3 /  8 (~   6.2 % done)
   CPU time for triples:   2240.24 sec for i =  4 -  5 /  8 (~  26.8 % done)
   CPU time for triples:   2349.61 sec for i =  6 -  6 /  8 (~  44.6 % done)
   CPU time for triples:   4579.18 sec for i =  7 -  7 /  8 (~  68.8 % done)
   CPU time for triples:   4605.30 sec for i =  8 -  8 /  8 (  100.0 % done)

 Total CPU time for triples:  16360.98 sec

  Ecorr(MP2)                           -0.509879703620
  Ecorr(MP2-F12)                       -0.520912540050
  Scale factor for triples energy       1.021638116503


 RESULTS
 =======

  Reference energy                   -116.281203124839
  F12 singles correction               -0.000079594325

 F12 singles corrections added to reference energy

  New reference energy               -116.281282719164

  F12a singlet correction              -0.010441225319
  F12a triplet correction              -0.000572389894
  F12a total correction                -0.011013615213

 F12a corrections for ansatz F12/3C(FIX) added to CCSD energy

  CCSD-F12a singlet pair energy        -0.387602641958
  CCSD-F12a triplet pair energy        -0.146502995917
  CCSD-F12a correlation energy         -0.534105638134

  Triples (T) contribution (scaled)    -0.017296359815
  Total correlation energy             -0.551401997949

  CCSD-F12a total energy             -116.815388357299
  CCSD[T]-F12a energy                -116.833243194014
  CCSD-T-F12a energy                 -116.832474632907
 !CCSD(T)-F12a total energy          -116.832684717113

 F12b corrections for ansatz F12/3C(FIX) added to CCSD(T)-F12a energy

  CCSD-F12b singlet pair energy        -0.385010636434
  CCSD-F12b triplet pair energy        -0.146410216269
  CCSD-F12b correlation energy         -0.531420852963

  Triples (T) contribution (scaled)    -0.017296359815
  Total correlation energy             -0.548717212778

  CCSD-F12b total energy             -116.812703572127
  CCSD[T]-F12b energy                -116.830558408842
  CCSD-T-F12b energy                 -116.829789847735
 !CCSD(T)-F12b total energy          -116.829999931942

 Timing summary (sec):

 STEP                 CPU(USER)    SYS     CPU(TOT)    WALL
 Transformation       1479.39     38.81   1518.20   1543.77
 CCSD iterations     11467.55    210.24  11677.79  11804.18
 Triples             16360.98     34.10  16395.08  16625.01
 MP2-F12               141.73      4.83    146.56    148.61
 F12b energy           628.26     11.03    639.29    643.97

 Program statistics:

 Available memory in ccsd:              3999999554
 Min. memory needed in ccsd:              48689265
 Max. memory used in ccsd:                63255345
 Max. memory used in cckext:              42753482 (18 integral passes)



 **********************************************************************************************************************************
 DATASETS  * FILE   NREC   LENGTH (MB)   RECORD NAMES
              1      19    12452.16       500      610      700      900      950      970     1000      129      960     1100   
                                          VAR    BASINP    GEOM    SYMINP    ZMAT    AOBASIS   BASIS     P2S    ABASIS      S 
                                         1400     1410     1200     1210     1080     1600     1650     1700     1380   
                                           T        V       H0       H01     AOSYM     SMH    MOLCAS    OPER     JKOP   

              2       6       24.60       700     1000      520     2100     7360     7350   
                                         GEOM     BASIS   MCVARS     RHF    F12ABS    EF12   

 PROGRAMS   *        TOTAL   CCSD(T)    HF-SCF       INT
 CPU TIMES  *     32960.19  30078.12   1174.34   1707.53
 REAL TIME  *     34456.47 SEC
 DISK USED  *        14.29 GB (local),      540.01 GB (total)
 SF USED    *        17.68 GB
 GA USED    *         4.87 MB       (max)       0.00 MB       (current)
 **********************************************************************************************************************************

 Running procedure: SET_MONOMER1

 Dummy atoms: C1  H41  H42  H43  H44


 Recomputing one-electron integrals since nuclear charges changed


 PROGRAM * SEWARD (Integral evaluation for generally contracted gaussian basis sets)     Author: Roland Lindh, 1990

 Geometry written to block  1 of record 700


 Point group  C1  



 ATOMIC COORDINATES

 NR  ATOM    CHARGE       X              Y              Z

   1  O11     8.00   -5.521590763    4.689166405    9.271374312
   2  H21     1.00   -3.831230745    4.709197502    8.531168589
   3  H22     1.00   -6.460595675    6.029171200    8.401722350
   4  C1      0.00   -6.193010455    2.801518980    2.403542658
   5  H41     0.00   -4.656285171    1.699997622    3.119937832
   6  H42     0.00   -5.973046335    4.726205038    2.982932688
   7  H43     0.00   -7.940251230    2.077186956    3.118237078
   8  H44     0.00   -6.176569838    2.685300823    0.384937212

 Bond lengths in Bohr (Angstrom)

 1-2  1.845432944  1-3  1.853007720  4-5  2.021904040  4-6  2.022002335  4-7  2.021953343
     ( 0.976561058)     ( 0.980569457)     ( 1.069945541)     ( 1.069997556)     ( 1.069971630)

 4-8  2.022015060
     ( 1.070004290)

 Bond angles

  2-1-3  105.54946434   5-4-6  109.53398059   5-4-7  109.65604535   5-4-8  108.43490854

  6-4-7  109.49436728   6-4-8  109.86987750   7-4-8  109.83468330

 NUCLEAR CHARGE:                   10
 NUMBER OF PRIMITIVE AOS:        1046
 NUMBER OF SYMMETRY AOS:          786
 NUMBER OF CONTRACTIONS:          734   (  734A   )
 NUMBER OF CORE ORBITALS:           1   (    1A   )
 NUMBER OF VALENCE ORBITALS:        6   (    6A   )

 MOLECULE CHANGED: INITIALIZING OCCUPATION AND DUMP RECORDS


 NUCLEAR REPULSION ENERGY    8.99189736

 Basis set:  JKFIT                   
 Basis size:  1104
 Attributes:
 Sphericals:   T
 Basis set:  MP2FIT                  
 Basis size:  1246
 Attributes:
 Sphericals:   T
 Basis set:  RI                      
 Basis size:   730
 Attributes:
 Sphericals:   T
 Basis set:  TDDFT                   
 Basis size:  1246
 Attributes:
 Sphericals:   T

 Eigenvalues of metric

         1 0.173E-05 0.182E-05 0.349E-05 0.446E-05 0.531E-05 0.721E-05 0.798E-05 0.879E-05


 Contracted 2-electron integrals neglected if value below      1.0D-14

 OPERATOR DM      FOR CENTER  0  COORDINATES:    0.000000    0.000000    0.000000


 **********************************************************************************************************************************
 DATASETS  * FILE   NREC   LENGTH (MB)   RECORD NAMES
              1      18       49.80       500      610      700      900      950      970     1000      129      960     1100   
                                          VAR    BASINP    GEOM    SYMINP    ZMAT    AOBASIS   BASIS     P2S    ABASIS      S 
                                         1400     1410     1200     1210     1080     1600     1650     1700   
                                           T        V       H0       H01     AOSYM     SMH    MOLCAS    OPER   

              2       7       24.63       700     1000      520     2100     7360     7350      200   
                                         GEOM     BASIS   MCVARS     RHF    F12ABS    EF12    OPTIONS    

 PROGRAMS   *        TOTAL       INT   CCSD(T)    HF-SCF       INT
 CPU TIMES  *     32960.92      0.74  30078.12   1174.34   1707.53
 REAL TIME  *     34459.33 SEC
 DISK USED  *        14.29 GB (local),      540.01 GB (total)
 SF USED    *        17.68 GB
 GA USED    *         4.87 MB       (max)       0.00 MB       (current)
 **********************************************************************************************************************************


 PROGRAM * RHF-SCF (CLOSED SHELL)       Authors: W. Meyer, H.-J. Werner


 NUMBER OF ELECTRONS:       5+    5-    SPACE SYMMETRY=1    SPIN SYMMETRY: Singlet 
 CONVERGENCE THRESHOLDS:    1.00E-08 (Density)    1.00E-11 (Energy)
 MAX. NUMBER OF ITERATIONS:       60
 INTERPOLATION TYPE:            DIIS
 INTERPOLATION STEPS:              2 (START)      1 (STEP)
 LEVEL SHIFTS:                  0.00 (CLOSED)  0.00 (OPEN) 



 Orbital guess generated from atomic densities. Full valence occupancy:    7

 Molecular orbital dump at record        2101.2

 Initial occupancy:   5

 ITERATION    DDIFF          GRAD             ENERGY        2-EL.EN.            DIPOLE MOMENTS         DIIS   ORB.
    1      0.000D+00      0.000D+00       -76.02634224     77.409990    0.38420    0.69823   -0.82583    0    start
    2      0.000D+00      0.360D-02       -76.05312616     73.749660    0.22420    0.40486   -0.47946    1    diag
    3      0.132D-02      0.229D-02       -76.06472833     75.376059    0.26433    0.47791   -0.56583    2    diag
    4      0.497D-03      0.215D-03       -76.06492351     75.284476    0.26291    0.47483   -0.56231    3    diag
    5      0.622D-04      0.602D-04       -76.06494459     75.299003    0.26240    0.47369   -0.56100    4    diag
    6      0.195D-04      0.120D-04       -76.06494597     75.297925    0.26229    0.47342   -0.56070    5    diag
    7      0.529D-05      0.246D-05       -76.06494604     75.298071    0.26226    0.47333   -0.56061    6    diag
    8      0.140D-05      0.468D-06       -76.06494604     75.298059    0.26224    0.47331   -0.56058    7    diag
    9      0.262D-06      0.642D-07       -76.06494604     75.298049    0.26224    0.47330   -0.56057    8    diag
   10      0.472D-07      0.142D-07       -76.06494604     75.298053    0.26224    0.47330   -0.56057    9    orth
   11      0.928D-08      0.245D-08       -76.06494604     75.298052    0.26224    0.47330   -0.56057    0    orth

 Final occupancy:   5

 !RHF STATE  1.1 Energy               -76.064946041238
 Nuclear energy                         8.99189736
 One-electron energy                 -122.70586928
 Two-electron energy                   37.64902587
 Virial quotient                       -1.00195729
 !RHF STATE  1.1 Dipole moment          0.26224037     0.47330367    -0.56057218
 Dipole moment /Debye                   0.66650488     1.20293915    -1.42473904

 Orbital energies:

         1.1          2.1          3.1          4.1          5.1          6.1          7.1
    -20.567223    -1.341170    -0.708148    -0.578879    -0.508489     0.015332     0.030601


 HOMO      5.1    -0.508489 =     -13.8367eV
 LUMO      6.1     0.015332 =       0.4172eV
 LUMO-HOMO         0.523821 =      14.2539eV


 **********************************************************************************************************************************
 DATASETS  * FILE   NREC   LENGTH (MB)   RECORD NAMES
              1      18       49.80       500      610      700      900      950      970     1000      129      960     1100   
                                          VAR    BASINP    GEOM    SYMINP    ZMAT    AOBASIS   BASIS     P2S    ABASIS      S 
                                         1400     1410     1200     1210     1080     1600     1650     1700   
                                           T        V       H0       H01     AOSYM     SMH    MOLCAS    OPER   

              2       8       38.40       700     1000      520     2100     7360     7350      200     2101   
                                         GEOM     BASIS   MCVARS     RHF    F12ABS    EF12    OPTIONS    RHF  

 PROGRAMS   *        TOTAL    HF-SCF       INT   CCSD(T)    HF-SCF       INT
 CPU TIMES  *     34259.27   1298.35      0.74  30078.12   1174.34   1707.53
 REAL TIME  *     35922.38 SEC
 DISK USED  *        14.29 GB (local),      540.01 GB (total)
 SF USED    *        17.68 GB
 GA USED    *         4.87 MB       (max)       0.00 MB       (current)
 **********************************************************************************************************************************

 Basis set:  JKFIT                   
 Basis size:  1104
 Attributes:
 Sphericals:   T
 Basis set:  MP2FIT                  
 Basis size:  1246
 Attributes:
 Sphericals:   T
 Basis set:  RI                      
 Basis size:   730
 Attributes:
 Sphericals:   T
 Basis set:  TDDFT                   
 Basis size:  1246
 Attributes:
 Sphericals:   T

 PROGRAM * CCSD (Closed-shell coupled cluster)     Authors: C. Hampel, H.-J. Werner, 1991, M. Deegan, P.J. Knowles, 1992

                                  CCSD-F12 implementation by  H.-J. Werner, 2007

                   Density fitting integral evaluation by F.R. Manby, 2003,2007, G. Knizia, 2010



 Convergence thresholds:  THRVAR = 1.00D-08  THRDEN = 1.00D-10

 CCSD(T)     terms to be evaluated (factor= 1.000)


 Number of core orbitals:           1 (   1 )
 Number of closed-shell orbitals:   4 (   4 )
 Number of external orbitals:     729 ( 729 )

 Molecular orbitals read from record     2101.2  Type=RHF/CANONICAL (state 1.1)

 MP2-F12 correlation treatment (H.-J. Werner, 2006)
 ==================================================

 Using MP2-F12 with ansatz 3C(FIX)

 Using projected zeroth-order Hamiltonian (+Z)

 FOCKRIB=T FOCKRIC=T FOCKRIP=T CABSP=T CABSA=T CABSK=T CABSF=T GBC=F EBC=F DMAT=T NOFIK=T NOPAO=1 SOLVE=-1  USEPAO=0
 EXCH_A= T EXCH_B= F EXCH_C= F EXCH_P= F

 Geminal basis:    OPTFULL  GEM_TYPE=SLATER  BETA=1.0  NGEM=6

 Optimizing Gaussian exponents for each gem_beta

 Geminal optimization for beta= 1.0000
 Weight function:   m=0, omega= 1.4646

 Augmented Hessian optimization of geminal fit. Trust ratio= 0.40000
 Convergence reached after   2 iterations. Final gradient= 8.31D-16, Step= 4.24D-06, Delta= 1.28D-09

 Alpha:                 0.19532     0.81920     2.85917     9.50073    35.69989   197.79328
 Coeff:                 0.27070     0.30552     0.18297     0.10986     0.06810     0.04224


 All pairs explicitly correlated. Number of r12-pairs:           10

 Excluding core orbitals from MO domains

 AO(A)-basis ORBITAL           loaded. Number of functions:     734
 RI(R)-basis RI                loaded. Number of functions:     730
 DF-basis JKFIT                loaded. Number of functions:    1104

 Screening thresholds:   THRAO=  1.00D-10  THRMO=  1.00D-09  THRPROD=  1.00D-09
                         THRSW=  1.00D-05  THROV=  1.00D-12  THRAOF12= 1.00D-10

 CPU time for Fock operators                      9.84 sec

 Construction of ABS:
 Smallest eigenvalue of S          2.27E-04  (threshold= 1.00E-08)
 Ratio eigmin/eigmax               3.94E-05  (threshold= 1.00E-09)
 Smallest eigenvalue of S kept     2.27E-04  (threshold= 2.27E-04, 0 functions deleted, 730 kept)

 Construction of CABS:
 Smallest eigenvalue of S          9.87E-09  (threshold= 1.00E-08)
 Ratio eigmin/eigmax               9.87E-09  (threshold= 1.00E-09)
 Smallest eigenvalue of S kept     7.95E-08  (threshold= 7.95E-08, 1 functions deleted, 729 kept)

 CPU time for CABS singles                        3.39 sec

 CABS-singles contribution of  -0.00003858 patched into reference energy.
 New reference energy         -76.06498462

 AO(A)-basis ORBITAL           loaded. Number of functions:     734
 RI(R)-basis RI                loaded. Number of functions:     730
 DF-basis MP2FIT               loaded. Number of functions:    1246

 Screening thresholds:   THRAO=  1.00D-10  THRMO=  1.00D-09  THRPROD=  1.00D-09
                         THRSW=  1.00D-05  THROV=  1.00D-12  THRAOF12= 1.00D-10

 CPU time for 3-index integral evaluation        25.48 sec
 CPU time for first  half transformation          4.01 sec ( 3868.9 MFLOP/sec)
 CPU time for second half transformation          0.05 sec ( 1379.5 MFLOP/sec)
 CPU time for sorting                             0.11 sec
 CPU time for fitting                             1.22 sec ( 7528.4 MFLOP/sec)
 CPU time for tilde quantities                    1.75 sec ( 7835.3 MFLOP/sec)
 CPU time for assembly                            5.05 sec ( 7422.7 MFLOP/sec)
 CPU time for tranop_f12                          6.02 sec ( 6959.0 MFLOP/sec)
 CPU time for f12 integrals (total)              52.67 sec, Elapsed time:     54.58 sec
 F12-matrices built in  4 passes.
 F12-matrices built in  4 passes.
 F12-matrices built in  4 passes.
 F12-matrices built in  4 passes.
 FC-matrix built in  4 passes.
 CPU time for f12 matrices (total)                4.72 sec, Elapsed time:      4.80 sec

 Diagonal F12 approximation with fixed coefficients:  TSING= 0.500,  TTRIP= 0.250 (scaled by -1/beta)

 DF-MP2-F12 energy corrections:
 ==============================
 Approx.                                    Singlet             Triplet             Total
 DF-MP2-F12/3*C(DX,FIX)                -0.007259405591     -0.000572350593     -0.007831756184
 DF-MP2-F12/3*C(FIX)                   -0.006613411222     -0.000353320043     -0.006966731265
 DF-MP2-F12/3C(FIX)                    -0.006678234682     -0.000365533331     -0.007043768013

 DF-MP2-F12 correlation energies:
 ================================
 Approx.                                    Singlet             Triplet             Ecorr            Total Energy
 DF-MP2                                -0.192184736628     -0.102280676085     -0.294465412714    -76.359450032746
 DF-MP2-F12/3*C(DX,FIX)                -0.199444142219     -0.102853026678     -0.302297168897    -76.367281788929
 DF-MP2-F12/3*C(FIX)                   -0.198798147850     -0.102633996128     -0.301432143978    -76.366416764010
 DF-MP2-F12/3C(FIX)                    -0.198862971311     -0.102646209416     -0.301509180727    -76.366493800759

 SCS-DF-MP2 energies (F_SING= 1.20000  F_TRIP= 0.62222  F_PARALLEL= 0.33333):
 ============================================================================
 SCS-DF-MP2                            -0.294262993518    -76.359247613550
 SCS-DF-MP2-F12/3*C(DX,FIX)            -0.303330409485    -76.368315029517
 SCS-DF-MP2-F12/3*C(FIX)               -0.302418930567    -76.367403550599
 SCS-DF-MP2-F12/3C(FIX)                -0.302504318099    -76.367488938131
 Symmetry transformation completed.

 Number of N-1 electron functions:               4
 Number of N-2 electron functions:              10
 Number of singly external CSFs:              2916
 Number of doubly external CSFs:           4252986
 Total number of CSFs:                     4255903

 Pair and operator lists are different

 Length of J-op  integral file:             411.24 MB
 Length of K-op  integral file:             721.80 MB
 Length of 3-ext integral record:             0.00 MB

 Memory could be reduced to 2535.14 Mwords without degradation in triples

 Integral transformation finished. Total CPU: 829.90 sec, npass=  1  Memory used:1009.99 MW

 Reference energy:                    -76.06498462

 Adding F12 terms to K(Cij), methodcc=6,  factor= 1.0

 ITER.      SQ.NORM     CORR.ENERGY   TOTAL ENERGY   ENERGY CHANGE        DEN1      VAR(S)    VAR(P)  DIIS     TIME  TIME/IT
   1      1.06368955    -0.29290733   -76.35789195     0.00156428     0.00762774  0.79D-03  0.11D-02  1  1  1165.56   272.13
   2      1.06721915    -0.29300183   -76.35798645    -0.00009450    -0.00498403  0.15D-04  0.12D-03  2  2  1415.69   270.14
   3      1.06855689    -0.29309443   -76.35807905    -0.00009260    -0.00094928  0.82D-05  0.73D-05  3  3  1659.13   267.44
   4      1.06907082    -0.29309995   -76.35808457    -0.00000552    -0.00028053  0.53D-06  0.74D-06  4  4  1922.89   271.17
   5      1.06917507    -0.29309869   -76.35808331     0.00000126    -0.00003091  0.17D-06  0.56D-07  5  5  2164.62   268.31
   6      1.06920930    -0.29309647   -76.35808109     0.00000222    -0.00000582  0.20D-07  0.48D-08  6  6  2436.49   271.58
   7      1.06921776    -0.29309591   -76.35808053     0.00000056    -0.00000133  0.17D-08  0.87D-09  6  2  2683.84   270.34
   8      1.06921979    -0.29309578   -76.35808040     0.00000013    -0.00000010  0.25D-09  0.95D-10  6  1  2953.98   272.29
   9      1.06922045    -0.29309575   -76.35808037     0.00000003     0.00000006  0.23D-10  0.10D-10  6  3  3214.60   272.97
  10      1.06922062    -0.29309574   -76.35808036     0.00000001     0.00000001  0.24D-11  0.14D-11  6  4  3459.83   272.08
  11      1.06922062    -0.29309575   -76.35808037    -0.00000000     0.00000004  0.48D-12  0.16D-12  6  5  3733.57   273.90
  12      1.06922062    -0.29309575   -76.35808037    -0.00000000     0.00000001  0.86D-13  0.26D-13  6  6  3993.42   273.85
  13      1.06922061    -0.29309575   -76.35808037    -0.00000000     0.00000000  0.15D-13  0.45D-14  6  2  4243.35   273.24
  14      1.06922061    -0.29309575   -76.35808037    -0.00000000     0.00000000  0.20D-14  0.81D-15  6  1  4471.86   271.09
  15      1.06922061    -0.29309575   -76.35808037    -0.00000000    -0.00000000  0.23D-15  0.14D-15  6  3  4715.29   270.16
  16      1.06922061    -0.29309575   -76.35808037     0.00000000    -0.00000000  0.46D-16  0.19D-16  6  4  4944.38   268.43

 Norm of t1 vector:      0.03672029      S-energy:    -0.00000000      T1 diagnostic:  0.00918007
                                                                       D1 diagnostic:  0.01871083

 Adding energy correction from Wij-K(Fij), methodcc=6  factor= 1.0

  CCSD correlation energy              -0.293095746980
  MP2-F12 correction (uncoupled)       -0.006962231057
  C*T doubles correction               -0.000091285211
  f12b correction                       0.001582175638


 Total CPU time for triples:   2267.85 sec

  Ecorr(MP2)                           -0.294471612203
  Ecorr(MP2-F12)                       -0.301515380217
  Scale factor for triples energy       1.023920023939


 RESULTS
 =======

  Reference energy                    -76.064946041236
  F12 singles correction               -0.000038578796

 F12 singles corrections added to reference energy

  New reference energy                -76.064984620032

  F12a singlet correction              -0.006654591946
  F12a triplet correction              -0.000398924323
  F12a total correction                -0.007053516268

 F12a corrections for ansatz F12/3C(FIX) added to CCSD energy

  CCSD-F12a singlet pair energy        -0.209362723444
  CCSD-F12a triplet pair energy        -0.090786539116
  CCSD-F12a correlation energy         -0.300149263248

  Triples (T) contribution (scaled)    -0.010048758603
  Total correlation energy             -0.310198021851

  CCSD-F12a total energy              -76.365133883280
  CCSD[T]-F12a energy                 -76.375500393243
  CCSD-T-F12a energy                  -76.375043350684
 !CCSD(T)-F12a total energy           -76.375182641883

 F12b corrections for ansatz F12/3C(FIX) added to CCSD(T)-F12a energy

  CCSD-F12b singlet pair energy        -0.207843852286
  CCSD-F12b triplet pair energy        -0.090723234637
  CCSD-F12b correlation energy         -0.298567087611

  Triples (T) contribution (scaled)    -0.010048758603
  Total correlation energy             -0.308615846214

  CCSD-F12b total energy              -76.363551707643
  CCSD[T]-F12b energy                 -76.373918217606
  CCSD-T-F12b energy                  -76.373461175047
 !CCSD(T)-F12b total energy           -76.373600466246

 Timing summary (sec):

 STEP                 CPU(USER)    SYS     CPU(TOT)    WALL
 Transformation        830.92     25.81    856.73    868.99
 CCSD iterations      4036.29    197.27   4233.56   4295.45
 Triples              2267.85      5.22   2273.07   2295.81
 MP2-F12                77.48      2.29     79.77     80.51
 F12b energy           205.93      9.79    215.72    220.62

 Program statistics:

 Available memory in ccsd:              3999999871
 Min. memory needed in ccsd:              19260852
 Max. memory used in ccsd:                22423154
 Max. memory used in cckext:              14628952 (17 integral passes)



 **********************************************************************************************************************************
 DATASETS  * FILE   NREC   LENGTH (MB)   RECORD NAMES
              1      19     6330.34       500      610      700      900      950      970     1000      129      960     1100   
                                          VAR    BASINP    GEOM    SYMINP    ZMAT    AOBASIS   BASIS     P2S    ABASIS      S 
                                         1400     1410     1200     1210     1080     1600     1650     1700     1380   
                                           T        V       H0       H01     AOSYM     SMH    MOLCAS    OPER     JKOP   

              2       8       38.40       700     1000      520     2100     7360     7350      200     2101   
                                         GEOM     BASIS   MCVARS     RHF    F12ABS    EF12    OPTIONS    RHF  

 PROGRAMS   *        TOTAL   CCSD(T)    HF-SCF       INT   CCSD(T)    HF-SCF       INT
 CPU TIMES  *     41678.07   7418.78   1298.35      0.74  30078.12   1174.34   1707.53
 REAL TIME  *     43685.30 SEC
 DISK USED  *        14.29 GB (local),      540.01 GB (total)
 SF USED    *        17.68 GB
 GA USED    *         4.87 MB       (max)       0.00 MB       (current)
 **********************************************************************************************************************************

 Running procedure: SET_MONOMER2

 Dummy atoms: O11  H21  H22


 Recomputing one-electron integrals since nuclear charges changed


 PROGRAM * SEWARD (Integral evaluation for generally contracted gaussian basis sets)     Author: Roland Lindh, 1990

 Geometry written to block  1 of record 700


 Point group  C1  



 ATOMIC COORDINATES

 NR  ATOM    CHARGE       X              Y              Z

   1  O11     0.00   -5.521590763    4.689166405    9.271374312
   2  H21     0.00   -3.831230745    4.709197502    8.531168589
   3  H22     0.00   -6.460595675    6.029171200    8.401722350
   4  C1      6.00   -6.193010455    2.801518980    2.403542658
   5  H41     1.00   -4.656285171    1.699997622    3.119937832
   6  H42     1.00   -5.973046335    4.726205038    2.982932688
   7  H43     1.00   -7.940251230    2.077186956    3.118237078
   8  H44     1.00   -6.176569838    2.685300823    0.384937212

 Bond lengths in Bohr (Angstrom)

 1-2  1.845432944  1-3  1.853007720  4-5  2.021904040  4-6  2.022002335  4-7  2.021953343
     ( 0.976561058)     ( 0.980569457)     ( 1.069945541)     ( 1.069997556)     ( 1.069971630)

 4-8  2.022015060
     ( 1.070004290)

 Bond angles

  2-1-3  105.54946434   5-4-6  109.53398059   5-4-7  109.65604535   5-4-8  108.43490854

  6-4-7  109.49436728   6-4-8  109.86987750   7-4-8  109.83468330

 NUCLEAR CHARGE:                   10
 NUMBER OF PRIMITIVE AOS:        1046
 NUMBER OF SYMMETRY AOS:          786
 NUMBER OF CONTRACTIONS:          734   (  734A   )
 NUMBER OF CORE ORBITALS:           1   (    1A   )
 NUMBER OF VALENCE ORBITALS:        8   (    8A   )

 MOLECULE CHANGED: INITIALIZING OCCUPATION AND DUMP RECORDS


 NUCLEAR REPULSION ENERGY   13.68681606

 Basis set:  JKFIT                   
 Basis size:  1104
 Attributes:
 Sphericals:   T
 Basis set:  MP2FIT                  
 Basis size:  1246
 Attributes:
 Sphericals:   T
 Basis set:  RI                      
 Basis size:   730
 Attributes:
 Sphericals:   T
 Basis set:  TDDFT                   
 Basis size:  1246
 Attributes:
 Sphericals:   T

 Eigenvalues of metric

         1 0.173E-05 0.182E-05 0.349E-05 0.446E-05 0.531E-05 0.721E-05 0.798E-05 0.879E-05


 Contracted 2-electron integrals neglected if value below      1.0D-14

 OPERATOR DM      FOR CENTER  0  COORDINATES:    0.000000    0.000000    0.000000


 **********************************************************************************************************************************
 DATASETS  * FILE   NREC   LENGTH (MB)   RECORD NAMES
              1      18       49.80       500      610      700      900      950      970     1000      129      960     1100   
                                          VAR    BASINP    GEOM    SYMINP    ZMAT    AOBASIS   BASIS     P2S    ABASIS      S 
                                         1400     1410     1200     1210     1080     1600     1650     1700   
                                           T        V       H0       H01     AOSYM     SMH    MOLCAS    OPER   

              2       8       38.40       700     1000      520     2100     7360     7350      200     2101   
                                         GEOM     BASIS   MCVARS     RHF    F12ABS    EF12    OPTIONS    RHF  

 PROGRAMS   *        TOTAL       INT   CCSD(T)    HF-SCF       INT   CCSD(T)    HF-SCF       INT
 CPU TIMES  *     41678.71      0.64   7418.78   1298.35      0.74  30078.12   1174.34   1707.53
 REAL TIME  *     43687.01 SEC
 DISK USED  *        14.29 GB (local),      540.01 GB (total)
 SF USED    *        17.68 GB
 GA USED    *         4.87 MB       (max)       0.00 MB       (current)
 **********************************************************************************************************************************


 PROGRAM * RHF-SCF (CLOSED SHELL)       Authors: W. Meyer, H.-J. Werner


 NUMBER OF ELECTRONS:       5+    5-    SPACE SYMMETRY=1    SPIN SYMMETRY: Singlet 
 CONVERGENCE THRESHOLDS:    1.00E-08 (Density)    1.00E-11 (Energy)
 MAX. NUMBER OF ITERATIONS:       60
 INTERPOLATION TYPE:            DIIS
 INTERPOLATION STEPS:              2 (START)      1 (STEP)
 LEVEL SHIFTS:                  0.00 (CLOSED)  0.00 (OPEN) 



 Orbital guess generated from atomic densities. Full valence occupancy:    9

 Molecular orbital dump at record        2102.2

 Initial occupancy:   5

 ITERATION    DDIFF          GRAD             ENERGY        2-EL.EN.            DIPOLE MOMENTS         DIIS   ORB.
    1      0.000D+00      0.000D+00       -40.19676525     53.509902    0.00411   -0.00276   -0.00131    0    start
    2      0.000D+00      0.198D-02       -40.21405745     52.218478    0.00128   -0.00088   -0.00038    1    diag
    3      0.945D-03      0.769D-03       -40.21634088     52.673985    0.00182   -0.00124   -0.00055    2    diag
    4      0.258D-03      0.192D-03       -40.21666120     52.619247    0.00162   -0.00110   -0.00048    3    diag
    5      0.978D-04      0.248D-04       -40.21666669     52.621405    0.00159   -0.00108   -0.00047    4    diag
    6      0.333D-04      0.204D-05       -40.21666673     52.621533    0.00159   -0.00108   -0.00047    5    diag
    7      0.608D-05      0.166D-06       -40.21666673     52.621496    0.00159   -0.00108   -0.00047    6    diag
    8      0.377D-06      0.136D-07       -40.21666673     52.621496    0.00159   -0.00108   -0.00047    7    diag
    9      0.553D-07      0.167D-08       -40.21666673     52.621496    0.00159   -0.00108   -0.00047    8    diag
   10      0.108D-07      0.465D-09       -40.21666673     52.621496    0.00159   -0.00108   -0.00047    9    orth
   11      0.118D-08      0.667D-10       -40.21666673     52.621496    0.00159   -0.00108   -0.00047    0    orth

 Final occupancy:   5

 !RHF STATE  1.1 Energy               -40.216666729291
 Nuclear energy                        13.68681606
 One-electron energy                  -80.21423097
 Two-electron energy                   26.31074819
 Virial quotient                       -0.99832815
 !RHF STATE  1.1 Dipole moment          0.00158574    -0.00108169    -0.00047297
 Dipole moment /Debye                   0.00403029    -0.00274920    -0.00120209

 Orbital energies:

         1.1          2.1          3.1          4.1          5.1          6.1          7.1
    -11.196017    -0.950605    -0.551931    -0.549996    -0.547818     0.021728     0.032282


 HOMO      5.1    -0.547818 =     -14.9069eV
 LUMO      6.1     0.021728 =       0.5913eV
 LUMO-HOMO         0.569546 =      15.4981eV


 **********************************************************************************************************************************
 DATASETS  * FILE   NREC   LENGTH (MB)   RECORD NAMES
              1      18       49.80       500      610      700      900      950      970     1000      129      960     1100   
                                          VAR    BASINP    GEOM    SYMINP    ZMAT    AOBASIS   BASIS     P2S    ABASIS      S 
                                         1400     1410     1200     1210     1080     1600     1650     1700   
                                           T        V       H0       H01     AOSYM     SMH    MOLCAS    OPER   

              2       9       62.49       700     1000      520     2100     7360     7350      200     2101     2102   
                                         GEOM     BASIS   MCVARS     RHF    F12ABS    EF12    OPTIONS    RHF      RHF  

 PROGRAMS   *        TOTAL    HF-SCF       INT   CCSD(T)    HF-SCF       INT   CCSD(T)    HF-SCF       INT
 CPU TIMES  *     43053.00   1374.28      0.64   7418.78   1298.35      0.74  30078.12   1174.34   1707.53
 REAL TIME  *     45219.10 SEC
 DISK USED  *        14.29 GB (local),      540.01 GB (total)
 SF USED    *        17.68 GB
 GA USED    *         4.87 MB       (max)       0.00 MB       (current)
 **********************************************************************************************************************************

 Basis set:  JKFIT                   
 Basis size:  1104
 Attributes:
 Sphericals:   T
 Basis set:  MP2FIT                  
 Basis size:  1246
 Attributes:
 Sphericals:   T
 Basis set:  RI                      
 Basis size:   730
 Attributes:
 Sphericals:   T
 Basis set:  TDDFT                   
 Basis size:  1246
 Attributes:
 Sphericals:   T

 PROGRAM * CCSD (Closed-shell coupled cluster)     Authors: C. Hampel, H.-J. Werner, 1991, M. Deegan, P.J. Knowles, 1992

                                  CCSD-F12 implementation by  H.-J. Werner, 2007

                   Density fitting integral evaluation by F.R. Manby, 2003,2007, G. Knizia, 2010



 Convergence thresholds:  THRVAR = 1.00D-08  THRDEN = 1.00D-10

 CCSD(T)     terms to be evaluated (factor= 1.000)


 Number of core orbitals:           1 (   1 )
 Number of closed-shell orbitals:   4 (   4 )
 Number of external orbitals:     729 ( 729 )

 Molecular orbitals read from record     2102.2  Type=RHF/CANONICAL (state 1.1)

 MP2-F12 correlation treatment (H.-J. Werner, 2006)
 ==================================================

 Using MP2-F12 with ansatz 3C(FIX)

 Using projected zeroth-order Hamiltonian (+Z)

 FOCKRIB=T FOCKRIC=T FOCKRIP=T CABSP=T CABSA=T CABSK=T CABSF=T GBC=F EBC=F DMAT=T NOFIK=T NOPAO=1 SOLVE=-1  USEPAO=0
 EXCH_A= T EXCH_B= F EXCH_C= F EXCH_P= F

 Geminal basis:    OPTFULL  GEM_TYPE=SLATER  BETA=1.0  NGEM=6

 Optimizing Gaussian exponents for each gem_beta

 Geminal optimization for beta= 1.0000
 Weight function:   m=0, omega= 1.4646

 Augmented Hessian optimization of geminal fit. Trust ratio= 0.40000
 Convergence reached after   2 iterations. Final gradient= 7.85D-16, Step= 4.26D-06, Delta= 1.28D-09

 Alpha:                 0.19532     0.81920     2.85917     9.50073    35.69989   197.79328
 Coeff:                 0.27070     0.30552     0.18297     0.10986     0.06810     0.04224


 All pairs explicitly correlated. Number of r12-pairs:           10

 Excluding core orbitals from MO domains

 AO(A)-basis ORBITAL           loaded. Number of functions:     734
 RI(R)-basis RI                loaded. Number of functions:     730
 DF-basis JKFIT                loaded. Number of functions:    1104

 Screening thresholds:   THRAO=  1.00D-10  THRMO=  1.00D-09  THRPROD=  1.00D-09
                         THRSW=  1.00D-05  THROV=  1.00D-12  THRAOF12= 1.00D-10

 CPU time for Fock operators                      9.94 sec

 Construction of ABS:
 Smallest eigenvalue of S          2.27E-04  (threshold= 1.00E-08)
 Ratio eigmin/eigmax               3.94E-05  (threshold= 1.00E-09)
 Smallest eigenvalue of S kept     2.27E-04  (threshold= 2.27E-04, 0 functions deleted, 730 kept)

 Construction of CABS:
 Smallest eigenvalue of S          9.87E-09  (threshold= 1.00E-08)
 Ratio eigmin/eigmax               9.87E-09  (threshold= 1.00E-09)
 Smallest eigenvalue of S kept     7.95E-08  (threshold= 7.95E-08, 1 functions deleted, 729 kept)

 CPU time for CABS singles                        3.32 sec

 CABS-singles contribution of  -0.00004086 patched into reference energy.
 New reference energy         -40.21670759

 AO(A)-basis ORBITAL           loaded. Number of functions:     734
 RI(R)-basis RI                loaded. Number of functions:     730
 DF-basis MP2FIT               loaded. Number of functions:    1246

 Screening thresholds:   THRAO=  1.00D-10  THRMO=  1.00D-09  THRPROD=  1.00D-09
                         THRSW=  1.00D-05  THROV=  1.00D-12  THRAOF12= 1.00D-10

 CPU time for 3-index integral evaluation        24.86 sec
 CPU time for first  half transformation          5.08 sec ( 2900.8 MFLOP/sec)
 CPU time for second half transformation          0.02 sec ( 3121.0 MFLOP/sec)
 CPU time for sorting                             0.10 sec
 CPU time for fitting                             1.25 sec ( 5484.7 MFLOP/sec)
 CPU time for tilde quantities                    1.66 sec ( 6894.7 MFLOP/sec)
 CPU time for assembly                            4.91 sec ( 5997.8 MFLOP/sec)
 CPU time for tranop_f12                          5.67 sec ( 7382.1 MFLOP/sec)
 CPU time for f12 integrals (total)              52.50 sec, Elapsed time:     54.66 sec
 F12-matrices built in  4 passes.
 F12-matrices built in  4 passes.
 F12-matrices built in  4 passes.
 F12-matrices built in  4 passes.
 FC-matrix built in  4 passes.
 CPU time for f12 matrices (total)                4.45 sec, Elapsed time:      4.51 sec

 Diagonal F12 approximation with fixed coefficients:  TSING= 0.500,  TTRIP= 0.250 (scaled by -1/beta)

 DF-MP2-F12 energy corrections:
 ==============================
 Approx.                                    Singlet             Triplet             Total
 DF-MP2-F12/3*C(DX,FIX)                -0.003934373175     -0.000213105248     -0.004147478423
 DF-MP2-F12/3*C(FIX)                   -0.003771288137     -0.000160989249     -0.003932277386
 DF-MP2-F12/3C(FIX)                    -0.003818417027     -0.000164029878     -0.003982446905

 DF-MP2-F12 correlation energies:
 ================================
 Approx.                                    Singlet             Triplet             Ecorr            Total Energy
 DF-MP2                                -0.157868748937     -0.056824878848     -0.214693627784    -40.431401220580
 DF-MP2-F12/3*C(DX,FIX)                -0.161803122112     -0.057037984096     -0.218841106208    -40.435548699003
 DF-MP2-F12/3*C(FIX)                   -0.161640037074     -0.056985868097     -0.218625905171    -40.435333497966
 DF-MP2-F12/3C(FIX)                    -0.161687165964     -0.056988908726     -0.218676074689    -40.435383667484

 SCS-DF-MP2 energies (F_SING= 1.20000  F_TRIP= 0.62222  F_PARALLEL= 0.33333):
 ============================================================================
 SCS-DF-MP2                            -0.224800201118    -40.441507793913
 SCS-DF-MP2-F12/3*C(DX,FIX)            -0.229654047749    -40.446361640544
 SCS-DF-MP2-F12/3*C(FIX)               -0.229425917971    -40.446133510766
 SCS-DF-MP2-F12/3C(FIX)                -0.229484364586    -40.446191957381
 Symmetry transformation completed.

 Number of N-1 electron functions:               4
 Number of N-2 electron functions:              10
 Number of singly external CSFs:              2916
 Number of doubly external CSFs:           4252986
 Total number of CSFs:                     4255903

 Pair and operator lists are different

 Length of J-op  integral file:             411.24 MB
 Length of K-op  integral file:             721.80 MB
 Length of 3-ext integral record:             0.00 MB

 Memory could be reduced to 2535.14 Mwords without degradation in triples

 Integral transformation finished. Total CPU: 877.70 sec, npass=  1  Memory used:1009.99 MW

 Reference energy:                    -40.21670759

 Adding F12 terms to K(Cij), methodcc=6,  factor= 1.0

 ITER.      SQ.NORM     CORR.ENERGY   TOTAL ENERGY   ENERGY CHANGE        DEN1      VAR(S)    VAR(P)  DIIS     TIME  TIME/IT
   1      1.07033685    -0.22827219   -40.44497978    -0.01357185    -0.00771755  0.62D-03  0.94D-03  1  1  1194.60   256.39
   2      1.07515864    -0.22922923   -40.44593682    -0.00095704    -0.00531223  0.16D-04  0.11D-03  2  2  1426.64   252.60
   3      1.07694829    -0.22929659   -40.44600418    -0.00006736    -0.00133774  0.22D-05  0.64D-05  3  3  1668.68   254.35
   4      1.07735108    -0.22929904   -40.44600663    -0.00000245    -0.00021861  0.16D-06  0.39D-06  4  4  1911.23   255.87
   5      1.07740838    -0.22930261   -40.44601020    -0.00000357    -0.00000965  0.14D-07  0.24D-07  5  5  2132.32   251.82
   6      1.07741862    -0.22930126   -40.44600885     0.00000135    -0.00000403  0.90D-09  0.19D-08  6  6  2379.66   253.45
   7      1.07742014    -0.22930086   -40.44600846     0.00000040    -0.00000090  0.56D-10  0.13D-09  6  1  2623.54   254.93
   8      1.07742007    -0.22930092   -40.44600852    -0.00000006     0.00000024  0.62D-11  0.90D-11  6  3  2865.76   255.27
   9      1.07742022    -0.22930091   -40.44600850     0.00000002    -0.00000009  0.43D-12  0.63D-12  6  2  3098.44   254.27
  10      1.07742021    -0.22930090   -40.44600850     0.00000000     0.00000001  0.59D-13  0.65D-13  6  4  3317.92   252.55
  11      1.07742022    -0.22930090   -40.44600850     0.00000000    -0.00000000  0.60D-14  0.66D-14  6  5  3536.86   251.00
  12      1.07742022    -0.22930090   -40.44600850     0.00000000     0.00000000  0.18D-15  0.67D-15  6  6  3764.45   249.98
  13      1.07742022    -0.22930090   -40.44600850    -0.00000000     0.00000000  0.13D-16  0.73D-16  6  1  4011.71   250.99
  14      1.07742022    -0.22930090   -40.44600850    -0.00000000     0.00000000  0.20D-17  0.11D-16  6  3  4247.91   251.06

 Norm of t1 vector:      0.03268905      S-energy:     0.00000000      T1 diagnostic:  0.00817226
                                                                       D1 diagnostic:  0.01311249

 Adding energy correction from Wij-K(Fij), methodcc=6  factor= 1.0

  CCSD correlation energy              -0.229300902998
  MP2-F12 correction (uncoupled)       -0.003884860860
  C*T doubles correction               -0.000069209833
  f12b correction                       0.001100613767

 Total CPU time for triples:   2240.11 sec

  Ecorr(MP2)                           -0.214700338520
  Ecorr(MP2-F12)                       -0.218682785424
  Scale factor for triples energy       1.018548861787


 RESULTS
 =======

  Reference energy                    -40.216666729291
  F12 singles correction               -0.000040863504

 F12 singles corrections added to reference energy

  New reference energy                -40.216707592795

  F12a singlet correction              -0.003782742881
  F12a triplet correction              -0.000171327812
  F12a total correction                -0.003954070693

 F12a corrections for ansatz F12/3C(FIX) added to CCSD energy

  CCSD-F12a singlet pair energy        -0.178096391597
  CCSD-F12a triplet pair energy        -0.055158582098
  CCSD-F12a correlation energy         -0.233254973690

  Triples (T) contribution (scaled)    -0.007109263216
  Total correlation energy             -0.240364236907

  CCSD-F12a total energy              -40.449962566486
  CCSD[T]-F12a energy                 -40.457307451154
  CCSD-T-F12a energy                  -40.457003984891
 !CCSD(T)-F12a total energy           -40.457071829702

 F12b corrections for ansatz F12/3C(FIX) added to CCSD(T)-F12a energy

  CCSD-F12b singlet pair energy        -0.177024929095
  CCSD-F12b triplet pair energy        -0.055129430833
  CCSD-F12b correlation energy         -0.232154359924

  Triples (T) contribution (scaled)    -0.007109263216
  Total correlation energy             -0.239263623140

  CCSD-F12b total energy              -40.448861952719
  CCSD[T]-F12b energy                 -40.456206837387
  CCSD-T-F12b energy                  -40.455903371124
 !CCSD(T)-F12b total energy           -40.455971215935

 Timing summary (sec):

 STEP                 CPU(USER)    SYS     CPU(TOT)    WALL
 Transformation        878.72     27.50    906.22    911.50
 CCSD iterations      3292.43    165.12   3457.55   3515.47
 Triples              2240.11      5.23   2245.34   2276.60
 MP2-F12                77.04      2.22     79.26     79.92
 F12b energy           223.17      9.69    232.86    236.24

 Program statistics:

 Available memory in ccsd:              3999999866
 Min. memory needed in ccsd:              19260852
 Max. memory used in ccsd:                22423154
 Max. memory used in cckext:              14628952 (15 integral passes)



 **********************************************************************************************************************************
 DATASETS  * FILE   NREC   LENGTH (MB)   RECORD NAMES
              1      19     6330.34       500      610      700      900      950      970     1000      129      960     1100   
                                          VAR    BASINP    GEOM    SYMINP    ZMAT    AOBASIS   BASIS     P2S    ABASIS      S 
                                         1400     1410     1200     1210     1080     1600     1650     1700     1380   
                                           T        V       H0       H01     AOSYM     SMH    MOLCAS    OPER     JKOP   

              2       9       62.49       700     1000      520     2100     7360     7350      200     2101     2102   
                                         GEOM     BASIS   MCVARS     RHF    F12ABS    EF12    OPTIONS    RHF      RHF  

 PROGRAMS   *        TOTAL   CCSD(T)    HF-SCF       INT   CCSD(T)    HF-SCF       INT   CCSD(T)    HF-SCF       INT
 CPU TIMES  *     49764.68   6711.68   1374.28      0.64   7418.78   1298.35      0.74  30078.12   1174.34   1707.53
 REAL TIME  *     52240.08 SEC
 DISK USED  *        14.29 GB (local),      540.01 GB (total)
 SF USED    *        17.68 GB
 GA USED    *         4.87 MB       (max)       0.00 MB       (current)
 **********************************************************************************************************************************
 Molecular orbitals read from record     2102.2  Type=RHF/CANONICAL (state 1.1)
 Occupation numbers read from record     2102.2  Type=RHF/RHF (state 1.1)
 Orbital energies read from record       2102.2  Type=RHF/CANONICAL (state 1.1)
 Redundancy group numbers read from rec  2102.2  Type=RHF/RHF (state 1.1)

 CCSD(T)-F12/aug-cc-pV5Z energy=    -40.455971215935

     CCSD(T)-F12          HF-SCF     CCSD(T)-F12          HF-SCF     CCSD(T)-F12          HF-SCF
    -40.45597122    -40.21666673    -76.37360047    -76.06494604   -116.82999993   -116.28120312
 **********************************************************************************************************************************
 Molpro calculation terminated
