
 Primary working directories    : /scratch.ssd/kelum/job_380610.cerit-pbs.cerit-sc.cz/molpro.F25mmwCX3D
 Secondary working directories  : /scratch.ssd/kelum/job_380610.cerit-pbs.cerit-sc.cz/molpro.F25mmwCX3D
 Wavefunction directory         : /scratch.ssd/kelum/job_380610.cerit-pbs.cerit-sc.cz/
 Main file repository           : /scratch.ssd/kelum/job_380610.cerit-pbs.cerit-sc.cz/molpro.F25mmwCX3D/

 id        : karlovklimes

 Nodes             nprocs
 zelda3.cerit-sc.cz    4

 Using customized tuning parameters: mindgm=1; mindgv=20; mindgc=4; mindgr=1; noblas=0; minvec=7
 default implementation of scratch files=sf  


 Variables initialized (934), CPU time= 0.00 sec
                                                                                 !gdirect
 memory,4000,m
 gthresh,orbital=1d-10,energy=1d-10
 
 symmetry,nosym
 angstrom
 geometry={
 O12        -3.033300000000      5.280000000000      1.506600000000
 H23        -3.438200000000      5.030900000000      0.655500000000
 H24        -2.124100000000      4.895600000000      1.489400000000
 C1        -3.277200000000      1.482500000000      1.271900000000
 H41        -2.464000000000      0.899600000000      1.651000000000
 H42        -3.160800000000      2.501000000000      1.578500000000
 H43        -4.201800000000      1.099200000000      1.650100000000
 H44        -3.268500000000      1.421000000000      0.203700000000
 }
 
 nkerna=1
 nkernb=1
 
 gf=0
 sing=1
 thrdum=1d-4
 gridthr=1d-8
 
 basis={
 set,orbital
 default,av5z
 set,jkfit
 default,av5z/jkfit
 set,mp2fit
 default,av5z/mp2fit
 set,ri
 default,av5z/optri
 set,tddft
 default,av5z/mp2fit
 }
 
 proc set_monomer1
 dummy,4,5,6,7,8
 endproc
 
 proc set_monomer2
 dummy,1,2,3
 endproc
 
                                                                                 !12 energy
 {hf,accu=1.d-16}
 {ccsd(t)-f12,df_basis=mp2fit,df_basis_exch=jkfit,ri_basis=ri,scale_trip=1,THRAOF12=1d-10}
 
 set_monomer1
 {hf,accu=1.d-16}
 {ccsd(t)-f12,df_basis=mp2fit,df_basis_exch=jkfit,ri_basis=ri,scale_trip=1,THRAOF12=1d-10}
 
 set_monomer2
 {hf,accu=1.d-16}
 {ccsd(t)-f12,df_basis=mp2fit,df_basis_exch=jkfit,ri_basis=ri,scale_trip=1,THRAOF12=1d-10}
 
 Commands  initialized (763), CPU time= 0.01 sec, 617 directives.
 Default parameters read. Elapsed time= 0.30 sec

 Checking input...
 Passed
1


                                         ***  PROGRAM SYSTEM MOLPRO  ***
                                       Copyright, TTI GmbH Stuttgart, 2015
                                    Version 2019.2 linked Jun  8 2019 11:26:33


 **********************************************************************************************************************************
 LABEL *                                                                                 
  64 bit mpp version                                                                     DATE: 24-Mar-20          TIME: 15:47:15  
 **********************************************************************************************************************************

 SHA1:             8135a10abc80eafa5b3ae28ffc55be4890dc4c84
 **********************************************************************************************************************************

 THRESHOLDS:

 ZERO    =  1.00D-12  ONEINT  =  1.00D-12  TWOINT  =  1.00D-11  PREFAC  =  1.00D-14  XXXXXX  =  1.00D-09  EORDER  =  1.00D-04
 ENERGY  =  1.00D-10  ETEST   =  0.00D+00  EDENS   =  0.00D+00  THRDEDEF=  1.00D-06  GRADIENT=  1.00D-02  STEP    =  1.00D-03
 ORBITAL =  1.00D-10  CIVEC   =  1.00D-05  COEFF   =  1.00D-04  PRINTCI =  5.00D-02  PUNCHCI =  9.90D+01  OPTGRAD =  3.00D-04
 OPTENERG=  1.00D-06  OPTSTEP =  3.00D-04  THRGRAD =  1.00D-10  COMPRESS=  1.00D-11  VARMIN  =  1.00D-07  VARMAX  =  1.00D-03
 THRDOUB =  0.00D+00  THRDIV  =  1.00D-05  THRRED  =  1.00D-07  THRPSP  =  1.00D+00  THRDC   =  1.00D-10  THRCS   =  1.00D-10
 THRNRM  =  1.00D-08  THREQ   =  0.00D+00  THRDE   =  1.00D+00  THRREF  =  1.00D-05  SPARFAC =  1.00D+00  THRDLP  =  1.00D-07
 THRDIA  =  1.00D-10  THRDLS  =  1.00D-07  THRGPS  =  0.00D+00  THRKEX  =  0.00D+00  THRDIS  =  2.00D-01  THRVAR  =  1.00D-10
 THRLOC  =  1.00D-06  THRGAP  =  1.00D-06  THRLOCT = -1.00D+00  THRGAPT = -1.00D+00  THRORB  =  1.00D-06  THRMLTP =  0.00D+00
 THRCPQCI=  1.00D-10  KEXTA   =  0.00D+00  THRCOARS=  0.00D+00  SYMTOL  =  1.00D-06  GRADTOL =  1.00D-06  THROVL  =  1.00D-08
 THRORTH =  1.00D-08  GRID    =  1.00D-06  GRIDMAX =  1.00D-03  DTMAX   =  0.00D+00  THROCCDE=  1.00D-01  THROCCDE=  1.00D-01
 THRPRINT=  2.50D-01


 Variable memory set to 4000000000 words,  buffer space 

 ZSYMEL=NOSYM
 ZUNIT=ANG


Geometry recognized as XYZ

 SETTING NKERNA         =         1.00000000                                  
 SETTING NKERNB         =         1.00000000                                  
 SETTING GF             =     0.00000000D+00                                  
 SETTING SING           =         1.00000000                                  
 SETTING THRDUM         =     1.00000000D-04                                  
 SETTING GRIDTHR        =     1.00000000D-08                                  
 SETTING BASIS          =    AV5Z


 Recomputing integrals since basis changed


 Using spherical harmonics

 Library entry O      S aug-cc-pV5Z          selected for orbital group  1
 Library entry O      P aug-cc-pV5Z          selected for orbital group  1
 Library entry O      D aug-cc-pV5Z          selected for orbital group  1
 Library entry O      F aug-cc-pV5Z          selected for orbital group  1
 Library entry O      G aug-cc-pV5Z          selected for orbital group  1
 Library entry O      H aug-cc-pV5Z          selected for orbital group  1
 Library entry H      S aug-cc-pV5Z          selected for orbital group  2
 Library entry H      P aug-cc-pV5Z          selected for orbital group  2
 Library entry H      D aug-cc-pV5Z          selected for orbital group  2
 Library entry H      F aug-cc-pV5Z          selected for orbital group  2
 Library entry H      G aug-cc-pV5Z          selected for orbital group  2
 Library entry C      S aug-cc-pV5Z          selected for orbital group  3
 Library entry C      P aug-cc-pV5Z          selected for orbital group  3
 Library entry C      D aug-cc-pV5Z          selected for orbital group  3
 Library entry C      F aug-cc-pV5Z          selected for orbital group  3
 Library entry C      G aug-cc-pV5Z          selected for orbital group  3
 Library entry C      H aug-cc-pV5Z          selected for orbital group  3


 PROGRAM * SEWARD (Integral evaluation for generally contracted gaussian basis sets)     Author: Roland Lindh, 1990

 Geometry written to block  1 of record 700


 Point group  C1  



 ATOMIC COORDINATES

 NR  ATOM    CHARGE       X              Y              Z

   1  O12     8.00   -5.732106254    9.977753938    2.847061379
   2  H23     1.00   -6.497256361    9.507023160    1.238715475
   3  H24     1.00   -4.013967261    9.251343215    2.814558090
   4  C1      6.00   -6.193010455    2.801518980    2.403542658
   5  H41     1.00   -4.656285171    1.699997622    3.119937832
   6  H42     1.00   -5.973046335    4.726205038    2.982932688
   7  H43     1.00   -7.940251230    2.077186956    3.118237078
   8  H44     1.00   -6.176569838    2.685300823    0.384937212

 Bond lengths in Bohr (Angstrom)

 1-2  1.842231989  1-3  1.865671621  4-5  2.021904040  4-6  2.022002335  4-7  2.021953343
     ( 0.974867186)     ( 0.987270905)     ( 1.069945541)     ( 1.069997556)     ( 1.069971630)

 4-8  2.022015060
     ( 1.070004290)

 Bond angles

  2-1-3  105.53314040   5-4-6  109.53398059   5-4-7  109.65604535   5-4-8  108.43490854

  6-4-7  109.49436728   6-4-8  109.86987750   7-4-8  109.83468330

 NUCLEAR CHARGE:                   20
 NUMBER OF PRIMITIVE AOS:        1046
 NUMBER OF SYMMETRY AOS:          786
 NUMBER OF CONTRACTIONS:          734   (  734A   )
 NUMBER OF CORE ORBITALS:           2   (    2A   )
 NUMBER OF VALENCE ORBITALS:       14   (   14A   )


 NUCLEAR REPULSION ENERGY   36.75387538


 Basis set:  JKFIT                   
 Basis size:  1104
 Attributes:
 Sphericals:   T
 Basis set:  MP2FIT                  
 Basis size:  1246
 Attributes:
 Sphericals:   T
 Basis set:  RI                      
 Basis size:   730
 Attributes:
 Sphericals:   T
 Basis set:  TDDFT                   
 Basis size:  1246
 Attributes:
 Sphericals:   T

 **********************************************************************************************************************************


 Eigenvalues of metric

         1 0.146E-05 0.191E-05 0.307E-05 0.396E-05 0.491E-05 0.623E-05 0.806E-05 0.911E-05


 Contracted 2-electron integrals neglected if value below      1.0D-14
 AO integral compression algorithm  1   Integral accuracy      1.0D-14

     154940.211 MB (compressed) written to integral file ( 49.1%)

     Node minimum: 38019.793 MB, node maximum: 40128.479 MB


 NUMBER OF SORTED TWO-ELECTRON INTEGRALS: 9095363064.     BUFFER LENGTH:  32768
 NUMBER OF SEGMENTS: 190  SEGMENT LENGTH:   47999780      RECORD LENGTH: 131072

 Memory used in sort:      48.16 MW

 SORT1 READ 39471948705. AND WROTE  7112184074. INTEGRALS IN  81490 RECORDS. CPU TIME:   435.43 SEC, REAL TIME:   531.51 SEC
 SORT2 READ 28456073256. AND WROTE 36381317385. INTEGRALS IN 580380 RECORDS. CPU TIME:   107.64 SEC, REAL TIME:   193.69 SEC

 Node minimum:  9095228192.  Node maximum:  9095430501. integrals

 OPERATOR DM      FOR CENTER  0  COORDINATES:    0.000000    0.000000    0.000000


 **********************************************************************************************************************************
 DATASETS  * FILE   NREC   LENGTH (MB)   RECORD NAMES
              1      18       49.80       500      610      700      900      950      970     1000      129      960     1100   
                                          VAR    BASINP    GEOM    SYMINP    ZMAT    AOBASIS   BASIS     P2S    ABASIS      S 
                                         1400     1410     1200     1210     1080     1600     1650     1700   
                                           T        V       H0       H01     AOSYM     SMH    MOLCAS    OPER   

 PROGRAMS   *        TOTAL       INT
 CPU TIMES  *      1088.28   1088.13
 REAL TIME  *      1303.99 SEC
 DISK USED  *        50.44 MB (local),      496.26 GB (total)
 GA USED    *         0.00 MB       (max)       0.00 MB       (current)
 **********************************************************************************************************************************


 PROGRAM * RHF-SCF (CLOSED SHELL)       Authors: W. Meyer, H.-J. Werner


 NUMBER OF ELECTRONS:      10+   10-    SPACE SYMMETRY=1    SPIN SYMMETRY: Singlet 
 CONVERGENCE THRESHOLDS:    1.00E-08 (Density)    1.00E-11 (Energy)
 MAX. NUMBER OF ITERATIONS:       60
 INTERPOLATION TYPE:            DIIS
 INTERPOLATION STEPS:              2 (START)      1 (STEP)
 LEVEL SHIFTS:                  0.00 (CLOSED)  0.00 (OPEN) 



 Orbital guess generated from atomic densities. Full valence occupancy:   16

 Molecular orbital dump at record        2100.2

 Initial occupancy:  10

 ITERATION    DDIFF          GRAD             ENERGY        2-EL.EN.            DIPOLE MOMENTS         DIIS   ORB.
    1      0.000D+00      0.000D+00      -116.22254379    158.889758    0.49590   -0.60725   -0.83979    0    start
    2      0.000D+00      0.290D-02      -116.26647156    154.106542    0.26026   -0.35538   -0.45870    1    diag
    3      0.161D-02      0.170D-02      -116.27989969    156.118774    0.32020   -0.41698   -0.55552    2    diag
    4      0.554D-03      0.256D-03      -116.28056267    156.004740    0.31533   -0.40936   -0.54755    3    diag
    5      0.129D-03      0.752D-04      -116.28063330    156.000025    0.31466   -0.40927   -0.54680    4    diag
    6      0.532D-04      0.184D-04      -116.28063743    156.005627    0.31421   -0.40898   -0.54606    5    diag
    7      0.187D-04      0.387D-05      -116.28063769    156.003896    0.31418   -0.40904   -0.54605    6    diag
    8      0.535D-05      0.101D-05      -116.28063772    156.004089    0.31413   -0.40904   -0.54599    7    diag
    9      0.123D-05      0.231D-06      -116.28063772    156.004060    0.31411   -0.40904   -0.54597    8    diag
   10      0.347D-06      0.290D-07      -116.28063772    156.004061    0.31411   -0.40904   -0.54597    9    orth
   11      0.601D-07      0.768D-08      -116.28063772    156.004062    0.31411   -0.40904   -0.54597    9    diag
   12      0.634D-08      0.217D-08      -116.28063772    156.004062    0.31411   -0.40904   -0.54597    0    orth

 Final occupancy:  10

 !RHF STATE  1.1 Energy              -116.280637716372
 Nuclear energy                        36.75387538
 One-electron energy                 -231.03654419
 Two-electron energy                   78.00203110
 Virial quotient                       -1.00070468
 !RHF STATE  1.1 Dipole moment          0.31411149    -0.40903788    -0.54596881
 Dipole moment /Debye                   0.79833949    -1.03960249    -1.38762342

 Orbital energies:

         1.1          2.1          3.1          4.1          5.1          6.1          7.1          8.1          9.1         10.1
    -20.568021   -11.198420    -1.340909    -0.953744    -0.707546    -0.580191    -0.555378    -0.553563    -0.551259    -0.507210

        11.1         12.1
      0.019117     0.032427


 HOMO     10.1    -0.507210 =     -13.8019eV
 LUMO     11.1     0.019117 =       0.5202eV
 LUMO-HOMO         0.526328 =      14.3221eV


 **********************************************************************************************************************************
 DATASETS  * FILE   NREC   LENGTH (MB)   RECORD NAMES
              1      18       49.80       500      610      700      900      950      970     1000      129      960     1100   
                                          VAR    BASINP    GEOM    SYMINP    ZMAT    AOBASIS   BASIS     P2S    ABASIS      S 
                                         1400     1410     1200     1210     1080     1600     1650     1700   
                                           T        V       H0       H01     AOSYM     SMH    MOLCAS    OPER   

              2       4       13.79       700     1000      520     2100   
                                         GEOM     BASIS   MCVARS     RHF  

 PROGRAMS   *        TOTAL    HF-SCF       INT
 CPU TIMES  *      2149.73   1061.45   1088.13
 REAL TIME  *      2523.61 SEC
 DISK USED  *       102.61 MB (local),      496.47 GB (total)
 SF USED    *         2.16 MB
 GA USED    *         0.00 MB       (max)       0.00 MB       (current)
 **********************************************************************************************************************************

 Basis set:  JKFIT                   
 Basis size:  1104
 Attributes:
 Sphericals:   T
 Basis set:  MP2FIT                  
 Basis size:  1246
 Attributes:
 Sphericals:   T
 Basis set:  RI                      
 Basis size:   730
 Attributes:
 Sphericals:   T
 Basis set:  TDDFT                   
 Basis size:  1246
 Attributes:
 Sphericals:   T

 PROGRAM * CCSD (Closed-shell coupled cluster)     Authors: C. Hampel, H.-J. Werner, 1991, M. Deegan, P.J. Knowles, 1992

                                  CCSD-F12 implementation by  H.-J. Werner, 2007

                   Density fitting integral evaluation by F.R. Manby, 2003,2007, G. Knizia, 2010



 Convergence thresholds:  THRVAR = 1.00D-08  THRDEN = 1.00D-10

 CCSD(T)     terms to be evaluated (factor= 1.000)


 Number of core orbitals:           2 (   2 )
 Number of closed-shell orbitals:   8 (   8 )
 Number of external orbitals:     724 ( 724 )

 Molecular orbitals read from record     2100.2  Type=RHF/CANONICAL (state 1.1)

 MP2-F12 correlation treatment (H.-J. Werner, 2006)
 ==================================================

 Using MP2-F12 with ansatz 3C(FIX)

 Using projected zeroth-order Hamiltonian (+Z)

 FOCKRIB=T FOCKRIC=T FOCKRIP=T CABSP=T CABSA=T CABSK=T CABSF=T GBC=F EBC=F DMAT=T NOFIK=T NOPAO=1 SOLVE=-1  USEPAO=0
 EXCH_A= T EXCH_B= F EXCH_C= F EXCH_P= F

 Geminal basis:    OPTFULL  GEM_TYPE=SLATER  BETA=1.0  NGEM=6

 Optimizing Gaussian exponents for each gem_beta

 Geminal optimization for beta= 1.0000
 Weight function:   m=0, omega= 1.4646

 Augmented Hessian optimization of geminal fit. Trust ratio= 0.40000
 Convergence reached after   2 iterations. Final gradient= 8.53D-16, Step= 4.26D-06, Delta= 1.28D-09

 Alpha:                 0.19532     0.81920     2.85917     9.50073    35.69989   197.79328
 Coeff:                 0.27070     0.30552     0.18297     0.10986     0.06810     0.04224


 All pairs explicitly correlated. Number of r12-pairs:           36

 Excluding core orbitals from MO domains

 AO(A)-basis ORBITAL           loaded. Number of functions:     734
 RI(R)-basis RI                loaded. Number of functions:     730
 DF-basis JKFIT                loaded. Number of functions:    1104

 Screening thresholds:   THRAO=  1.00D-10  THRMO=  1.00D-09  THRPROD=  1.00D-09
                         THRSW=  1.00D-05  THROV=  1.00D-12  THRAOF12= 1.00D-10

 CPU time for Fock operators                      6.74 sec

 Construction of ABS:
 Smallest eigenvalue of S          2.24E-04  (threshold= 1.00E-08)
 Ratio eigmin/eigmax               3.89E-05  (threshold= 1.00E-09)
 Smallest eigenvalue of S kept     2.24E-04  (threshold= 2.24E-04, 0 functions deleted, 730 kept)

 Construction of CABS:
 Smallest eigenvalue of S          8.84E-09  (threshold= 1.00E-08)
 Ratio eigmin/eigmax               8.84E-09  (threshold= 1.00E-09)
 Smallest eigenvalue of S kept     7.59E-08  (threshold= 7.59E-08, 1 functions deleted, 729 kept)

 CPU time for CABS singles                        0.82 sec

 CABS-singles contribution of  -0.00007889 patched into reference energy.
 New reference energy        -116.28071660

 AO(A)-basis ORBITAL           loaded. Number of functions:     734
 RI(R)-basis RI                loaded. Number of functions:     730
 DF-basis MP2FIT               loaded. Number of functions:    1246

 Screening thresholds:   THRAO=  1.00D-10  THRMO=  1.00D-09  THRPROD=  1.00D-09
                         THRSW=  1.00D-05  THROV=  1.00D-12  THRAOF12= 1.00D-10

 CPU time for 3-index integral evaluation        20.91 sec
 CPU time for first  half transformation          2.23 sec (13754.5 MFLOP/sec)
 CPU time for second half transformation          0.08 sec ( 3267.8 MFLOP/sec)
 CPU time for sorting                             0.39 sec
 CPU time for fitting                             0.18 sec (51543.5 MFLOP/sec)
 CPU time for tilde quantities                    0.30 sec (45913.1 MFLOP/sec)
 CPU time for assembly                            2.13 sec (58542.1 MFLOP/sec)
 CPU time for tranop_f12                          2.71 sec (63299.2 MFLOP/sec)
 CPU time for f12 integrals (total)              32.80 sec, Elapsed time:     36.41 sec
 F12-matrices built in  4 passes.
 F12-matrices built in  4 passes.
 F12-matrices built in  4 passes.
 F12-matrices built in  4 passes.
 FC-matrix built in  4 passes.
 CPU time for f12 matrices (total)                2.16 sec, Elapsed time:      2.39 sec

 Diagonal F12 approximation with fixed coefficients:  TSING= 0.500,  TTRIP= 0.250 (scaled by -1/beta)

 DF-MP2-F12 energy corrections:
 ==============================
 Approx.                                    Singlet             Triplet             Total
 DF-MP2-F12/3*C(DX,FIX)                -0.011193287241     -0.000786743282     -0.011980030523
 DF-MP2-F12/3*C(FIX)                   -0.010383183952     -0.000515870287     -0.010899054239
 DF-MP2-F12/3C(FIX)                    -0.010494346426     -0.000531461316     -0.011025807742

 DF-MP2-F12 correlation energies:
 ================================
 Approx.                                    Singlet             Triplet             Ecorr            Total Energy
 DF-MP2                                -0.350427800663     -0.159955564495     -0.510383365158   -116.791099967184
 DF-MP2-F12/3*C(DX,FIX)                -0.361621087904     -0.160742307777     -0.522363395681   -116.803079997707
 DF-MP2-F12/3*C(FIX)                   -0.360810984615     -0.160471434782     -0.521282419397   -116.801999021423
 DF-MP2-F12/3C(FIX)                    -0.360922147089     -0.160487025811     -0.521409172900   -116.802125774926

 SCS-DF-MP2 energies (F_SING= 1.20000  F_TRIP= 0.62222  F_PARALLEL= 0.33333):
 ============================================================================
 SCS-DF-MP2                            -0.520041267592   -116.800757869618
 SCS-DF-MP2-F12/3*C(DX,FIX)            -0.533962741435   -116.814679343461
 SCS-DF-MP2-F12/3*C(FIX)               -0.532822074291   -116.813538676317
 SCS-DF-MP2-F12/3C(FIX)                -0.532965170344   -116.813681772370
 Symmetry transformation completed.

 Number of N-1 electron functions:               8
 Number of N-2 electron functions:              36
 Number of singly external CSFs:              5792
 Number of doubly external CSFs:          16776528
 Total number of CSFs:                    16782321

 Pair and operator lists are different

 Length of J-op  integral file:               1.47 GB
 Length of K-op  integral file:               2.18 GB
 Length of 3-ext integral record:             0.00 MB

 For full I/O caching in triples, increase memory by 34.16 Mwords to 4034.21 Mwords.

 Integral transformation finished. Total CPU: 732.47 sec, npass=  1  Memory used:1826.21 MW

 Reference energy:                   -116.28071660

 Adding F12 terms to K(Cij), methodcc=6,  factor= 1.0

 ITER.      SQ.NORM     CORR.ENERGY   TOTAL ENERGY   ENERGY CHANGE        DEN1      VAR(S)    VAR(P)  DIIS     TIME  TIME/IT
   1      1.13450192    -0.52233323  -116.80304983    -0.01193706     0.00002066  0.14D-02  0.20D-02  1  1   948.86   184.75
   2      1.14279143    -0.52338255  -116.80409915    -0.00104932    -0.01024609  0.33D-04  0.25D-03  2  2  1119.08   185.42
   3      1.14603430    -0.52354699  -116.80426359    -0.00016444    -0.00233874  0.12D-04  0.14D-04  3  3  1292.14   187.11
   4      1.14699972    -0.52355117  -116.80426777    -0.00000418    -0.00053344  0.69D-06  0.13D-05  4  4  1469.33   189.10
   5      1.14717216    -0.52355300  -116.80426960    -0.00000183    -0.00004332  0.22D-06  0.96D-07  5  5  1641.90   189.43
   6      1.14721983    -0.52355020  -116.80426680     0.00000280    -0.00000839  0.23D-07  0.85D-08  6  6  1814.04   189.36
   7      1.14723119    -0.52354893  -116.80426554     0.00000126    -0.00000283  0.25D-08  0.12D-08  6  2  1986.36   189.46
   8      1.14723419    -0.52354866  -116.80426526     0.00000028    -0.00000049  0.38D-09  0.12D-09  6  1  2160.14   189.66
   9      1.14723510    -0.52354862  -116.80426523     0.00000003    -0.00000000  0.37D-10  0.19D-10  6  3  2331.81   189.68
  10      1.14723529    -0.52354862  -116.80426522     0.00000000     0.00000006  0.39D-11  0.26D-11  6  4  2504.89   189.71
  11      1.14723525    -0.52354863  -116.80426523    -0.00000001     0.00000008  0.65D-12  0.33D-12  6  5  2678.46   189.84
  12      1.14723524    -0.52354863  -116.80426523    -0.00000000     0.00000002  0.11D-12  0.44D-13  6  6  2854.40   190.10
  13      1.14723522    -0.52354863  -116.80426524    -0.00000000     0.00000001  0.22D-13  0.61D-14  6  2  3023.78   189.84
  14      1.14723522    -0.52354863  -116.80426524    -0.00000000     0.00000000  0.38D-14  0.13D-14  6  1  3196.04   189.83
  15      1.14723522    -0.52354863  -116.80426524    -0.00000000    -0.00000000  0.55D-15  0.24D-15  6  3  3375.76   190.38
  16      1.14723522    -0.52354863  -116.80426524    -0.00000000    -0.00000000  0.12D-15  0.41D-16  6  4  3553.52   190.69
  17      1.14723522    -0.52354863  -116.80426524     0.00000000    -0.00000000  0.33D-16  0.96D-17  6  5  3729.99   190.87

 Norm of t1 vector:      0.05005977      S-energy:    -0.00000000      T1 diagnostic:  0.00884940
                                                                       D1 diagnostic:  0.01977219

 Adding energy correction from Wij-K(Fij), methodcc=6  factor= 1.0

  CCSD correlation energy              -0.523548633556
  MP2-F12 correction (uncoupled)       -0.010849361642
  C*T doubles correction               -0.000158739624
  f12b correction                       0.002683998259

   CPU time for triples:   1928.57 sec for i =  1 -  7 /  8 (~  68.8 % done)
   CPU time for triples:    898.46 sec for i =  8 -  8 /  8 (  100.0 % done)

 Total CPU time for triples:   2827.08 sec

  Ecorr(MP2)                           -0.510396169097
  Ecorr(MP2-F12)                       -0.521421976839
  Scale factor for triples energy       1.021602450036


 RESULTS
 =======

  Reference energy                   -116.280637716363
  F12 singles correction               -0.000078885663

 F12 singles corrections added to reference energy

  New reference energy               -116.280716602026

  F12a singlet correction              -0.010436257953
  F12a triplet correction              -0.000571843313
  F12a total correction                -0.011008101266

 F12a corrections for ansatz F12/3C(FIX) added to CCSD energy

  CCSD-F12a singlet pair energy        -0.387736495945
  CCSD-F12a triplet pair energy        -0.146820238425
  CCSD-F12a correlation energy         -0.534556734823

  Triples (T) contribution (scaled)    -0.017383655343
  Total correlation energy             -0.551940390166

  CCSD-F12a total energy             -116.815273336849
  CCSD[T]-F12a energy                -116.833217707079
  CCSD-T-F12a energy                 -116.832445452148
 !CCSD(T)-F12a total energy          -116.832656992192

 F12b corrections for ansatz F12/3C(FIX) added to CCSD(T)-F12a energy

  CCSD-F12b singlet pair energy        -0.385145339329
  CCSD-F12b triplet pair energy        -0.146727396784
  CCSD-F12b correlation energy         -0.531872736564

  Triples (T) contribution (scaled)    -0.017383655343
  Total correlation energy             -0.549256391907

  CCSD-F12b total energy             -116.812589338590
  CCSD[T]-F12b energy                -116.830533708820
  CCSD-T-F12b energy                 -116.829761453890
 !CCSD(T)-F12b total energy          -116.829972993933

 Timing summary (sec):

 STEP                 CPU(USER)    SYS     CPU(TOT)    WALL
 Transformation        733.51     41.34    774.85    778.59
 CCSD iterations      2951.83    279.81   3231.64   3245.29
 Triples              2827.08     33.94   2861.02   2873.06
 MP2-F12                44.78      4.37     49.15     49.50
 F12b energy           160.57     14.02    174.59    175.34

 Program statistics:

 Available memory in ccsd:              3999999554
 Min. memory needed in ccsd:              48689265
 Max. memory used in ccsd:                63255345
 Max. memory used in cckext:              42753482 (18 integral passes)



 **********************************************************************************************************************************
 DATASETS  * FILE   NREC   LENGTH (MB)   RECORD NAMES
              1      19    12452.16       500      610      700      900      950      970     1000      129      960     1100   
                                          VAR    BASINP    GEOM    SYMINP    ZMAT    AOBASIS   BASIS     P2S    ABASIS      S 
                                         1400     1410     1200     1210     1080     1600     1650     1700     1380   
                                           T        V       H0       H01     AOSYM     SMH    MOLCAS    OPER     JKOP   

              2       6       24.60       700     1000      520     2100     7360     7350   
                                         GEOM     BASIS   MCVARS     RHF    F12ABS    EF12   

 PROGRAMS   *        TOTAL   CCSD(T)    HF-SCF       INT
 CPU TIMES  *      8867.83   6718.09   1061.45   1088.13
 REAL TIME  *      9648.61 SEC
 DISK USED  *        14.29 GB (local),      547.78 GB (total)
 SF USED    *        17.68 GB
 GA USED    *         4.87 MB       (max)       0.00 MB       (current)
 **********************************************************************************************************************************

 Running procedure: SET_MONOMER1

 Dummy atoms: C1  H41  H42  H43  H44


 Recomputing one-electron integrals since nuclear charges changed


 PROGRAM * SEWARD (Integral evaluation for generally contracted gaussian basis sets)     Author: Roland Lindh, 1990

 Geometry written to block  1 of record 700


 Point group  C1  



 ATOMIC COORDINATES

 NR  ATOM    CHARGE       X              Y              Z

   1  O12     8.00   -5.732106254    9.977753938    2.847061379
   2  H23     1.00   -6.497256361    9.507023160    1.238715475
   3  H24     1.00   -4.013967261    9.251343215    2.814558090
   4  C1      0.00   -6.193010455    2.801518980    2.403542658
   5  H41     0.00   -4.656285171    1.699997622    3.119937832
   6  H42     0.00   -5.973046335    4.726205038    2.982932688
   7  H43     0.00   -7.940251230    2.077186956    3.118237078
   8  H44     0.00   -6.176569838    2.685300823    0.384937212

 Bond lengths in Bohr (Angstrom)

 1-2  1.842231989  1-3  1.865671621  4-5  2.021904040  4-6  2.022002335  4-7  2.021953343
     ( 0.974867186)     ( 0.987270905)     ( 1.069945541)     ( 1.069997556)     ( 1.069971630)

 4-8  2.022015060
     ( 1.070004290)

 Bond angles

  2-1-3  105.53314040   5-4-6  109.53398059   5-4-7  109.65604535   5-4-8  108.43490854

  6-4-7  109.49436728   6-4-8  109.86987750   7-4-8  109.83468330

 NUCLEAR CHARGE:                   10
 NUMBER OF PRIMITIVE AOS:        1046
 NUMBER OF SYMMETRY AOS:          786
 NUMBER OF CONTRACTIONS:          734   (  734A   )
 NUMBER OF CORE ORBITALS:           1   (    1A   )
 NUMBER OF VALENCE ORBITALS:        6   (    6A   )

 MOLECULE CHANGED: INITIALIZING OCCUPATION AND DUMP RECORDS


 NUCLEAR REPULSION ENERGY    8.96929098

 Basis set:  JKFIT                   
 Basis size:  1104
 Attributes:
 Sphericals:   T
 Basis set:  MP2FIT                  
 Basis size:  1246
 Attributes:
 Sphericals:   T
 Basis set:  RI                      
 Basis size:   730
 Attributes:
 Sphericals:   T
 Basis set:  TDDFT                   
 Basis size:  1246
 Attributes:
 Sphericals:   T

 Eigenvalues of metric

         1 0.146E-05 0.191E-05 0.307E-05 0.396E-05 0.491E-05 0.623E-05 0.806E-05 0.911E-05


 Contracted 2-electron integrals neglected if value below      1.0D-14

 OPERATOR DM      FOR CENTER  0  COORDINATES:    0.000000    0.000000    0.000000


 **********************************************************************************************************************************
 DATASETS  * FILE   NREC   LENGTH (MB)   RECORD NAMES
              1      18       49.80       500      610      700      900      950      970     1000      129      960     1100   
                                          VAR    BASINP    GEOM    SYMINP    ZMAT    AOBASIS   BASIS     P2S    ABASIS      S 
                                         1400     1410     1200     1210     1080     1600     1650     1700   
                                           T        V       H0       H01     AOSYM     SMH    MOLCAS    OPER   

              2       7       24.63       700     1000      520     2100     7360     7350      200   
                                         GEOM     BASIS   MCVARS     RHF    F12ABS    EF12    OPTIONS    

 PROGRAMS   *        TOTAL       INT   CCSD(T)    HF-SCF       INT
 CPU TIMES  *      8868.42      0.59   6718.09   1061.45   1088.13
 REAL TIME  *      9651.95 SEC
 DISK USED  *        14.29 GB (local),      547.78 GB (total)
 SF USED    *        17.68 GB
 GA USED    *         4.87 MB       (max)       0.00 MB       (current)
 **********************************************************************************************************************************


 PROGRAM * RHF-SCF (CLOSED SHELL)       Authors: W. Meyer, H.-J. Werner


 NUMBER OF ELECTRONS:       5+    5-    SPACE SYMMETRY=1    SPIN SYMMETRY: Singlet 
 CONVERGENCE THRESHOLDS:    1.00E-08 (Density)    1.00E-11 (Energy)
 MAX. NUMBER OF ITERATIONS:       60
 INTERPOLATION TYPE:            DIIS
 INTERPOLATION STEPS:              2 (START)      1 (STEP)
 LEVEL SHIFTS:                  0.00 (CLOSED)  0.00 (OPEN) 



 Orbital guess generated from atomic densities. Full valence occupancy:    7

 Molecular orbital dump at record        2101.2

 Initial occupancy:   5

 ITERATION    DDIFF          GRAD             ENERGY        2-EL.EN.            DIPOLE MOMENTS         DIIS   ORB.
    1      0.000D+00      0.000D+00       -76.02580848     77.378409    0.49247   -0.61457   -0.83961    0    start
    2      0.000D+00      0.360D-02       -76.05259480     73.708601    0.28197   -0.35560   -0.48832    1    diag
    3      0.131D-02      0.230D-02       -76.06428013     75.341117    0.33383   -0.42018   -0.57644    2    diag
    4      0.496D-03      0.215D-03       -76.06447701     75.249362    0.33104   -0.41742   -0.57316    3    diag
    5      0.627D-04      0.607D-04       -76.06449852     75.263990    0.32997   -0.41639   -0.57197    4    diag
    6      0.199D-04      0.122D-04       -76.06449995     75.262887    0.32969   -0.41615   -0.57170    5    diag
    7      0.528D-05      0.250D-05       -76.06450002     75.263034    0.32961   -0.41607   -0.57162    6    diag
    8      0.148D-05      0.473D-06       -76.06450002     75.263022    0.32959   -0.41605   -0.57159    7    diag
    9      0.303D-06      0.653D-07       -76.06450002     75.263012    0.32959   -0.41604   -0.57158    8    diag
   10      0.496D-07      0.147D-07       -76.06450002     75.263015    0.32959   -0.41604   -0.57158    9    orth
   11      0.112D-07      0.266D-08       -76.06450002     75.263015    0.32959   -0.41604   -0.57158    9    diag
   12      0.175D-08      0.467D-09       -76.06450002     75.263015    0.32959   -0.41604   -0.57158    0    orth

 Final occupancy:   5

 !RHF STATE  1.1 Energy               -76.064500020249
 Nuclear energy                         8.96929098
 One-electron energy                 -122.66529828
 Two-electron energy                   37.63150728
 Virial quotient                       -1.00206780
 !RHF STATE  1.1 Dipole moment          0.32958654    -0.41604440    -0.57158204
 Dipole moment /Debye                   0.83767055    -1.05741012    -1.45272149

 Orbital energies:

         1.1          2.1          3.1          4.1          5.1          6.1          7.1
    -20.567644    -1.339990    -0.706787    -0.578418    -0.508302     0.014465     0.031029


 HOMO      5.1    -0.508302 =     -13.8316eV
 LUMO      6.1     0.014465 =       0.3936eV
 LUMO-HOMO         0.522767 =      14.2252eV


 **********************************************************************************************************************************
 DATASETS  * FILE   NREC   LENGTH (MB)   RECORD NAMES
              1      18       49.80       500      610      700      900      950      970     1000      129      960     1100   
                                          VAR    BASINP    GEOM    SYMINP    ZMAT    AOBASIS   BASIS     P2S    ABASIS      S 
                                         1400     1410     1200     1210     1080     1600     1650     1700   
                                           T        V       H0       H01     AOSYM     SMH    MOLCAS    OPER   

              2       8       38.40       700     1000      520     2100     7360     7350      200     2101   
                                         GEOM     BASIS   MCVARS     RHF    F12ABS    EF12    OPTIONS    RHF  

 PROGRAMS   *        TOTAL    HF-SCF       INT   CCSD(T)    HF-SCF       INT
 CPU TIMES  *      9922.12   1053.70      0.59   6718.09   1061.45   1088.13
 REAL TIME  *     10865.02 SEC
 DISK USED  *        14.29 GB (local),      547.78 GB (total)
 SF USED    *        17.68 GB
 GA USED    *         4.87 MB       (max)       0.00 MB       (current)
 **********************************************************************************************************************************

 Basis set:  JKFIT                   
 Basis size:  1104
 Attributes:
 Sphericals:   T
 Basis set:  MP2FIT                  
 Basis size:  1246
 Attributes:
 Sphericals:   T
 Basis set:  RI                      
 Basis size:   730
 Attributes:
 Sphericals:   T
 Basis set:  TDDFT                   
 Basis size:  1246
 Attributes:
 Sphericals:   T

 PROGRAM * CCSD (Closed-shell coupled cluster)     Authors: C. Hampel, H.-J. Werner, 1991, M. Deegan, P.J. Knowles, 1992

                                  CCSD-F12 implementation by  H.-J. Werner, 2007

                   Density fitting integral evaluation by F.R. Manby, 2003,2007, G. Knizia, 2010



 Convergence thresholds:  THRVAR = 1.00D-08  THRDEN = 1.00D-10

 CCSD(T)     terms to be evaluated (factor= 1.000)


 Number of core orbitals:           1 (   1 )
 Number of closed-shell orbitals:   4 (   4 )
 Number of external orbitals:     729 ( 729 )

 Molecular orbitals read from record     2101.2  Type=RHF/CANONICAL (state 1.1)

 MP2-F12 correlation treatment (H.-J. Werner, 2006)
 ==================================================

 Using MP2-F12 with ansatz 3C(FIX)

 Using projected zeroth-order Hamiltonian (+Z)

 FOCKRIB=T FOCKRIC=T FOCKRIP=T CABSP=T CABSA=T CABSK=T CABSF=T GBC=F EBC=F DMAT=T NOFIK=T NOPAO=1 SOLVE=-1  USEPAO=0
 EXCH_A= T EXCH_B= F EXCH_C= F EXCH_P= F

 Geminal basis:    OPTFULL  GEM_TYPE=SLATER  BETA=1.0  NGEM=6

 Optimizing Gaussian exponents for each gem_beta

 Geminal optimization for beta= 1.0000
 Weight function:   m=0, omega= 1.4646

 Augmented Hessian optimization of geminal fit. Trust ratio= 0.40000
 Convergence reached after   2 iterations. Final gradient= 8.53D-16, Step= 4.26D-06, Delta= 1.28D-09

 Alpha:                 0.19532     0.81920     2.85917     9.50073    35.69989   197.79328
 Coeff:                 0.27070     0.30552     0.18297     0.10986     0.06810     0.04224


 All pairs explicitly correlated. Number of r12-pairs:           10

 Excluding core orbitals from MO domains

 AO(A)-basis ORBITAL           loaded. Number of functions:     734
 RI(R)-basis RI                loaded. Number of functions:     730
 DF-basis JKFIT                loaded. Number of functions:    1104

 Screening thresholds:   THRAO=  1.00D-10  THRMO=  1.00D-09  THRPROD=  1.00D-09
                         THRSW=  1.00D-05  THROV=  1.00D-12  THRAOF12= 1.00D-10

 CPU time for Fock operators                      6.12 sec

 Construction of ABS:
 Smallest eigenvalue of S          2.24E-04  (threshold= 1.00E-08)
 Ratio eigmin/eigmax               3.89E-05  (threshold= 1.00E-09)
 Smallest eigenvalue of S kept     2.24E-04  (threshold= 2.24E-04, 0 functions deleted, 730 kept)

 Construction of CABS:
 Smallest eigenvalue of S          8.84E-09  (threshold= 1.00E-08)
 Ratio eigmin/eigmax               8.84E-09  (threshold= 1.00E-09)
 Smallest eigenvalue of S kept     7.59E-08  (threshold= 7.59E-08, 1 functions deleted, 729 kept)

 CPU time for CABS singles                        0.75 sec

 CABS-singles contribution of  -0.00003812 patched into reference energy.
 New reference energy         -76.06453814

 AO(A)-basis ORBITAL           loaded. Number of functions:     734
 RI(R)-basis RI                loaded. Number of functions:     730
 DF-basis MP2FIT               loaded. Number of functions:    1246

 Screening thresholds:   THRAO=  1.00D-10  THRMO=  1.00D-09  THRPROD=  1.00D-09
                         THRSW=  1.00D-05  THROV=  1.00D-12  THRAOF12= 1.00D-10

 CPU time for 3-index integral evaluation        20.44 sec
 CPU time for first  half transformation          1.56 sec ( 9466.5 MFLOP/sec)
 CPU time for second half transformation          0.03 sec ( 2144.3 MFLOP/sec)
 CPU time for sorting                             0.17 sec
 CPU time for fitting                             0.15 sec (45913.1 MFLOP/sec)
 CPU time for tilde quantities                    0.27 sec (17112.2 MFLOP/sec)
 CPU time for assembly                            0.65 sec (55647.3 MFLOP/sec)
 CPU time for tranop_f12                          0.76 sec (53052.8 MFLOP/sec)
 CPU time for f12 integrals (total)              25.46 sec, Elapsed time:     26.84 sec
 F12-matrices built in  4 passes.
 F12-matrices built in  4 passes.
 F12-matrices built in  4 passes.
 F12-matrices built in  4 passes.
 FC-matrix built in  4 passes.
 CPU time for f12 matrices (total)                0.61 sec, Elapsed time:      0.66 sec

 Diagonal F12 approximation with fixed coefficients:  TSING= 0.500,  TTRIP= 0.250 (scaled by -1/beta)

 DF-MP2-F12 energy corrections:
 ==============================
 Approx.                                    Singlet             Triplet             Total
 DF-MP2-F12/3*C(DX,FIX)                -0.007250944272     -0.000571691536     -0.007822635808
 DF-MP2-F12/3*C(FIX)                   -0.006604187144     -0.000352738706     -0.006956925850
 DF-MP2-F12/3C(FIX)                    -0.006668250934     -0.000364916452     -0.007033167386

 DF-MP2-F12 correlation energies:
 ================================
 Approx.                                    Singlet             Triplet             Ecorr            Total Energy
 DF-MP2                                -0.192321404617     -0.102347906060     -0.294669310677    -76.359207449505
 DF-MP2-F12/3*C(DX,FIX)                -0.199572348889     -0.102919597596     -0.302491946485    -76.367030085313
 DF-MP2-F12/3*C(FIX)                   -0.198925591761     -0.102700644766     -0.301626236527    -76.366164375356
 DF-MP2-F12/3C(FIX)                    -0.198989655551     -0.102712822512     -0.301702478063    -76.366240616891

 SCS-DF-MP2 energies (F_SING= 1.20000  F_TRIP= 0.62222  F_PARALLEL= 0.33333):
 ============================================================================
 SCS-DF-MP2                            -0.294468827089    -76.359006965917
 SCS-DF-MP2-F12/3*C(DX,FIX)            -0.303525679393    -76.368063818222
 SCS-DF-MP2-F12/3*C(FIX)               -0.302613333523    -76.367151472352
 SCS-DF-MP2-F12/3C(FIX)                -0.302697787335    -76.367235926164
 Symmetry transformation completed.

 Number of N-1 electron functions:               4
 Number of N-2 electron functions:              10
 Number of singly external CSFs:              2916
 Number of doubly external CSFs:           4252986
 Total number of CSFs:                     4255903

 Pair and operator lists are different

 Length of J-op  integral file:             411.24 MB
 Length of K-op  integral file:             721.80 MB
 Length of 3-ext integral record:             0.00 MB

 Memory could be reduced to 2535.14 Mwords without degradation in triples

 Integral transformation finished. Total CPU: 389.07 sec, npass=  1  Memory used:1009.99 MW

 Reference energy:                    -76.06453814

 Adding F12 terms to K(Cij), methodcc=6,  factor= 1.0

 ITER.      SQ.NORM     CORR.ENERGY   TOTAL ENERGY   ENERGY CHANGE        DEN1      VAR(S)    VAR(P)  DIIS     TIME  TIME/IT
   1      1.06385137    -0.29307931   -76.35761745     0.00159621     0.00769293  0.79D-03  0.11D-02  1  1   516.46   105.03
   2      1.06740772    -0.29317493   -76.35771307    -0.00009562    -0.00500836  0.15D-04  0.12D-03  2  2   610.94   106.49
   3      1.06876050    -0.29326890   -76.35780704    -0.00009397    -0.00095684  0.83D-05  0.74D-05  3  3   707.78   107.49
   4      1.06928071    -0.29327454   -76.35781268    -0.00000564    -0.00028325  0.54D-06  0.76D-06  4  4   802.68   107.58
   5      1.06938742    -0.29327329   -76.35781143     0.00000125    -0.00003201  0.17D-06  0.57D-07  5  5   896.08   107.38
   6      1.06942238    -0.29327105   -76.35780919     0.00000224    -0.00000591  0.20D-07  0.48D-08  6  6   991.53   107.62
   7      1.06943103    -0.29327048   -76.35780862     0.00000057    -0.00000137  0.18D-08  0.87D-09  6  2  1088.96   108.17
   8      1.06943310    -0.29327035   -76.35780849     0.00000013    -0.00000010  0.25D-09  0.95D-10  6  1  1187.82   108.72
   9      1.06943376    -0.29327032   -76.35780846     0.00000003     0.00000006  0.23D-10  0.10D-10  6  3  1281.10   108.44
  10      1.06943393    -0.29327031   -76.35780845     0.00000001     0.00000001  0.25D-11  0.14D-11  6  4  1376.58   108.53
  11      1.06943393    -0.29327031   -76.35780845    -0.00000000     0.00000004  0.50D-12  0.17D-12  6  5  1473.84   108.77
  12      1.06943393    -0.29327031   -76.35780845    -0.00000000     0.00000001  0.92D-13  0.27D-13  6  6  1570.24   108.94
  13      1.06943392    -0.29327031   -76.35780845    -0.00000000     0.00000000  0.16D-13  0.47D-14  6  2  1666.11   109.05
  14      1.06943392    -0.29327031   -76.35780845    -0.00000000     0.00000000  0.21D-14  0.83D-15  6  1  1761.19   109.00
  15      1.06943392    -0.29327031   -76.35780845    -0.00000000    -0.00000000  0.23D-15  0.14D-15  6  3  1859.14   109.12
  16      1.06943392    -0.29327031   -76.35780845     0.00000000    -0.00000000  0.44D-16  0.20D-16  6  4  1954.11   109.12

 Norm of t1 vector:      0.03689447      S-energy:    -0.00000000      T1 diagnostic:  0.00922362
                                                                       D1 diagnostic:  0.01880767

 Adding energy correction from Wij-K(Fij), methodcc=6  factor= 1.0

  CCSD correlation energy              -0.293270313381
  MP2-F12 correction (uncoupled)       -0.006954758440
  C*T doubles correction               -0.000089394559
  f12b correction                       0.001580667233


 Total CPU time for triples:    425.83 sec

  Ecorr(MP2)                           -0.294675516912
  Ecorr(MP2-F12)                       -0.301708684298
  Scale factor for triples energy       1.023867498257


 RESULTS
 =======

  Reference energy                    -76.064500020252
  F12 singles correction               -0.000038118576

 F12 singles corrections added to reference energy

  New reference energy                -76.064538138828

  F12a singlet correction              -0.006645826430
  F12a triplet correction              -0.000398326569
  F12a total correction                -0.007044152999

 F12a corrections for ansatz F12/3C(FIX) added to CCSD energy

  CCSD-F12a singlet pair energy        -0.209513888590
  CCSD-F12a triplet pair energy        -0.090800577698
  CCSD-F12a correlation energy         -0.300314466380

  Triples (T) contribution (scaled)    -0.010077072221
  Total correlation energy             -0.310391538601

  CCSD-F12a total energy              -76.364852605208
  CCSD[T]-F12a energy                 -76.375249714330
  CCSD-T-F12a energy                  -76.374789279786
 !CCSD(T)-F12a total energy           -76.374929677429

 F12b corrections for ansatz F12/3C(FIX) added to CCSD(T)-F12a energy

  CCSD-F12b singlet pair energy        -0.207996438303
  CCSD-F12b triplet pair energy        -0.090737360752
  CCSD-F12b correlation energy         -0.298733799147

  Triples (T) contribution (scaled)    -0.010077072221
  Total correlation energy             -0.308810871368

  CCSD-F12b total energy              -76.363271937976
  CCSD[T]-F12b energy                 -76.373669047097
  CCSD-T-F12b energy                  -76.373208612553
 !CCSD(T)-F12b total energy           -76.373349010196

 Timing summary (sec):

 STEP                 CPU(USER)    SYS     CPU(TOT)    WALL
 Transformation        389.37     26.33    415.70    417.56
 CCSD iterations      1530.71    208.19   1738.90   1746.32
 Triples               425.83      5.71    431.54    433.27
 MP2-F12                34.17      1.70     35.87     36.06
 F12b energy            91.43     12.29    103.72    104.14

 Program statistics:

 Available memory in ccsd:              3999999871
 Min. memory needed in ccsd:              19260852
 Max. memory used in ccsd:                22423154
 Max. memory used in cckext:              14628952 (17 integral passes)



 **********************************************************************************************************************************
 DATASETS  * FILE   NREC   LENGTH (MB)   RECORD NAMES
              1      19     6330.34       500      610      700      900      950      970     1000      129      960     1100   
                                          VAR    BASINP    GEOM    SYMINP    ZMAT    AOBASIS   BASIS     P2S    ABASIS      S 
                                         1400     1410     1200     1210     1080     1600     1650     1700     1380   
                                           T        V       H0       H01     AOSYM     SMH    MOLCAS    OPER     JKOP   

              2       8       38.40       700     1000      520     2100     7360     7350      200     2101   
                                         GEOM     BASIS   MCVARS     RHF    F12ABS    EF12    OPTIONS    RHF  

 PROGRAMS   *        TOTAL   CCSD(T)    HF-SCF       INT   CCSD(T)    HF-SCF       INT
 CPU TIMES  *     12393.96   2471.84   1053.70      0.59   6718.09   1061.45   1088.13
 REAL TIME  *     13603.95 SEC
 DISK USED  *        14.29 GB (local),      547.78 GB (total)
 SF USED    *        17.68 GB
 GA USED    *         4.87 MB       (max)       0.00 MB       (current)
 **********************************************************************************************************************************

 Running procedure: SET_MONOMER2

 Dummy atoms: O12  H23  H24


 Recomputing one-electron integrals since nuclear charges changed


 PROGRAM * SEWARD (Integral evaluation for generally contracted gaussian basis sets)     Author: Roland Lindh, 1990

 Geometry written to block  1 of record 700


 Point group  C1  



 ATOMIC COORDINATES

 NR  ATOM    CHARGE       X              Y              Z

   1  O12     0.00   -5.732106254    9.977753938    2.847061379
   2  H23     0.00   -6.497256361    9.507023160    1.238715475
   3  H24     0.00   -4.013967261    9.251343215    2.814558090
   4  C1      6.00   -6.193010455    2.801518980    2.403542658
   5  H41     1.00   -4.656285171    1.699997622    3.119937832
   6  H42     1.00   -5.973046335    4.726205038    2.982932688
   7  H43     1.00   -7.940251230    2.077186956    3.118237078
   8  H44     1.00   -6.176569838    2.685300823    0.384937212

 Bond lengths in Bohr (Angstrom)

 1-2  1.842231989  1-3  1.865671621  4-5  2.021904040  4-6  2.022002335  4-7  2.021953343
     ( 0.974867186)     ( 0.987270905)     ( 1.069945541)     ( 1.069997556)     ( 1.069971630)

 4-8  2.022015060
     ( 1.070004290)

 Bond angles

  2-1-3  105.53314040   5-4-6  109.53398059   5-4-7  109.65604535   5-4-8  108.43490854

  6-4-7  109.49436728   6-4-8  109.86987750   7-4-8  109.83468330

 NUCLEAR CHARGE:                   10
 NUMBER OF PRIMITIVE AOS:        1046
 NUMBER OF SYMMETRY AOS:          786
 NUMBER OF CONTRACTIONS:          734   (  734A   )
 NUMBER OF CORE ORBITALS:           1   (    1A   )
 NUMBER OF VALENCE ORBITALS:        8   (    8A   )

 MOLECULE CHANGED: INITIALIZING OCCUPATION AND DUMP RECORDS


 NUCLEAR REPULSION ENERGY   13.68681606

 Basis set:  JKFIT                   
 Basis size:  1104
 Attributes:
 Sphericals:   T
 Basis set:  MP2FIT                  
 Basis size:  1246
 Attributes:
 Sphericals:   T
 Basis set:  RI                      
 Basis size:   730
 Attributes:
 Sphericals:   T
 Basis set:  TDDFT                   
 Basis size:  1246
 Attributes:
 Sphericals:   T

 Eigenvalues of metric

         1 0.146E-05 0.191E-05 0.307E-05 0.396E-05 0.491E-05 0.623E-05 0.806E-05 0.911E-05


 Contracted 2-electron integrals neglected if value below      1.0D-14

 OPERATOR DM      FOR CENTER  0  COORDINATES:    0.000000    0.000000    0.000000


 **********************************************************************************************************************************
 DATASETS  * FILE   NREC   LENGTH (MB)   RECORD NAMES
              1      18       49.80       500      610      700      900      950      970     1000      129      960     1100   
                                          VAR    BASINP    GEOM    SYMINP    ZMAT    AOBASIS   BASIS     P2S    ABASIS      S 
                                         1400     1410     1200     1210     1080     1600     1650     1700   
                                           T        V       H0       H01     AOSYM     SMH    MOLCAS    OPER   

              2       8       38.40       700     1000      520     2100     7360     7350      200     2101   
                                         GEOM     BASIS   MCVARS     RHF    F12ABS    EF12    OPTIONS    RHF  

 PROGRAMS   *        TOTAL       INT   CCSD(T)    HF-SCF       INT   CCSD(T)    HF-SCF       INT
 CPU TIMES  *     12394.65      0.68   2471.84   1053.70      0.59   6718.09   1061.45   1088.13
 REAL TIME  *     13605.89 SEC
 DISK USED  *        14.29 GB (local),      547.78 GB (total)
 SF USED    *        17.68 GB
 GA USED    *         4.87 MB       (max)       0.00 MB       (current)
 **********************************************************************************************************************************


 PROGRAM * RHF-SCF (CLOSED SHELL)       Authors: W. Meyer, H.-J. Werner


 NUMBER OF ELECTRONS:       5+    5-    SPACE SYMMETRY=1    SPIN SYMMETRY: Singlet 
 CONVERGENCE THRESHOLDS:    1.00E-08 (Density)    1.00E-11 (Energy)
 MAX. NUMBER OF ITERATIONS:       60
 INTERPOLATION TYPE:            DIIS
 INTERPOLATION STEPS:              2 (START)      1 (STEP)
 LEVEL SHIFTS:                  0.00 (CLOSED)  0.00 (OPEN) 



 Orbital guess generated from atomic densities. Full valence occupancy:    9

 Molecular orbital dump at record        2102.2

 Initial occupancy:   5

 ITERATION    DDIFF          GRAD             ENERGY        2-EL.EN.            DIPOLE MOMENTS         DIIS   ORB.
    1      0.000D+00      0.000D+00       -40.19676547     53.509905    0.00411   -0.00276   -0.00131    0    start
    2      0.000D+00      0.198D-02       -40.21405766     52.218481    0.00128   -0.00088   -0.00039    1    diag
    3      0.949D-03      0.769D-03       -40.21634109     52.673988    0.00182   -0.00124   -0.00055    2    diag
    4      0.262D-03      0.192D-03       -40.21666142     52.619251    0.00162   -0.00110   -0.00049    3    diag
    5      0.104D-03      0.248D-04       -40.21666690     52.621409    0.00159   -0.00109   -0.00048    4    diag
    6      0.346D-04      0.204D-05       -40.21666694     52.621537    0.00159   -0.00109   -0.00048    5    diag
    7      0.571D-05      0.166D-06       -40.21666694     52.621499    0.00159   -0.00109   -0.00048    6    diag
    8      0.317D-06      0.136D-07       -40.21666694     52.621500    0.00159   -0.00109   -0.00048    7    diag
    9      0.582D-07      0.167D-08       -40.21666694     52.621500    0.00159   -0.00109   -0.00048    8    diag
   10      0.101D-07      0.465D-09       -40.21666694     52.621500    0.00159   -0.00109   -0.00048    9    orth
   11      0.104D-08      0.667D-10       -40.21666694     52.621500    0.00159   -0.00109   -0.00048    0    orth

 Final occupancy:   5

 !RHF STATE  1.1 Energy               -40.216666941270
 Nuclear energy                        13.68681606
 One-electron energy                  -80.21423275
 Two-electron energy                   26.31074976
 Virial quotient                       -0.99832812
 !RHF STATE  1.1 Dipole moment          0.00158542    -0.00108518    -0.00047670
 Dipole moment /Debye                   0.00402948    -0.00275808    -0.00121157

 Orbital energies:

         1.1          2.1          3.1          4.1          5.1          6.1          7.1
    -11.196017    -0.950605    -0.551931    -0.549996    -0.547818     0.021223     0.034493


 HOMO      5.1    -0.547818 =     -14.9069eV
 LUMO      6.1     0.021223 =       0.5775eV
 LUMO-HOMO         0.569040 =      15.4844eV


 **********************************************************************************************************************************
 DATASETS  * FILE   NREC   LENGTH (MB)   RECORD NAMES
              1      18       49.80       500      610      700      900      950      970     1000      129      960     1100   
                                          VAR    BASINP    GEOM    SYMINP    ZMAT    AOBASIS   BASIS     P2S    ABASIS      S 
                                         1400     1410     1200     1210     1080     1600     1650     1700   
                                           T        V       H0       H01     AOSYM     SMH    MOLCAS    OPER   

              2       9       62.49       700     1000      520     2100     7360     7350      200     2101     2102   
                                         GEOM     BASIS   MCVARS     RHF    F12ABS    EF12    OPTIONS    RHF      RHF  

 PROGRAMS   *        TOTAL    HF-SCF       INT   CCSD(T)    HF-SCF       INT   CCSD(T)    HF-SCF       INT
 CPU TIMES  *     13362.37    967.72      0.68   2471.84   1053.70      0.59   6718.09   1061.45   1088.13
 REAL TIME  *     14711.85 SEC
 DISK USED  *        14.29 GB (local),      547.78 GB (total)
 SF USED    *        17.68 GB
 GA USED    *         4.87 MB       (max)       0.00 MB       (current)
 **********************************************************************************************************************************

 Basis set:  JKFIT                   
 Basis size:  1104
 Attributes:
 Sphericals:   T
 Basis set:  MP2FIT                  
 Basis size:  1246
 Attributes:
 Sphericals:   T
 Basis set:  RI                      
 Basis size:   730
 Attributes:
 Sphericals:   T
 Basis set:  TDDFT                   
 Basis size:  1246
 Attributes:
 Sphericals:   T

 PROGRAM * CCSD (Closed-shell coupled cluster)     Authors: C. Hampel, H.-J. Werner, 1991, M. Deegan, P.J. Knowles, 1992

                                  CCSD-F12 implementation by  H.-J. Werner, 2007

                   Density fitting integral evaluation by F.R. Manby, 2003,2007, G. Knizia, 2010



 Convergence thresholds:  THRVAR = 1.00D-08  THRDEN = 1.00D-10

 CCSD(T)     terms to be evaluated (factor= 1.000)


 Number of core orbitals:           1 (   1 )
 Number of closed-shell orbitals:   4 (   4 )
 Number of external orbitals:     729 ( 729 )

 Molecular orbitals read from record     2102.2  Type=RHF/CANONICAL (state 1.1)

 MP2-F12 correlation treatment (H.-J. Werner, 2006)
 ==================================================

 Using MP2-F12 with ansatz 3C(FIX)

 Using projected zeroth-order Hamiltonian (+Z)

 FOCKRIB=T FOCKRIC=T FOCKRIP=T CABSP=T CABSA=T CABSK=T CABSF=T GBC=F EBC=F DMAT=T NOFIK=T NOPAO=1 SOLVE=-1  USEPAO=0
 EXCH_A= T EXCH_B= F EXCH_C= F EXCH_P= F

 Geminal basis:    OPTFULL  GEM_TYPE=SLATER  BETA=1.0  NGEM=6

 Optimizing Gaussian exponents for each gem_beta

 Geminal optimization for beta= 1.0000
 Weight function:   m=0, omega= 1.4646

 Augmented Hessian optimization of geminal fit. Trust ratio= 0.40000
 Convergence reached after   2 iterations. Final gradient= 8.53D-16, Step= 4.26D-06, Delta= 1.28D-09

 Alpha:                 0.19532     0.81920     2.85917     9.50073    35.69989   197.79328
 Coeff:                 0.27070     0.30552     0.18297     0.10986     0.06810     0.04224


 All pairs explicitly correlated. Number of r12-pairs:           10

 Excluding core orbitals from MO domains

 AO(A)-basis ORBITAL           loaded. Number of functions:     734
 RI(R)-basis RI                loaded. Number of functions:     730
 DF-basis JKFIT                loaded. Number of functions:    1104

 Screening thresholds:   THRAO=  1.00D-10  THRMO=  1.00D-09  THRPROD=  1.00D-09
                         THRSW=  1.00D-05  THROV=  1.00D-12  THRAOF12= 1.00D-10

 CPU time for Fock operators                      6.50 sec

 Construction of ABS:
 Smallest eigenvalue of S          2.24E-04  (threshold= 1.00E-08)
 Ratio eigmin/eigmax               3.89E-05  (threshold= 1.00E-09)
 Smallest eigenvalue of S kept     2.24E-04  (threshold= 2.24E-04, 0 functions deleted, 730 kept)

 Construction of CABS:
 Smallest eigenvalue of S          8.84E-09  (threshold= 1.00E-08)
 Ratio eigmin/eigmax               8.84E-09  (threshold= 1.00E-09)
 Smallest eigenvalue of S kept     7.59E-08  (threshold= 7.59E-08, 1 functions deleted, 729 kept)

 CPU time for CABS singles                        0.83 sec

 CABS-singles contribution of  -0.00004075 patched into reference energy.
 New reference energy         -40.21670770

 AO(A)-basis ORBITAL           loaded. Number of functions:     734
 RI(R)-basis RI                loaded. Number of functions:     730
 DF-basis MP2FIT               loaded. Number of functions:    1246

 Screening thresholds:   THRAO=  1.00D-10  THRMO=  1.00D-09  THRPROD=  1.00D-09
                         THRSW=  1.00D-05  THROV=  1.00D-12  THRAOF12= 1.00D-10

 CPU time for 3-index integral evaluation        21.79 sec
 CPU time for first  half transformation          1.39 sec (10883.2 MFLOP/sec)
 CPU time for second half transformation          0.02 sec ( 3216.4 MFLOP/sec)
 CPU time for sorting                             0.16 sec
 CPU time for fitting                             0.19 sec (36328.9 MFLOP/sec)
 CPU time for tilde quantities                    0.22 sec (51755.2 MFLOP/sec)
 CPU time for assembly                            0.70 sec (49713.4 MFLOP/sec)
 CPU time for tranop_f12                          0.80 sec (50318.4 MFLOP/sec)
 CPU time for f12 integrals (total)              26.62 sec, Elapsed time:     27.94 sec
 F12-matrices built in  4 passes.
 F12-matrices built in  4 passes.
 F12-matrices built in  4 passes.
 F12-matrices built in  4 passes.
 FC-matrix built in  4 passes.
 CPU time for f12 matrices (total)                0.83 sec, Elapsed time:      0.87 sec

 Diagonal F12 approximation with fixed coefficients:  TSING= 0.500,  TTRIP= 0.250 (scaled by -1/beta)

 DF-MP2-F12 energy corrections:
 ==============================
 Approx.                                    Singlet             Triplet             Total
 DF-MP2-F12/3*C(DX,FIX)                -0.003930148838     -0.000212785985     -0.004142934823
 DF-MP2-F12/3*C(FIX)                   -0.003766977086     -0.000160682884     -0.003927659970
 DF-MP2-F12/3C(FIX)                    -0.003813609819     -0.000163704383     -0.003977314201

 DF-MP2-F12 correlation energies:
 ================================
 Approx.                                    Singlet             Triplet             Ecorr            Total Energy
 DF-MP2                                -0.157873805885     -0.056825293258     -0.214699099143    -40.431406794903
 DF-MP2-F12/3*C(DX,FIX)                -0.161803954723     -0.057038079243     -0.218842033966    -40.435549729726
 DF-MP2-F12/3*C(FIX)                   -0.161640782971     -0.056985976142     -0.218626759113    -40.435334454873
 DF-MP2-F12/3C(FIX)                    -0.161687415704     -0.056988997641     -0.218676413344    -40.435384109104

 SCS-DF-MP2 energies (F_SING= 1.20000  F_TRIP= 0.62222  F_PARALLEL= 0.33333):
 ============================================================================
 SCS-DF-MP2                            -0.224806527311    -40.441514223072
 SCS-DF-MP2-F12/3*C(DX,FIX)            -0.229655106086    -40.446362801846
 SCS-DF-MP2-F12/3*C(FIX)               -0.229426880276    -40.446134576036
 SCS-DF-MP2-F12/3C(FIX)                -0.229484719599    -40.446192415359
 Symmetry transformation completed.

 Number of N-1 electron functions:               4
 Number of N-2 electron functions:              10
 Number of singly external CSFs:              2916
 Number of doubly external CSFs:           4252986
 Total number of CSFs:                     4255903

 Pair and operator lists are different

 Length of J-op  integral file:             411.24 MB
 Length of K-op  integral file:             721.80 MB
 Length of 3-ext integral record:             0.00 MB

 Memory could be reduced to 2535.14 Mwords without degradation in triples

 Integral transformation finished. Total CPU: 392.64 sec, npass=  1  Memory used:1009.99 MW

 Reference energy:                    -40.21670770

 Adding F12 terms to K(Cij), methodcc=6,  factor= 1.0

 ITER.      SQ.NORM     CORR.ENERGY   TOTAL ENERGY   ENERGY CHANGE        DEN1      VAR(S)    VAR(P)  DIIS     TIME  TIME/IT
   1      1.07033704    -0.22827568   -40.44498338    -0.01356988    -0.00771541  0.62D-03  0.94D-03  1  1   523.50   106.57
   2      1.07515870    -0.22923313   -40.44594082    -0.00095745    -0.00531239  0.16D-04  0.11D-03  2  2   617.97   107.14
   3      1.07694868    -0.22930048   -40.44600818    -0.00006735    -0.00133812  0.22D-05  0.64D-05  3  3   713.18   107.56
   4      1.07735150    -0.22930291   -40.44601060    -0.00000243    -0.00021861  0.16D-06  0.39D-06  4  4   806.62   107.47
   5      1.07740882    -0.22930647   -40.44601417    -0.00000357    -0.00000968  0.14D-07  0.24D-07  5  5   900.37   107.44
   6      1.07741906    -0.22930514   -40.44601283     0.00000134    -0.00000402  0.91D-09  0.19D-08  6  6   999.32   108.33
   7      1.07742061    -0.22930474   -40.44601243     0.00000040    -0.00000092  0.56D-10  0.13D-09  6  1  1093.24   108.17
   8      1.07742054    -0.22930480   -40.44601249    -0.00000006     0.00000024  0.63D-11  0.91D-11  6  3  1186.85   107.97
   9      1.07742068    -0.22930478   -40.44601247     0.00000002    -0.00000009  0.44D-12  0.64D-12  6  2  1280.52   107.89
  10      1.07742068    -0.22930478   -40.44601247     0.00000000     0.00000001  0.60D-13  0.66D-13  6  4  1375.47   107.86
  11      1.07742068    -0.22930478   -40.44601247     0.00000000     0.00000000  0.61D-14  0.66D-14  6  5  1469.16   107.67
  12      1.07742068    -0.22930478   -40.44601247     0.00000000     0.00000000  0.18D-15  0.68D-15  6  6  1570.96   108.30
  13      1.07742068    -0.22930478   -40.44601247    -0.00000000     0.00000000  0.15D-16  0.75D-16  6  1  1672.82   108.93
  14      1.07742068    -0.22930478   -40.44601247    -0.00000000     0.00000000  0.24D-17  0.12D-16  6  3  1776.46   109.54

 Norm of t1 vector:      0.03268867      S-energy:     0.00000000      T1 diagnostic:  0.00817217
                                                                       D1 diagnostic:  0.01311241

 Adding energy correction from Wij-K(Fij), methodcc=6  factor= 1.0

  CCSD correlation energy              -0.229304776385
  MP2-F12 correction (uncoupled)       -0.003881297061
  C*T doubles correction               -0.000068262673
  f12b correction                       0.001099367674

 Total CPU time for triples:    456.50 sec

  Ecorr(MP2)                           -0.214705799017
  Ecorr(MP2-F12)                       -0.218683113218
  Scale factor for triples energy       1.018524484292


 RESULTS
 =======

  Reference energy                    -40.216666941271
  F12 singles correction               -0.000040754490

 F12 singles corrections added to reference energy

  New reference energy                -40.216707695760

  F12a singlet correction              -0.003778566235
  F12a triplet correction              -0.000170993498
  F12a total correction                -0.003949559733

 F12a corrections for ansatz F12/3C(FIX) added to CCSD energy

  CCSD-F12a singlet pair energy        -0.178095758222
  CCSD-F12a triplet pair energy        -0.055158577897
  CCSD-F12a correlation energy         -0.233254336118

  Triples (T) contribution (scaled)    -0.007109428249
  Total correlation energy             -0.240363764368

  CCSD-F12a total energy              -40.449962031879
  CCSD[T]-F12a energy                 -40.457307069747
  CCSD-T-F12a energy                  -40.457003620246
 !CCSD(T)-F12a total energy           -40.457071460128

 F12b corrections for ansatz F12/3C(FIX) added to CCSD(T)-F12a energy

  CCSD-F12b singlet pair energy        -0.177025485824
  CCSD-F12b triplet pair energy        -0.055129482621
  CCSD-F12b correlation energy         -0.232154968444

  Triples (T) contribution (scaled)    -0.007109428249
  Total correlation energy             -0.239264396694

  CCSD-F12b total energy              -40.448862664204
  CCSD[T]-F12b energy                 -40.456207702073
  CCSD-T-F12b energy                  -40.455904252572
 !CCSD(T)-F12b total energy           -40.455972092454

 Timing summary (sec):

 STEP                 CPU(USER)    SYS     CPU(TOT)    WALL
 Transformation        392.96     26.45    419.41    421.19
 CCSD iterations      1347.65    179.75   1527.40   1533.85
 Triples               456.50      6.71    463.21    465.11
 MP2-F12                36.01      1.64     37.65     37.87
 F12b energy            96.15     13.43    109.58    110.01

 Program statistics:

 Available memory in ccsd:              3999999866
 Min. memory needed in ccsd:              19260852
 Max. memory used in ccsd:                22423154
 Max. memory used in cckext:              14628952 (15 integral passes)



 **********************************************************************************************************************************
 DATASETS  * FILE   NREC   LENGTH (MB)   RECORD NAMES
              1      19     6330.34       500      610      700      900      950      970     1000      129      960     1100   
                                          VAR    BASINP    GEOM    SYMINP    ZMAT    AOBASIS   BASIS     P2S    ABASIS      S 
                                         1400     1410     1200     1210     1080     1600     1650     1700     1380   
                                           T        V       H0       H01     AOSYM     SMH    MOLCAS    OPER     JKOP   

              2       9       62.49       700     1000      520     2100     7360     7350      200     2101     2102   
                                         GEOM     BASIS   MCVARS     RHF    F12ABS    EF12    OPTIONS    RHF      RHF  

 PROGRAMS   *        TOTAL   CCSD(T)    HF-SCF       INT   CCSD(T)    HF-SCF       INT   CCSD(T)    HF-SCF       INT
 CPU TIMES  *     15691.96   2329.58    967.72      0.68   2471.84   1053.70      0.59   6718.09   1061.45   1088.13
 REAL TIME  *     17281.61 SEC
 DISK USED  *        14.29 GB (local),      547.78 GB (total)
 SF USED    *        17.68 GB
 GA USED    *         4.87 MB       (max)       0.00 MB       (current)
 **********************************************************************************************************************************
 Molecular orbitals read from record     2102.2  Type=RHF/CANONICAL (state 1.1)
 Occupation numbers read from record     2102.2  Type=RHF/RHF (state 1.1)
 Orbital energies read from record       2102.2  Type=RHF/CANONICAL (state 1.1)
 Redundancy group numbers read from rec  2102.2  Type=RHF/RHF (state 1.1)

 CCSD(T)-F12/aug-cc-pV5Z energy=    -40.455972092454

     CCSD(T)-F12          HF-SCF     CCSD(T)-F12          HF-SCF     CCSD(T)-F12          HF-SCF
    -40.45597209    -40.21666694    -76.37334901    -76.06450002   -116.82997299   -116.28063772
 **********************************************************************************************************************************
 Molpro calculation terminated
