
 Primary working directories    : /scratch.ssd/kelum/job_380611.cerit-pbs.cerit-sc.cz/molpro.9A6ELbfVjv
 Secondary working directories  : /scratch.ssd/kelum/job_380611.cerit-pbs.cerit-sc.cz/molpro.9A6ELbfVjv
 Wavefunction directory         : /scratch.ssd/kelum/job_380611.cerit-pbs.cerit-sc.cz/
 Main file repository           : /scratch.ssd/kelum/job_380611.cerit-pbs.cerit-sc.cz/molpro.9A6ELbfVjv/

 id        : karlovklimes

 Nodes             nprocs
 elan12.cerit-sc.cz    4

 Using customized tuning parameters: mindgm=1; mindgv=20; mindgc=4; mindgr=1; noblas=0; minvec=7
 default implementation of scratch files=sf  


 Variables initialized (934), CPU time= 0.01 sec
                                                                                 !gdirect
 memory,4000,m
 gthresh,orbital=1d-10,energy=1d-10
 
 symmetry,nosym
 angstrom
 geometry={
 O13        -4.053700000000      0.094100000000      4.862800000000
 H25        -3.635600000000      1.001800000000      4.895500000000
 H26        -4.213700000000     -0.141300000000      5.785400000000
 C1        -3.277200000000      1.482500000000      1.271900000000
 H41        -2.464000000000      0.899600000000      1.651000000000
 H42        -3.160800000000      2.501000000000      1.578500000000
 H43        -4.201800000000      1.099200000000      1.650100000000
 H44        -3.268500000000      1.421000000000      0.203700000000
 }
 
 nkerna=1
 nkernb=1
 
 gf=0
 sing=1
 thrdum=1d-4
 gridthr=1d-8
 
 basis={
 set,orbital
 default,av5z
 set,jkfit
 default,av5z/jkfit
 set,mp2fit
 default,av5z/mp2fit
 set,ri
 default,av5z/optri
 set,tddft
 default,av5z/mp2fit
 }
 
 proc set_monomer1
 dummy,4,5,6,7,8
 endproc
 
 proc set_monomer2
 dummy,1,2,3
 endproc
 
                                                                                 !12 energy
 {hf,accu=1.d-16}
 {ccsd(t)-f12,df_basis=mp2fit,df_basis_exch=jkfit,ri_basis=ri,scale_trip=1,THRAOF12=1d-10}
 
 set_monomer1
 {hf,accu=1.d-16}
 {ccsd(t)-f12,df_basis=mp2fit,df_basis_exch=jkfit,ri_basis=ri,scale_trip=1,THRAOF12=1d-10}
 
 set_monomer2
 {hf,accu=1.d-16}
 {ccsd(t)-f12,df_basis=mp2fit,df_basis_exch=jkfit,ri_basis=ri,scale_trip=1,THRAOF12=1d-10}
 
 Commands  initialized (763), CPU time= 0.02 sec, 617 directives.
 Default parameters read. Elapsed time= 0.17 sec

 Checking input...
 Passed
1


                                         ***  PROGRAM SYSTEM MOLPRO  ***
                                       Copyright, TTI GmbH Stuttgart, 2015
                                    Version 2019.2 linked Jun  8 2019 11:26:33


 **********************************************************************************************************************************
 LABEL *                                                                                 
  64 bit mpp version                                                                     DATE: 24-Mar-20          TIME: 16:17:41  
 **********************************************************************************************************************************

 SHA1:             8135a10abc80eafa5b3ae28ffc55be4890dc4c84
 **********************************************************************************************************************************

 THRESHOLDS:

 ZERO    =  1.00D-12  ONEINT  =  1.00D-12  TWOINT  =  1.00D-11  PREFAC  =  1.00D-14  XXXXXX  =  1.00D-09  EORDER  =  1.00D-04
 ENERGY  =  1.00D-10  ETEST   =  0.00D+00  EDENS   =  0.00D+00  THRDEDEF=  1.00D-06  GRADIENT=  1.00D-02  STEP    =  1.00D-03
 ORBITAL =  1.00D-10  CIVEC   =  1.00D-05  COEFF   =  1.00D-04  PRINTCI =  5.00D-02  PUNCHCI =  9.90D+01  OPTGRAD =  3.00D-04
 OPTENERG=  1.00D-06  OPTSTEP =  3.00D-04  THRGRAD =  1.00D-10  COMPRESS=  1.00D-11  VARMIN  =  1.00D-07  VARMAX  =  1.00D-03
 THRDOUB =  0.00D+00  THRDIV  =  1.00D-05  THRRED  =  1.00D-07  THRPSP  =  1.00D+00  THRDC   =  1.00D-10  THRCS   =  1.00D-10
 THRNRM  =  1.00D-08  THREQ   =  0.00D+00  THRDE   =  1.00D+00  THRREF  =  1.00D-05  SPARFAC =  1.00D+00  THRDLP  =  1.00D-07
 THRDIA  =  1.00D-10  THRDLS  =  1.00D-07  THRGPS  =  0.00D+00  THRKEX  =  0.00D+00  THRDIS  =  2.00D-01  THRVAR  =  1.00D-10
 THRLOC  =  1.00D-06  THRGAP  =  1.00D-06  THRLOCT = -1.00D+00  THRGAPT = -1.00D+00  THRORB  =  1.00D-06  THRMLTP =  0.00D+00
 THRCPQCI=  1.00D-10  KEXTA   =  0.00D+00  THRCOARS=  0.00D+00  SYMTOL  =  1.00D-06  GRADTOL =  1.00D-06  THROVL  =  1.00D-08
 THRORTH =  1.00D-08  GRID    =  1.00D-06  GRIDMAX =  1.00D-03  DTMAX   =  0.00D+00  THROCCDE=  1.00D-01  THROCCDE=  1.00D-01
 THRPRINT=  2.50D-01


 Variable memory set to 4000000000 words,  buffer space 

 ZSYMEL=NOSYM
 ZUNIT=ANG


Geometry recognized as XYZ

 SETTING NKERNA         =         1.00000000                                  
 SETTING NKERNB         =         1.00000000                                  
 SETTING GF             =     0.00000000D+00                                  
 SETTING SING           =         1.00000000                                  
 SETTING THRDUM         =     1.00000000D-04                                  
 SETTING GRIDTHR        =     1.00000000D-08                                  
 SETTING BASIS          =    AV5Z


 Recomputing integrals since basis changed


 Using spherical harmonics

 Library entry O      S aug-cc-pV5Z          selected for orbital group  1
 Library entry O      P aug-cc-pV5Z          selected for orbital group  1
 Library entry O      D aug-cc-pV5Z          selected for orbital group  1
 Library entry O      F aug-cc-pV5Z          selected for orbital group  1
 Library entry O      G aug-cc-pV5Z          selected for orbital group  1
 Library entry O      H aug-cc-pV5Z          selected for orbital group  1
 Library entry H      S aug-cc-pV5Z          selected for orbital group  2
 Library entry H      P aug-cc-pV5Z          selected for orbital group  2
 Library entry H      D aug-cc-pV5Z          selected for orbital group  2
 Library entry H      F aug-cc-pV5Z          selected for orbital group  2
 Library entry H      G aug-cc-pV5Z          selected for orbital group  2
 Library entry C      S aug-cc-pV5Z          selected for orbital group  3
 Library entry C      P aug-cc-pV5Z          selected for orbital group  3
 Library entry C      D aug-cc-pV5Z          selected for orbital group  3
 Library entry C      F aug-cc-pV5Z          selected for orbital group  3
 Library entry C      G aug-cc-pV5Z          selected for orbital group  3
 Library entry C      H aug-cc-pV5Z          selected for orbital group  3


 PROGRAM * SEWARD (Integral evaluation for generally contracted gaussian basis sets)     Author: Roland Lindh, 1990

 Geometry written to block  1 of record 700


 Point group  C1  



 ATOMIC COORDINATES

 NR  ATOM    CHARGE       X              Y              Z

   1  O13     8.00   -7.660382791    0.177823228    9.189360199
   2  H25     1.00   -6.870288298    1.893127632    9.251154243
   3  H26     1.00   -7.962738971   -0.267018301   10.932821521
   4  C1      6.00   -6.193010455    2.801518980    2.403542658
   5  H41     1.00   -4.656285171    1.699997622    3.119937832
   6  H42     1.00   -5.973046335    4.726205038    2.982932688
   7  H43     1.00   -7.940251230    2.077186956    3.118237078
   8  H44     1.00   -6.176569838    2.685300823    0.384937212

 Bond lengths in Bohr (Angstrom)

 1-2  1.889533542  1-3  1.824543951  4-5  2.021904040  4-6  2.022002335  4-7  2.021953343
     ( 0.999898090)     ( 0.965507079)     ( 1.069945541)     ( 1.069997556)     ( 1.069971630)

 4-8  2.022015060
     ( 1.070004290)

 Bond angles

  2-1-3  105.03277623   5-4-6  109.53398059   5-4-7  109.65604535   5-4-8  108.43490854

  6-4-7  109.49436728   6-4-8  109.86987750   7-4-8  109.83468330

 NUCLEAR CHARGE:                   20
 NUMBER OF PRIMITIVE AOS:        1046
 NUMBER OF SYMMETRY AOS:          786
 NUMBER OF CONTRACTIONS:          734   (  734A   )
 NUMBER OF CORE ORBITALS:           2   (    2A   )
 NUMBER OF VALENCE ORBITALS:       14   (   14A   )


 NUCLEAR REPULSION ENERGY   35.91495842


 Basis set:  JKFIT                   
 Basis size:  1104
 Attributes:
 Sphericals:   T
 Basis set:  MP2FIT                  
 Basis size:  1246
 Attributes:
 Sphericals:   T
 Basis set:  RI                      
 Basis size:   730
 Attributes:
 Sphericals:   T
 Basis set:  TDDFT                   
 Basis size:  1246
 Attributes:
 Sphericals:   T

 **********************************************************************************************************************************


 Eigenvalues of metric

         1 0.163E-05 0.189E-05 0.352E-05 0.500E-05 0.545E-05 0.801E-05 0.819E-05 0.873E-05


 Contracted 2-electron integrals neglected if value below      1.0D-14
 AO integral compression algorithm  1   Integral accuracy      1.0D-14

     139005.002 MB (compressed) written to integral file ( 44.0%)

     Node minimum: 33762.312 MB, node maximum: 35743.859 MB


 NUMBER OF SORTED TWO-ELECTRON INTEGRALS: 9095363064.     BUFFER LENGTH:  32768
 NUMBER OF SEGMENTS: 190  SEGMENT LENGTH:   47999780      RECORD LENGTH: 131072

 Memory used in sort:      48.16 MW

 SORT1 READ 39467646309. AND WROTE  6442242601. INTEGRALS IN  73824 RECORDS. CPU TIME:   937.66 SEC, REAL TIME:  1052.60 SEC
 SORT2 READ 25767805089. AND WROTE 36381317385. INTEGRALS IN 539148 RECORDS. CPU TIME:   125.10 SEC, REAL TIME:   637.29 SEC

 Node minimum:  9095228192.  Node maximum:  9095430501. integrals

 OPERATOR DM      FOR CENTER  0  COORDINATES:    0.000000    0.000000    0.000000


 **********************************************************************************************************************************
 DATASETS  * FILE   NREC   LENGTH (MB)   RECORD NAMES
              1      18       49.80       500      610      700      900      950      970     1000      129      960     1100   
                                          VAR    BASINP    GEOM    SYMINP    ZMAT    AOBASIS   BASIS     P2S    ABASIS      S 
                                         1400     1410     1200     1210     1080     1600     1650     1700   
                                           T        V       H0       H01     AOSYM     SMH    MOLCAS    OPER   

 PROGRAMS   *        TOTAL       INT
 CPU TIMES  *      1710.14   1709.92
 REAL TIME  *      2377.91 SEC
 DISK USED  *        50.44 MB (local),      448.06 GB (total)
 GA USED    *         0.00 MB       (max)       0.00 MB       (current)
 **********************************************************************************************************************************


 PROGRAM * RHF-SCF (CLOSED SHELL)       Authors: W. Meyer, H.-J. Werner


 NUMBER OF ELECTRONS:      10+   10-    SPACE SYMMETRY=1    SPIN SYMMETRY: Singlet 
 CONVERGENCE THRESHOLDS:    1.00E-08 (Density)    1.00E-11 (Energy)
 MAX. NUMBER OF ITERATIONS:       60
 INTERPOLATION TYPE:            DIIS
 INTERPOLATION STEPS:              2 (START)      1 (STEP)
 LEVEL SHIFTS:                  0.00 (CLOSED)  0.00 (OPEN) 



 Orbital guess generated from atomic densities. Full valence occupancy:   16

 Molecular orbital dump at record        2100.2

 Initial occupancy:  10

 ITERATION    DDIFF          GRAD             ENERGY        2-EL.EN.            DIPOLE MOMENTS         DIIS   ORB.
    1      0.000D+00      0.000D+00      -116.22177941    157.584866    0.25818    0.65632    0.91822    0    start
    2      0.000D+00      0.292D-02      -116.26591510    152.523697    0.12481    0.33158    0.54627    1    diag
    3      0.163D-02      0.172D-02      -116.27977923    154.623215    0.15713    0.41279    0.64325    2    diag
    4      0.557D-03      0.254D-03      -116.28044109    154.509821    0.15377    0.40499    0.63542    3    diag
    5      0.122D-03      0.750D-04      -116.28051135    154.504733    0.15304    0.40389    0.63569    4    diag
    6      0.499D-04      0.182D-04      -116.28051533    154.510341    0.15269    0.40313    0.63521    5    diag
    7      0.184D-04      0.375D-05      -116.28051558    154.508648    0.15265    0.40307    0.63526    6    diag
    8      0.579D-05      0.976D-06      -116.28051560    154.508830    0.15261    0.40300    0.63523    7    diag
    9      0.139D-05      0.226D-06      -116.28051560    154.508803    0.15260    0.40298    0.63521    8    diag
   10      0.292D-06      0.265D-07      -116.28051560    154.508804    0.15260    0.40298    0.63521    9    orth
   11      0.645D-07      0.614D-08      -116.28051560    154.508805    0.15260    0.40298    0.63521    9    diag
   12      0.488D-08      0.156D-08      -116.28051560    154.508805    0.15260    0.40298    0.63521    0    orth

 Final occupancy:  10

 !RHF STATE  1.1 Energy              -116.280515599077
 Nuclear energy                        35.91495842
 One-electron energy                 -229.44987653
 Two-electron energy                   77.25440251
 Virial quotient                       -1.00078385
 !RHF STATE  1.1 Dipole moment          0.15260305     0.40298066     0.63521198
 Dipole moment /Debye                   0.38785285     1.02420759     1.61444206

 Orbital energies:

         1.1          2.1          3.1          4.1          5.1          6.1          7.1          8.1          9.1         10.1
    -20.567975   -11.190716    -1.339707    -0.945531    -0.705044    -0.579148    -0.547248    -0.544340    -0.542560    -0.508266

        11.1         12.1
      0.020513     0.030917


 HOMO     10.1    -0.508266 =     -13.8306eV
 LUMO     11.1     0.020513 =       0.5582eV
 LUMO-HOMO         0.528780 =      14.3888eV


 **********************************************************************************************************************************
 DATASETS  * FILE   NREC   LENGTH (MB)   RECORD NAMES
              1      18       49.80       500      610      700      900      950      970     1000      129      960     1100   
                                          VAR    BASINP    GEOM    SYMINP    ZMAT    AOBASIS   BASIS     P2S    ABASIS      S 
                                         1400     1410     1200     1210     1080     1600     1650     1700   
                                           T        V       H0       H01     AOSYM     SMH    MOLCAS    OPER   

              2       4       13.79       700     1000      520     2100   
                                         GEOM     BASIS   MCVARS     RHF  

 PROGRAMS   *        TOTAL    HF-SCF       INT
 CPU TIMES  *      3343.89   1633.75   1709.92
 REAL TIME  *      4176.77 SEC
 DISK USED  *       102.61 MB (local),      448.27 GB (total)
 SF USED    *         2.16 MB
 GA USED    *         0.00 MB       (max)       0.00 MB       (current)
 **********************************************************************************************************************************

 Basis set:  JKFIT                   
 Basis size:  1104
 Attributes:
 Sphericals:   T
 Basis set:  MP2FIT                  
 Basis size:  1246
 Attributes:
 Sphericals:   T
 Basis set:  RI                      
 Basis size:   730
 Attributes:
 Sphericals:   T
 Basis set:  TDDFT                   
 Basis size:  1246
 Attributes:
 Sphericals:   T

 PROGRAM * CCSD (Closed-shell coupled cluster)     Authors: C. Hampel, H.-J. Werner, 1991, M. Deegan, P.J. Knowles, 1992

                                  CCSD-F12 implementation by  H.-J. Werner, 2007

                   Density fitting integral evaluation by F.R. Manby, 2003,2007, G. Knizia, 2010



 Convergence thresholds:  THRVAR = 1.00D-08  THRDEN = 1.00D-10

 CCSD(T)     terms to be evaluated (factor= 1.000)


 Number of core orbitals:           2 (   2 )
 Number of closed-shell orbitals:   8 (   8 )
 Number of external orbitals:     724 ( 724 )

 Molecular orbitals read from record     2100.2  Type=RHF/CANONICAL (state 1.1)

 MP2-F12 correlation treatment (H.-J. Werner, 2006)
 ==================================================

 Using MP2-F12 with ansatz 3C(FIX)

 Using projected zeroth-order Hamiltonian (+Z)

 FOCKRIB=T FOCKRIC=T FOCKRIP=T CABSP=T CABSA=T CABSK=T CABSF=T GBC=F EBC=F DMAT=T NOFIK=T NOPAO=1 SOLVE=-1  USEPAO=0
 EXCH_A= T EXCH_B= F EXCH_C= F EXCH_P= F

 Geminal basis:    OPTFULL  GEM_TYPE=SLATER  BETA=1.0  NGEM=6

 Optimizing Gaussian exponents for each gem_beta

 Geminal optimization for beta= 1.0000
 Weight function:   m=0, omega= 1.4646

 Augmented Hessian optimization of geminal fit. Trust ratio= 0.40000
 Convergence reached after   2 iterations. Final gradient= 8.53D-16, Step= 4.26D-06, Delta= 1.28D-09

 Alpha:                 0.19532     0.81920     2.85917     9.50073    35.69989   197.79328
 Coeff:                 0.27070     0.30552     0.18297     0.10986     0.06810     0.04224


 All pairs explicitly correlated. Number of r12-pairs:           36

 Excluding core orbitals from MO domains

 AO(A)-basis ORBITAL           loaded. Number of functions:     734
 RI(R)-basis RI                loaded. Number of functions:     730
 DF-basis JKFIT                loaded. Number of functions:    1104

 Screening thresholds:   THRAO=  1.00D-10  THRMO=  1.00D-09  THRPROD=  1.00D-09
                         THRSW=  1.00D-05  THROV=  1.00D-12  THRAOF12= 1.00D-10

 CPU time for Fock operators                      9.74 sec

 Construction of ABS:
 Smallest eigenvalue of S          2.27E-04  (threshold= 1.00E-08)
 Ratio eigmin/eigmax               3.94E-05  (threshold= 1.00E-09)
 Smallest eigenvalue of S kept     2.27E-04  (threshold= 2.27E-04, 0 functions deleted, 730 kept)

 Construction of CABS:
 Smallest eigenvalue of S          9.83E-09  (threshold= 1.00E-08)
 Ratio eigmin/eigmax               9.83E-09  (threshold= 1.00E-09)
 Smallest eigenvalue of S kept     8.18E-08  (threshold= 8.18E-08, 1 functions deleted, 729 kept)

 CPU time for CABS singles                        1.19 sec

 CABS-singles contribution of  -0.00007929 patched into reference energy.
 New reference energy        -116.28059489

 AO(A)-basis ORBITAL           loaded. Number of functions:     734
 RI(R)-basis RI                loaded. Number of functions:     730
 DF-basis MP2FIT               loaded. Number of functions:    1246

 Screening thresholds:   THRAO=  1.00D-10  THRMO=  1.00D-09  THRPROD=  1.00D-09
                         THRSW=  1.00D-05  THROV=  1.00D-12  THRAOF12= 1.00D-10

 CPU time for 3-index integral evaluation        28.10 sec
 CPU time for first  half transformation          3.21 sec ( 9202.3 MFLOP/sec)
 CPU time for second half transformation          0.10 sec ( 2300.6 MFLOP/sec)
 CPU time for sorting                             0.34 sec
 CPU time for fitting                             0.36 sec (25771.8 MFLOP/sec)
 CPU time for tilde quantities                    0.53 sec (25988.5 MFLOP/sec)
 CPU time for assembly                            4.61 sec (27627.7 MFLOP/sec)
 CPU time for tranop_f12                          6.01 sec (27750.0 MFLOP/sec)
 CPU time for f12 integrals (total)              51.23 sec, Elapsed time:     55.82 sec
 F12-matrices built in  4 passes.
 F12-matrices built in  4 passes.
 F12-matrices built in  4 passes.
 F12-matrices built in  4 passes.
 FC-matrix built in  4 passes.
 CPU time for f12 matrices (total)                4.61 sec, Elapsed time:      4.83 sec

 Diagonal F12 approximation with fixed coefficients:  TSING= 0.500,  TTRIP= 0.250 (scaled by -1/beta)

 DF-MP2-F12 energy corrections:
 ==============================
 Approx.                                    Singlet             Triplet             Total
 DF-MP2-F12/3*C(DX,FIX)                -0.011205891636     -0.000787158423     -0.011993050059
 DF-MP2-F12/3*C(FIX)                   -0.010397189316     -0.000516254122     -0.010913443438
 DF-MP2-F12/3C(FIX)                    -0.010511306499     -0.000531690824     -0.011042997323

 DF-MP2-F12 correlation energies:
 ================================
 Approx.                                    Singlet             Triplet             Ecorr            Total Energy
 DF-MP2                                -0.350410003416     -0.159646014229     -0.510056017645   -116.790650906294
 DF-MP2-F12/3*C(DX,FIX)                -0.361615895051     -0.160433172652     -0.522049067704   -116.802643956353
 DF-MP2-F12/3*C(FIX)                   -0.360807192732     -0.160162268351     -0.520969461082   -116.801564349732
 DF-MP2-F12/3C(FIX)                    -0.360921309914     -0.160177705053     -0.521099014967   -116.801693903616

 SCS-DF-MP2 energies (F_SING= 1.20000  F_TRIP= 0.62222  F_PARALLEL= 0.33333):
 ============================================================================
 SCS-DF-MP2                            -0.519827301841   -116.800422190490
 SCS-DF-MP2-F12/3*C(DX,FIX)            -0.533764159268   -116.814359047917
 SCS-DF-MP2-F12/3*C(FIX)               -0.532625153807   -116.813220042456
 SCS-DF-MP2-F12/3C(FIX)                -0.532771699485   -116.813366588135
 Symmetry transformation completed.

 Number of N-1 electron functions:               8
 Number of N-2 electron functions:              36
 Number of singly external CSFs:              5792
 Number of doubly external CSFs:          16776528
 Total number of CSFs:                    16782321

 Pair and operator lists are different

 Length of J-op  integral file:               1.47 GB
 Length of K-op  integral file:               2.18 GB
 Length of 3-ext integral record:             0.00 MB

 For full I/O caching in triples, increase memory by 34.16 Mwords to 4034.21 Mwords.

 Integral transformation finished. Total CPU:1054.57 sec, npass=  1  Memory used:1826.21 MW

 Reference energy:                   -116.28059489

 Adding F12 terms to K(Cij), methodcc=6,  factor= 1.0

 ITER.      SQ.NORM     CORR.ENERGY   TOTAL ENERGY   ENERGY CHANGE        DEN1      VAR(S)    VAR(P)  DIIS     TIME  TIME/IT
   1      1.13451032    -0.52197804  -116.80257293    -0.01190916     0.00006908  0.14D-02  0.20D-02  1  1  1405.31   292.16
   2      1.14280160    -0.52302539  -116.80362028    -0.00104736    -0.01024975  0.33D-04  0.25D-03  2  2  1686.68   295.00
   3      1.14605897    -0.52319347  -116.80378836    -0.00016808    -0.00235986  0.11D-04  0.14D-04  3  3  1967.70   295.77
   4      1.14702745    -0.52319929  -116.80379417    -0.00000581    -0.00053428  0.69D-06  0.13D-05  4  4  2249.69   296.37
   5      1.14719693    -0.52320117  -116.80379606    -0.00000188    -0.00004221  0.20D-06  0.94D-07  5  5  2533.90   297.22
   6      1.14724305    -0.52319842  -116.80379330     0.00000275    -0.00000816  0.23D-07  0.81D-08  6  6  2815.65   297.29
   7      1.14725401    -0.52319720  -116.80379209     0.00000122    -0.00000270  0.23D-08  0.99D-09  6  2  3095.94   297.15
   8      1.14725685    -0.52319697  -116.80379186     0.00000023    -0.00000036  0.31D-09  0.98D-10  6  1  3378.09   297.24
   9      1.14725772    -0.52319693  -116.80379182     0.00000004    -0.00000003  0.25D-10  0.16D-10  6  3  3658.89   297.25
  10      1.14725784    -0.52319694  -116.80379183    -0.00000001     0.00000010  0.26D-11  0.18D-11  6  4  3941.28   297.45
  11      1.14725781    -0.52319694  -116.80379183    -0.00000001     0.00000008  0.38D-12  0.24D-12  6  5  4221.77   297.40
  12      1.14725779    -0.52319695  -116.80379183    -0.00000000     0.00000002  0.79D-13  0.31D-13  6  6  4502.36   297.37
  13      1.14725777    -0.52319695  -116.80379184    -0.00000000     0.00000001  0.16D-13  0.42D-14  6  2  4778.40   296.88
  14      1.14725776    -0.52319695  -116.80379184    -0.00000000     0.00000000  0.25D-14  0.90D-15  6  1  5054.65   296.57
  15      1.14725776    -0.52319695  -116.80379184    -0.00000000     0.00000000  0.30D-15  0.14D-15  6  3  5332.02   296.37
  16      1.14725776    -0.52319695  -116.80379184    -0.00000000    -0.00000000  0.40D-16  0.22D-16  6  4  5608.69   296.15
  17      1.14725776    -0.52319695  -116.80379184    -0.00000000    -0.00000000  0.95D-17  0.50D-17  6  5  5887.54   296.08

 Norm of t1 vector:      0.04973071      S-energy:    -0.00000000      T1 diagnostic:  0.00879123
                                                                       D1 diagnostic:  0.01911636

 Adding energy correction from Wij-K(Fij), methodcc=6  factor= 1.0

  CCSD correlation energy              -0.523196947187
  MP2-F12 correction (uncoupled)       -0.010857906929
  C*T doubles correction               -0.000163533056
  f12b correction                       0.002688041725

   CPU time for triples:   2176.15 sec for i =  1 -  6 /  8 (~  44.6 % done)
   CPU time for triples:   2122.64 sec for i =  7 -  8 /  8 (  100.0 % done)

 Total CPU time for triples:   4355.15 sec

  Ecorr(MP2)                           -0.510068878107
  Ecorr(MP2-F12)                       -0.521111875430
  Scale factor for triples energy       1.021650011982


 RESULTS
 =======

  Reference energy                   -116.280515599084
  F12 singles correction               -0.000079289565

 F12 singles corrections added to reference energy

  New reference energy               -116.280594888649

  F12a singlet correction              -0.010449144635
  F12a triplet correction              -0.000572295350
  F12a total correction                -0.011021439985

 F12a corrections for ansatz F12/3C(FIX) added to CCSD energy

  CCSD-F12a singlet pair energy        -0.387820267656
  CCSD-F12a triplet pair energy        -0.146398119291
  CCSD-F12a correlation energy         -0.534218387173

  Triples (T) contribution (scaled)    -0.017299285848
  Total correlation energy             -0.551517673021

  CCSD-F12a total energy             -116.814813275822
  CCSD[T]-F12a energy                -116.832672524134
  CCSD-T-F12a energy                 -116.831902025537
 !CCSD(T)-F12a total energy          -116.832112561670

 F12b corrections for ansatz F12/3C(FIX) added to CCSD(T)-F12a energy

  CCSD-F12b singlet pair energy        -0.385225026984
  CCSD-F12b triplet pair energy        -0.146305318239
  CCSD-F12b correlation energy         -0.531530345447

  Triples (T) contribution (scaled)    -0.017299285848
  Total correlation energy             -0.548829631295

  CCSD-F12b total energy             -116.812125234097
  CCSD[T]-F12b energy                -116.829984482409
  CCSD-T-F12b energy                 -116.829213983811
 !CCSD(T)-F12b total energy          -116.829424519945

 Timing summary (sec):

 STEP                 CPU(USER)    SYS     CPU(TOT)    WALL
 Transformation       1056.20     49.45   1105.65   1114.06
 CCSD iterations      4760.66    256.85   5017.51   5033.96
 Triples              4355.15     29.39   4384.54   4386.59
 MP2-F12                70.91      5.10     76.01     76.95
 F12b energy           253.55     12.20    265.75    266.57

 Program statistics:

 Available memory in ccsd:              3999999554
 Min. memory needed in ccsd:              48689265
 Max. memory used in ccsd:                63255345
 Max. memory used in cckext:              42753482 (18 integral passes)



 **********************************************************************************************************************************
 DATASETS  * FILE   NREC   LENGTH (MB)   RECORD NAMES
              1      19    12452.16       500      610      700      900      950      970     1000      129      960     1100   
                                          VAR    BASINP    GEOM    SYMINP    ZMAT    AOBASIS   BASIS     P2S    ABASIS      S 
                                         1400     1410     1200     1210     1080     1600     1650     1700     1380   
                                           T        V       H0       H01     AOSYM     SMH    MOLCAS    OPER     JKOP   

              2       6       24.60       700     1000      520     2100     7360     7350   
                                         GEOM     BASIS   MCVARS     RHF    F12ABS    EF12   

 PROGRAMS   *        TOTAL   CCSD(T)    HF-SCF       INT
 CPU TIMES  *     13840.53  10496.63   1633.75   1709.92
 REAL TIME  *     15057.38 SEC
 DISK USED  *        14.29 GB (local),      499.58 GB (total)
 SF USED    *        17.68 GB
 GA USED    *         4.87 MB       (max)       0.00 MB       (current)
 **********************************************************************************************************************************

 Running procedure: SET_MONOMER1

 Dummy atoms: C1  H41  H42  H43  H44


 Recomputing one-electron integrals since nuclear charges changed


 PROGRAM * SEWARD (Integral evaluation for generally contracted gaussian basis sets)     Author: Roland Lindh, 1990

 Geometry written to block  1 of record 700


 Point group  C1  



 ATOMIC COORDINATES

 NR  ATOM    CHARGE       X              Y              Z

   1  O13     8.00   -7.660382791    0.177823228    9.189360199
   2  H25     1.00   -6.870288298    1.893127632    9.251154243
   3  H26     1.00   -7.962738971   -0.267018301   10.932821521
   4  C1      0.00   -6.193010455    2.801518980    2.403542658
   5  H41     0.00   -4.656285171    1.699997622    3.119937832
   6  H42     0.00   -5.973046335    4.726205038    2.982932688
   7  H43     0.00   -7.940251230    2.077186956    3.118237078
   8  H44     0.00   -6.176569838    2.685300823    0.384937212

 Bond lengths in Bohr (Angstrom)

 1-2  1.889533542  1-3  1.824543951  4-5  2.021904040  4-6  2.022002335  4-7  2.021953343
     ( 0.999898090)     ( 0.965507079)     ( 1.069945541)     ( 1.069997556)     ( 1.069971630)

 4-8  2.022015060
     ( 1.070004290)

 Bond angles

  2-1-3  105.03277623   5-4-6  109.53398059   5-4-7  109.65604535   5-4-8  108.43490854

  6-4-7  109.49436728   6-4-8  109.86987750   7-4-8  109.83468330

 NUCLEAR CHARGE:                   10
 NUMBER OF PRIMITIVE AOS:        1046
 NUMBER OF SYMMETRY AOS:          786
 NUMBER OF CONTRACTIONS:          734   (  734A   )
 NUMBER OF CORE ORBITALS:           1   (    1A   )
 NUMBER OF VALENCE ORBITALS:        6   (    6A   )

 MOLECULE CHANGED: INITIALIZING OCCUPATION AND DUMP RECORDS


 NUCLEAR REPULSION ENERGY    8.95777847

 Basis set:  JKFIT                   
 Basis size:  1104
 Attributes:
 Sphericals:   T
 Basis set:  MP2FIT                  
 Basis size:  1246
 Attributes:
 Sphericals:   T
 Basis set:  RI                      
 Basis size:   730
 Attributes:
 Sphericals:   T
 Basis set:  TDDFT                   
 Basis size:  1246
 Attributes:
 Sphericals:   T

 Eigenvalues of metric

         1 0.163E-05 0.189E-05 0.352E-05 0.500E-05 0.545E-05 0.801E-05 0.819E-05 0.873E-05


 Contracted 2-electron integrals neglected if value below      1.0D-14

 OPERATOR DM      FOR CENTER  0  COORDINATES:    0.000000    0.000000    0.000000


 **********************************************************************************************************************************
 DATASETS  * FILE   NREC   LENGTH (MB)   RECORD NAMES
              1      18       49.80       500      610      700      900      950      970     1000      129      960     1100   
                                          VAR    BASINP    GEOM    SYMINP    ZMAT    AOBASIS   BASIS     P2S    ABASIS      S 
                                         1400     1410     1200     1210     1080     1600     1650     1700   
                                           T        V       H0       H01     AOSYM     SMH    MOLCAS    OPER   

              2       7       24.63       700     1000      520     2100     7360     7350      200   
                                         GEOM     BASIS   MCVARS     RHF    F12ABS    EF12    OPTIONS    

 PROGRAMS   *        TOTAL       INT   CCSD(T)    HF-SCF       INT
 CPU TIMES  *     13840.93      0.40  10496.63   1633.75   1709.92
 REAL TIME  *     15059.84 SEC
 DISK USED  *        14.29 GB (local),      499.58 GB (total)
 SF USED    *        17.68 GB
 GA USED    *         4.87 MB       (max)       0.00 MB       (current)
 **********************************************************************************************************************************


 PROGRAM * RHF-SCF (CLOSED SHELL)       Authors: W. Meyer, H.-J. Werner


 NUMBER OF ELECTRONS:       5+    5-    SPACE SYMMETRY=1    SPIN SYMMETRY: Singlet 
 CONVERGENCE THRESHOLDS:    1.00E-08 (Density)    1.00E-11 (Energy)
 MAX. NUMBER OF ITERATIONS:       60
 INTERPOLATION TYPE:            DIIS
 INTERPOLATION STEPS:              2 (START)      1 (STEP)
 LEVEL SHIFTS:                  0.00 (CLOSED)  0.00 (OPEN) 



 Orbital guess generated from atomic densities. Full valence occupancy:    7

 Molecular orbital dump at record        2101.2

 Initial occupancy:   5

 ITERATION    DDIFF          GRAD             ENERGY        2-EL.EN.            DIPOLE MOMENTS         DIIS   ORB.
    1      0.000D+00      0.000D+00       -76.02492125     77.361649    0.25440    0.65997    0.91911    0    start
    2      0.000D+00      0.361D-02       -76.05179788     73.680938    0.14290    0.37316    0.53678    1    diag
    3      0.131D-02      0.231D-02       -76.06359085     75.320024    0.16997    0.44329    0.63374    2    diag
    4      0.495D-03      0.216D-03       -76.06379029     75.228169    0.16805    0.43879    0.63083    3    diag
    5      0.642D-04      0.614D-04       -76.06381250     75.242972    0.16730    0.43704    0.62981    4    diag
    6      0.208D-04      0.125D-04       -76.06381400     75.241835    0.16709    0.43656    0.62961    5    diag
    7      0.547D-05      0.257D-05       -76.06381408     75.241981    0.16703    0.43642    0.62954    6    diag
    8      0.147D-05      0.479D-06       -76.06381408     75.241968    0.16702    0.43639    0.62951    7    diag
    9      0.270D-06      0.664D-07       -76.06381408     75.241958    0.16702    0.43639    0.62951    8    diag
   10      0.379D-07      0.155D-07       -76.06381408     75.241961    0.16702    0.43639    0.62951    9    orth
   11      0.805D-08      0.359D-08       -76.06381408     75.241961    0.16702    0.43639    0.62951    0    orth

 Final occupancy:   5

 !RHF STATE  1.1 Energy               -76.063814081542
 Nuclear energy                         8.95777847
 One-electron energy                 -122.64257294
 Two-electron energy                   37.62098039
 Virial quotient                       -1.00210314
 !RHF STATE  1.1 Dipole moment          0.16701501     0.43638903     0.62950847
 Dipole moment /Debye                   0.42448200     1.10911764     1.59994614

 Orbital energies:

         1.1          2.1          3.1          4.1          5.1          6.1          7.1
    -20.568098    -1.339775    -0.705101    -0.578978    -0.508353     0.017846     0.028484


 HOMO      5.1    -0.508353 =     -13.8330eV
 LUMO      6.1     0.017846 =       0.4856eV
 LUMO-HOMO         0.526199 =      14.3186eV


 **********************************************************************************************************************************
 DATASETS  * FILE   NREC   LENGTH (MB)   RECORD NAMES
              1      18       49.80       500      610      700      900      950      970     1000      129      960     1100   
                                          VAR    BASINP    GEOM    SYMINP    ZMAT    AOBASIS   BASIS     P2S    ABASIS      S 
                                         1400     1410     1200     1210     1080     1600     1650     1700   
                                           T        V       H0       H01     AOSYM     SMH    MOLCAS    OPER   

              2       8       38.40       700     1000      520     2100     7360     7350      200     2101   
                                         GEOM     BASIS   MCVARS     RHF    F12ABS    EF12    OPTIONS    RHF  

 PROGRAMS   *        TOTAL    HF-SCF       INT   CCSD(T)    HF-SCF       INT
 CPU TIMES  *     15283.36   1442.43      0.40  10496.63   1633.75   1709.92
 REAL TIME  *     16645.87 SEC
 DISK USED  *        14.29 GB (local),      499.58 GB (total)
 SF USED    *        17.68 GB
 GA USED    *         4.87 MB       (max)       0.00 MB       (current)
 **********************************************************************************************************************************

 Basis set:  JKFIT                   
 Basis size:  1104
 Attributes:
 Sphericals:   T
 Basis set:  MP2FIT                  
 Basis size:  1246
 Attributes:
 Sphericals:   T
 Basis set:  RI                      
 Basis size:   730
 Attributes:
 Sphericals:   T
 Basis set:  TDDFT                   
 Basis size:  1246
 Attributes:
 Sphericals:   T

 PROGRAM * CCSD (Closed-shell coupled cluster)     Authors: C. Hampel, H.-J. Werner, 1991, M. Deegan, P.J. Knowles, 1992

                                  CCSD-F12 implementation by  H.-J. Werner, 2007

                   Density fitting integral evaluation by F.R. Manby, 2003,2007, G. Knizia, 2010



 Convergence thresholds:  THRVAR = 1.00D-08  THRDEN = 1.00D-10

 CCSD(T)     terms to be evaluated (factor= 1.000)


 Number of core orbitals:           1 (   1 )
 Number of closed-shell orbitals:   4 (   4 )
 Number of external orbitals:     729 ( 729 )

 Molecular orbitals read from record     2101.2  Type=RHF/CANONICAL (state 1.1)

 MP2-F12 correlation treatment (H.-J. Werner, 2006)
 ==================================================

 Using MP2-F12 with ansatz 3C(FIX)

 Using projected zeroth-order Hamiltonian (+Z)

 FOCKRIB=T FOCKRIC=T FOCKRIP=T CABSP=T CABSA=T CABSK=T CABSF=T GBC=F EBC=F DMAT=T NOFIK=T NOPAO=1 SOLVE=-1  USEPAO=0
 EXCH_A= T EXCH_B= F EXCH_C= F EXCH_P= F

 Geminal basis:    OPTFULL  GEM_TYPE=SLATER  BETA=1.0  NGEM=6

 Optimizing Gaussian exponents for each gem_beta

 Geminal optimization for beta= 1.0000
 Weight function:   m=0, omega= 1.4646

 Augmented Hessian optimization of geminal fit. Trust ratio= 0.40000
 Convergence reached after   2 iterations. Final gradient= 8.53D-16, Step= 4.26D-06, Delta= 1.28D-09

 Alpha:                 0.19532     0.81920     2.85917     9.50073    35.69989   197.79328
 Coeff:                 0.27070     0.30552     0.18297     0.10986     0.06810     0.04224


 All pairs explicitly correlated. Number of r12-pairs:           10

 Excluding core orbitals from MO domains

 AO(A)-basis ORBITAL           loaded. Number of functions:     734
 RI(R)-basis RI                loaded. Number of functions:     730
 DF-basis JKFIT                loaded. Number of functions:    1104

 Screening thresholds:   THRAO=  1.00D-10  THRMO=  1.00D-09  THRPROD=  1.00D-09
                         THRSW=  1.00D-05  THROV=  1.00D-12  THRAOF12= 1.00D-10

 CPU time for Fock operators                      9.02 sec

 Construction of ABS:
 Smallest eigenvalue of S          2.27E-04  (threshold= 1.00E-08)
 Ratio eigmin/eigmax               3.94E-05  (threshold= 1.00E-09)
 Smallest eigenvalue of S kept     2.27E-04  (threshold= 2.27E-04, 0 functions deleted, 730 kept)

 Construction of CABS:
 Smallest eigenvalue of S          9.83E-09  (threshold= 1.00E-08)
 Ratio eigmin/eigmax               9.83E-09  (threshold= 1.00E-09)
 Smallest eigenvalue of S kept     8.18E-08  (threshold= 8.18E-08, 1 functions deleted, 729 kept)

 CPU time for CABS singles                        1.17 sec

 CABS-singles contribution of  -0.00003849 patched into reference energy.
 New reference energy         -76.06385257

 AO(A)-basis ORBITAL           loaded. Number of functions:     734
 RI(R)-basis RI                loaded. Number of functions:     730
 DF-basis MP2FIT               loaded. Number of functions:    1246

 Screening thresholds:   THRAO=  1.00D-10  THRMO=  1.00D-09  THRPROD=  1.00D-09
                         THRSW=  1.00D-05  THROV=  1.00D-12  THRAOF12= 1.00D-10

 CPU time for 3-index integral evaluation        28.04 sec
 CPU time for first  half transformation          2.15 sec ( 6800.8 MFLOP/sec)
 CPU time for second half transformation          0.04 sec ( 1691.3 MFLOP/sec)
 CPU time for sorting                             0.17 sec
 CPU time for fitting                             0.34 sec (26785.5 MFLOP/sec)
 CPU time for tilde quantities                    0.50 sec (18276.2 MFLOP/sec)
 CPU time for assembly                            1.38 sec (24244.0 MFLOP/sec)
 CPU time for tranop_f12                          1.65 sec (25379.5 MFLOP/sec)
 CPU time for f12 integrals (total)              37.26 sec, Elapsed time:     39.21 sec
 F12-matrices built in  4 passes.
 F12-matrices built in  4 passes.
 F12-matrices built in  4 passes.
 F12-matrices built in  4 passes.
 FC-matrix built in  4 passes.
 CPU time for f12 matrices (total)                1.36 sec, Elapsed time:      1.41 sec

 Diagonal F12 approximation with fixed coefficients:  TSING= 0.500,  TTRIP= 0.250 (scaled by -1/beta)

 DF-MP2-F12 energy corrections:
 ==============================
 Approx.                                    Singlet             Triplet             Total
 DF-MP2-F12/3*C(DX,FIX)                -0.007266441247     -0.000572760937     -0.007839202184
 DF-MP2-F12/3*C(FIX)                   -0.006620892468     -0.000353737491     -0.006974629959
 DF-MP2-F12/3C(FIX)                    -0.006687703946     -0.000365919513     -0.007053623460

 DF-MP2-F12 correlation energies:
 ================================
 Approx.                                    Singlet             Triplet             Ecorr            Total Energy
 DF-MP2                                -0.192405002537     -0.102398921733     -0.294803924270    -76.358656497558
 DF-MP2-F12/3*C(DX,FIX)                -0.199671443784     -0.102971682670     -0.302643126454    -76.366495699741
 DF-MP2-F12/3*C(FIX)                   -0.199025895005     -0.102752659224     -0.301778554229    -76.365631127516
 DF-MP2-F12/3C(FIX)                    -0.199092706484     -0.102764841246     -0.301857547730    -76.365710121017

 SCS-DF-MP2 energies (F_SING= 1.20000  F_TRIP= 0.62222  F_PARALLEL= 0.33333):
 ============================================================================
 SCS-DF-MP2                            -0.294600887678    -76.358453460966
 SCS-DF-MP2-F12/3*C(DX,FIX)            -0.303677001757    -76.367529575045
 SCS-DF-MP2-F12/3*C(FIX)               -0.302766061967    -76.366618635255
 SCS-DF-MP2-F12/3C(FIX)                -0.302853815667    -76.366706388954
 Symmetry transformation completed.

 Number of N-1 electron functions:               4
 Number of N-2 electron functions:              10
 Number of singly external CSFs:              2916
 Number of doubly external CSFs:           4252986
 Total number of CSFs:                     4255903

 Pair and operator lists are different

 Length of J-op  integral file:             411.24 MB
 Length of K-op  integral file:             721.80 MB
 Length of 3-ext integral record:             0.00 MB

 Memory could be reduced to 2535.14 Mwords without degradation in triples

 Integral transformation finished. Total CPU: 561.07 sec, npass=  1  Memory used:1009.99 MW

 Reference energy:                    -76.06385257

 Adding F12 terms to K(Cij), methodcc=6,  factor= 1.0

 ITER.      SQ.NORM     CORR.ENERGY   TOTAL ENERGY   ENERGY CHANGE        DEN1      VAR(S)    VAR(P)  DIIS     TIME  TIME/IT
   1      1.06397963    -0.29320341   -76.35705598     0.00160671     0.00772939  0.80D-03  0.11D-02  1  1   755.76   155.22
   2      1.06755848    -0.29329923   -76.35715180    -0.00009582    -0.00502634  0.16D-04  0.12D-03  2  2   900.15   156.31
   3      1.06892774    -0.29339476   -76.35724733    -0.00009553    -0.00096487  0.84D-05  0.74D-05  3  3  1046.30   157.06
   4      1.06945586    -0.29340054   -76.35725312    -0.00000579    -0.00028624  0.53D-06  0.74D-06  4  4  1190.90   157.24
   5      1.06956193    -0.29339930   -76.35725187     0.00000125    -0.00003090  0.17D-06  0.54D-07  5  5  1336.45   157.64
   6      1.06959681    -0.29339700   -76.35724957     0.00000230    -0.00000603  0.18D-07  0.45D-08  6  6  1483.50   158.40
   7      1.06960520    -0.29339646   -76.35724903     0.00000054    -0.00000128  0.13D-08  0.67D-09  6  2  1628.12   158.45
   8      1.06960700    -0.29339635   -76.35724893     0.00000011    -0.00000000  0.18D-09  0.69D-10  6  1  1772.04   158.36
   9      1.06960760    -0.29339632   -76.35724889     0.00000003     0.00000000  0.14D-10  0.84D-11  6  3  1916.87   158.39
  10      1.06960770    -0.29339631   -76.35724889     0.00000001     0.00000004  0.19D-11  0.91D-12  6  4  2063.11   158.57
  11      1.06960770    -0.29339632   -76.35724889    -0.00000000     0.00000003  0.38D-12  0.14D-12  6  5  2209.87   158.75
  12      1.06960769    -0.29339632   -76.35724889    -0.00000000     0.00000001  0.78D-13  0.21D-13  6  6  2357.11   158.98
  13      1.06960768    -0.29339632   -76.35724889    -0.00000000     0.00000000  0.12D-13  0.33D-14  6  2  2502.45   158.96
  14      1.06960767    -0.29339632   -76.35724889    -0.00000000     0.00000000  0.15D-14  0.70D-15  6  1  2649.41   159.02
  15      1.06960767    -0.29339632   -76.35724889    -0.00000000    -0.00000000  0.16D-15  0.99D-16  6  3  2797.24   159.13
  16      1.06960767    -0.29339632   -76.35724889    -0.00000000    -0.00000000  0.20D-16  0.13D-16  6  4  2942.64   159.15

 Norm of t1 vector:      0.03706193      S-energy:    -0.00000000      T1 diagnostic:  0.00926548
                                                                       D1 diagnostic:  0.01889921

 Adding energy correction from Wij-K(Fij), methodcc=6  factor= 1.0

  CCSD correlation energy              -0.293396318694
  MP2-F12 correction (uncoupled)       -0.006967144727
  C*T doubles correction               -0.000093685509
  f12b correction                       0.001585376173


 Total CPU time for triples:    633.63 sec

  Ecorr(MP2)                           -0.294810120731
  Ecorr(MP2-F12)                       -0.301863744191
  Scale factor for triples energy       1.023925988165


 RESULTS
 =======

  Reference energy                    -76.063814081544
  F12 singles correction               -0.000038491744

 F12 singles corrections added to reference energy

  New reference energy                -76.063852573288

  F12a singlet correction              -0.006661450974
  F12a triplet correction              -0.000399379261
  F12a total correction                -0.007060830236

 F12a corrections for ansatz F12/3C(FIX) added to CCSD energy

  CCSD-F12a singlet pair energy        -0.209644478274
  CCSD-F12a triplet pair energy        -0.090812670048
  CCSD-F12a correlation energy         -0.300457148930

  Triples (T) contribution (scaled)    -0.010097629770
  Total correlation energy             -0.310554778700

  CCSD-F12a total energy              -76.364309722217
  CCSD[T]-F12a energy                 -76.374729472716
  CCSD-T-F12a energy                  -76.374265881025
 !CCSD(T)-F12a total energy           -76.374407351988

 F12b corrections for ansatz F12/3C(FIX) added to CCSD(T)-F12a energy

  CCSD-F12b singlet pair energy        -0.208122485678
  CCSD-F12b triplet pair energy        -0.090749286472
  CCSD-F12b correlation energy         -0.298871772757

  Triples (T) contribution (scaled)    -0.010097629770
  Total correlation energy             -0.308969402527

  CCSD-F12b total energy              -76.362724346045
  CCSD[T]-F12b energy                 -76.373144096544
  CCSD-T-F12b energy                  -76.372680504852
 !CCSD(T)-F12b total energy           -76.372821975815

 Timing summary (sec):

 STEP                 CPU(USER)    SYS     CPU(TOT)    WALL
 Transformation        561.58     25.19    586.77    591.25
 CCSD iterations      2330.23    204.20   2534.43   2546.73
 Triples               633.63      4.69    638.32    641.85
 MP2-F12                51.02      2.27     53.29     53.58
 F12b energy           140.59     12.02    152.61    153.03

 Program statistics:

 Available memory in ccsd:              3999999871
 Min. memory needed in ccsd:              19260852
 Max. memory used in ccsd:                22423154
 Max. memory used in cckext:              14628952 (17 integral passes)



 **********************************************************************************************************************************
 DATASETS  * FILE   NREC   LENGTH (MB)   RECORD NAMES
              1      19     6330.34       500      610      700      900      950      970     1000      129      960     1100   
                                          VAR    BASINP    GEOM    SYMINP    ZMAT    AOBASIS   BASIS     P2S    ABASIS      S 
                                         1400     1410     1200     1210     1080     1600     1650     1700     1380   
                                           T        V       H0       H01     AOSYM     SMH    MOLCAS    OPER     JKOP   

              2       8       38.40       700     1000      520     2100     7360     7350      200     2101   
                                         GEOM     BASIS   MCVARS     RHF    F12ABS    EF12    OPTIONS    RHF  

 PROGRAMS   *        TOTAL   CCSD(T)    HF-SCF       INT   CCSD(T)    HF-SCF       INT
 CPU TIMES  *     19000.58   3717.20   1442.43      0.40  10496.63   1633.75   1709.92
 REAL TIME  *     20633.79 SEC
 DISK USED  *        14.29 GB (local),      499.58 GB (total)
 SF USED    *        17.68 GB
 GA USED    *         4.87 MB       (max)       0.00 MB       (current)
 **********************************************************************************************************************************

 Running procedure: SET_MONOMER2

 Dummy atoms: O13  H25  H26


 Recomputing one-electron integrals since nuclear charges changed


 PROGRAM * SEWARD (Integral evaluation for generally contracted gaussian basis sets)     Author: Roland Lindh, 1990

 Geometry written to block  1 of record 700


 Point group  C1  



 ATOMIC COORDINATES

 NR  ATOM    CHARGE       X              Y              Z

   1  O13     0.00   -7.660382791    0.177823228    9.189360199
   2  H25     0.00   -6.870288298    1.893127632    9.251154243
   3  H26     0.00   -7.962738971   -0.267018301   10.932821521
   4  C1      6.00   -6.193010455    2.801518980    2.403542658
   5  H41     1.00   -4.656285171    1.699997622    3.119937832
   6  H42     1.00   -5.973046335    4.726205038    2.982932688
   7  H43     1.00   -7.940251230    2.077186956    3.118237078
   8  H44     1.00   -6.176569838    2.685300823    0.384937212

 Bond lengths in Bohr (Angstrom)

 1-2  1.889533542  1-3  1.824543951  4-5  2.021904040  4-6  2.022002335  4-7  2.021953343
     ( 0.999898090)     ( 0.965507079)     ( 1.069945541)     ( 1.069997556)     ( 1.069971630)

 4-8  2.022015060
     ( 1.070004290)

 Bond angles

  2-1-3  105.03277623   5-4-6  109.53398059   5-4-7  109.65604535   5-4-8  108.43490854

  6-4-7  109.49436728   6-4-8  109.86987750   7-4-8  109.83468330

 NUCLEAR CHARGE:                   10
 NUMBER OF PRIMITIVE AOS:        1046
 NUMBER OF SYMMETRY AOS:          786
 NUMBER OF CONTRACTIONS:          734   (  734A   )
 NUMBER OF CORE ORBITALS:           1   (    1A   )
 NUMBER OF VALENCE ORBITALS:        8   (    8A   )

 MOLECULE CHANGED: INITIALIZING OCCUPATION AND DUMP RECORDS


 NUCLEAR REPULSION ENERGY   13.68681606

 Basis set:  JKFIT                   
 Basis size:  1104
 Attributes:
 Sphericals:   T
 Basis set:  MP2FIT                  
 Basis size:  1246
 Attributes:
 Sphericals:   T
 Basis set:  RI                      
 Basis size:   730
 Attributes:
 Sphericals:   T
 Basis set:  TDDFT                   
 Basis size:  1246
 Attributes:
 Sphericals:   T

 Eigenvalues of metric

         1 0.163E-05 0.189E-05 0.352E-05 0.500E-05 0.545E-05 0.801E-05 0.819E-05 0.873E-05


 Contracted 2-electron integrals neglected if value below      1.0D-14

 OPERATOR DM      FOR CENTER  0  COORDINATES:    0.000000    0.000000    0.000000


 **********************************************************************************************************************************
 DATASETS  * FILE   NREC   LENGTH (MB)   RECORD NAMES
              1      18       49.80       500      610      700      900      950      970     1000      129      960     1100   
                                          VAR    BASINP    GEOM    SYMINP    ZMAT    AOBASIS   BASIS     P2S    ABASIS      S 
                                         1400     1410     1200     1210     1080     1600     1650     1700   
                                           T        V       H0       H01     AOSYM     SMH    MOLCAS    OPER   

              2       8       38.40       700     1000      520     2100     7360     7350      200     2101   
                                         GEOM     BASIS   MCVARS     RHF    F12ABS    EF12    OPTIONS    RHF  

 PROGRAMS   *        TOTAL       INT   CCSD(T)    HF-SCF       INT   CCSD(T)    HF-SCF       INT
 CPU TIMES  *     19001.04      0.45   3717.20   1442.43      0.40  10496.63   1633.75   1709.92
 REAL TIME  *     20635.22 SEC
 DISK USED  *        14.29 GB (local),      499.58 GB (total)
 SF USED    *        17.68 GB
 GA USED    *         4.87 MB       (max)       0.00 MB       (current)
 **********************************************************************************************************************************


 PROGRAM * RHF-SCF (CLOSED SHELL)       Authors: W. Meyer, H.-J. Werner


 NUMBER OF ELECTRONS:       5+    5-    SPACE SYMMETRY=1    SPIN SYMMETRY: Singlet 
 CONVERGENCE THRESHOLDS:    1.00E-08 (Density)    1.00E-11 (Energy)
 MAX. NUMBER OF ITERATIONS:       60
 INTERPOLATION TYPE:            DIIS
 INTERPOLATION STEPS:              2 (START)      1 (STEP)
 LEVEL SHIFTS:                  0.00 (CLOSED)  0.00 (OPEN) 



 Orbital guess generated from atomic densities. Full valence occupancy:    9

 Molecular orbital dump at record        2102.2

 Initial occupancy:   5

 ITERATION    DDIFF          GRAD             ENERGY        2-EL.EN.            DIPOLE MOMENTS         DIIS   ORB.
    1      0.000D+00      0.000D+00       -40.19676520     53.509901    0.00411   -0.00276   -0.00131    0    start
    2      0.000D+00      0.198D-02       -40.21405740     52.218477    0.00129   -0.00087   -0.00038    1    diag
    3      0.947D-03      0.769D-03       -40.21634083     52.673984    0.00182   -0.00123   -0.00055    2    diag
    4      0.258D-03      0.192D-03       -40.21666115     52.619247    0.00162   -0.00110   -0.00048    3    diag
    5      0.965D-04      0.248D-04       -40.21666664     52.621405    0.00159   -0.00108   -0.00047    4    diag
    6      0.331D-04      0.204D-05       -40.21666668     52.621533    0.00159   -0.00108   -0.00047    5    diag
    7      0.622D-05      0.166D-06       -40.21666668     52.621495    0.00159   -0.00108   -0.00047    6    diag
    8      0.405D-06      0.136D-07       -40.21666668     52.621496    0.00159   -0.00108   -0.00047    7    diag
    9      0.542D-07      0.167D-08       -40.21666668     52.621496    0.00159   -0.00108   -0.00047    8    diag
   10      0.110D-07      0.465D-09       -40.21666668     52.621496    0.00159   -0.00108   -0.00047    9    orth
   11      0.121D-08      0.666D-10       -40.21666668     52.621496    0.00159   -0.00108   -0.00047    0    orth

 Final occupancy:   5

 !RHF STATE  1.1 Energy               -40.216666679316
 Nuclear energy                        13.68681606
 One-electron energy                  -80.21423054
 Two-electron energy                   26.31074780
 Virial quotient                       -0.99832815
 !RHF STATE  1.1 Dipole moment          0.00158844    -0.00107869    -0.00047419
 Dipole moment /Debye                   0.00403715    -0.00274158    -0.00120518

 Orbital energies:

         1.1          2.1          3.1          4.1          5.1          6.1          7.1
    -11.196017    -0.950605    -0.551931    -0.549996    -0.547818     0.020635     0.030911


 HOMO      5.1    -0.547818 =     -14.9069eV
 LUMO      6.1     0.020635 =       0.5615eV
 LUMO-HOMO         0.568453 =      15.4684eV


 **********************************************************************************************************************************
 DATASETS  * FILE   NREC   LENGTH (MB)   RECORD NAMES
              1      18       49.80       500      610      700      900      950      970     1000      129      960     1100   
                                          VAR    BASINP    GEOM    SYMINP    ZMAT    AOBASIS   BASIS     P2S    ABASIS      S 
                                         1400     1410     1200     1210     1080     1600     1650     1700   
                                           T        V       H0       H01     AOSYM     SMH    MOLCAS    OPER   

              2       9       62.49       700     1000      520     2100     7360     7350      200     2101     2102   
                                         GEOM     BASIS   MCVARS     RHF    F12ABS    EF12    OPTIONS    RHF      RHF  

 PROGRAMS   *        TOTAL    HF-SCF       INT   CCSD(T)    HF-SCF       INT   CCSD(T)    HF-SCF       INT
 CPU TIMES  *     20461.69   1460.65      0.45   3717.20   1442.43      0.40  10496.63   1633.75   1709.92
 REAL TIME  *     22239.90 SEC
 DISK USED  *        14.29 GB (local),      499.58 GB (total)
 SF USED    *        17.68 GB
 GA USED    *         4.87 MB       (max)       0.00 MB       (current)
 **********************************************************************************************************************************

 Basis set:  JKFIT                   
 Basis size:  1104
 Attributes:
 Sphericals:   T
 Basis set:  MP2FIT                  
 Basis size:  1246
 Attributes:
 Sphericals:   T
 Basis set:  RI                      
 Basis size:   730
 Attributes:
 Sphericals:   T
 Basis set:  TDDFT                   
 Basis size:  1246
 Attributes:
 Sphericals:   T

 PROGRAM * CCSD (Closed-shell coupled cluster)     Authors: C. Hampel, H.-J. Werner, 1991, M. Deegan, P.J. Knowles, 1992

                                  CCSD-F12 implementation by  H.-J. Werner, 2007

                   Density fitting integral evaluation by F.R. Manby, 2003,2007, G. Knizia, 2010



 Convergence thresholds:  THRVAR = 1.00D-08  THRDEN = 1.00D-10

 CCSD(T)     terms to be evaluated (factor= 1.000)


 Number of core orbitals:           1 (   1 )
 Number of closed-shell orbitals:   4 (   4 )
 Number of external orbitals:     729 ( 729 )

 Molecular orbitals read from record     2102.2  Type=RHF/CANONICAL (state 1.1)

 MP2-F12 correlation treatment (H.-J. Werner, 2006)
 ==================================================

 Using MP2-F12 with ansatz 3C(FIX)

 Using projected zeroth-order Hamiltonian (+Z)

 FOCKRIB=T FOCKRIC=T FOCKRIP=T CABSP=T CABSA=T CABSK=T CABSF=T GBC=F EBC=F DMAT=T NOFIK=T NOPAO=1 SOLVE=-1  USEPAO=0
 EXCH_A= T EXCH_B= F EXCH_C= F EXCH_P= F

 Geminal basis:    OPTFULL  GEM_TYPE=SLATER  BETA=1.0  NGEM=6

 Optimizing Gaussian exponents for each gem_beta

 Geminal optimization for beta= 1.0000
 Weight function:   m=0, omega= 1.4646

 Augmented Hessian optimization of geminal fit. Trust ratio= 0.40000
 Convergence reached after   2 iterations. Final gradient= 8.53D-16, Step= 4.26D-06, Delta= 1.28D-09

 Alpha:                 0.19532     0.81920     2.85917     9.50073    35.69989   197.79328
 Coeff:                 0.27070     0.30552     0.18297     0.10986     0.06810     0.04224


 All pairs explicitly correlated. Number of r12-pairs:           10

 Excluding core orbitals from MO domains

 AO(A)-basis ORBITAL           loaded. Number of functions:     734
 RI(R)-basis RI                loaded. Number of functions:     730
 DF-basis JKFIT                loaded. Number of functions:    1104

 Screening thresholds:   THRAO=  1.00D-10  THRMO=  1.00D-09  THRPROD=  1.00D-09
                         THRSW=  1.00D-05  THROV=  1.00D-12  THRAOF12= 1.00D-10

 CPU time for Fock operators                      9.05 sec

 Construction of ABS:
 Smallest eigenvalue of S          2.27E-04  (threshold= 1.00E-08)
 Ratio eigmin/eigmax               3.94E-05  (threshold= 1.00E-09)
 Smallest eigenvalue of S kept     2.27E-04  (threshold= 2.27E-04, 0 functions deleted, 730 kept)

 Construction of CABS:
 Smallest eigenvalue of S          9.83E-09  (threshold= 1.00E-08)
 Ratio eigmin/eigmax               9.83E-09  (threshold= 1.00E-09)
 Smallest eigenvalue of S kept     8.18E-08  (threshold= 8.18E-08, 1 functions deleted, 729 kept)

 CPU time for CABS singles                        1.17 sec

 CABS-singles contribution of  -0.00004088 patched into reference energy.
 New reference energy         -40.21670756

 AO(A)-basis ORBITAL           loaded. Number of functions:     734
 RI(R)-basis RI                loaded. Number of functions:     730
 DF-basis MP2FIT               loaded. Number of functions:    1246

 Screening thresholds:   THRAO=  1.00D-10  THRMO=  1.00D-09  THRPROD=  1.00D-09
                         THRSW=  1.00D-05  THROV=  1.00D-12  THRAOF12= 1.00D-10

 CPU time for 3-index integral evaluation        27.67 sec
 CPU time for first  half transformation          2.07 sec ( 7092.2 MFLOP/sec)
 CPU time for second half transformation          0.03 sec ( 2079.6 MFLOP/sec)
 CPU time for sorting                             0.15 sec
 CPU time for fitting                             0.34 sec (26785.5 MFLOP/sec)
 CPU time for tilde quantities                    0.51 sec (13467.3 MFLOP/sec)
 CPU time for assembly                            1.44 sec (26963.0 MFLOP/sec)
 CPU time for tranop_f12                          1.70 sec (26030.0 MFLOP/sec)
 CPU time for f12 integrals (total)              36.73 sec, Elapsed time:     38.60 sec
 F12-matrices built in  4 passes.
 F12-matrices built in  4 passes.
 F12-matrices built in  4 passes.
 F12-matrices built in  4 passes.
 FC-matrix built in  4 passes.
 CPU time for f12 matrices (total)                1.35 sec, Elapsed time:      1.39 sec

 Diagonal F12 approximation with fixed coefficients:  TSING= 0.500,  TTRIP= 0.250 (scaled by -1/beta)

 DF-MP2-F12 energy corrections:
 ==============================
 Approx.                                    Singlet             Triplet             Total
 DF-MP2-F12/3*C(DX,FIX)                -0.003936245047     -0.000213261087     -0.004149506134
 DF-MP2-F12/3*C(FIX)                   -0.003773163504     -0.000161134833     -0.003934298337
 DF-MP2-F12/3C(FIX)                    -0.003820319990     -0.000164182629     -0.003984502619

 DF-MP2-F12 correlation energies:
 ================================
 Approx.                                    Singlet             Triplet             Ecorr            Total Energy
 DF-MP2                                -0.157866727170     -0.056824677860     -0.214691405030    -40.431398964776
 DF-MP2-F12/3*C(DX,FIX)                -0.161802972217     -0.057037938947     -0.218840911164    -40.435548470910
 DF-MP2-F12/3*C(FIX)                   -0.161639890674     -0.056985812693     -0.218625703367    -40.435333263113
 DF-MP2-F12/3C(FIX)                    -0.161687047160     -0.056988860489     -0.218675907649    -40.435383467395

 SCS-DF-MP2 energies (F_SING= 1.20000  F_TRIP= 0.62222  F_PARALLEL= 0.33333):
 ============================================================================
 SCS-DF-MP2                            -0.224797649939    -40.441505209685
 SCS-DF-MP2-F12/3*C(DX,FIX)            -0.229653839783    -40.446361399529
 SCS-DF-MP2-F12/3*C(FIX)               -0.229425707818    -40.446133267563
 SCS-DF-MP2-F12/3C(FIX)                -0.229484192007    -40.446191751753
 Symmetry transformation completed.

 Number of N-1 electron functions:               4
 Number of N-2 electron functions:              10
 Number of singly external CSFs:              2916
 Number of doubly external CSFs:           4252986
 Total number of CSFs:                     4255903

 Pair and operator lists are different

 Length of J-op  integral file:             411.24 MB
 Length of K-op  integral file:             721.80 MB
 Length of 3-ext integral record:             0.00 MB

 Memory could be reduced to 2535.14 Mwords without degradation in triples

 Integral transformation finished. Total CPU: 565.99 sec, npass=  1  Memory used:1009.99 MW

 Reference energy:                    -40.21670756

 Adding F12 terms to K(Cij), methodcc=6,  factor= 1.0

 ITER.      SQ.NORM     CORR.ENERGY   TOTAL ENERGY   ENERGY CHANGE        DEN1      VAR(S)    VAR(P)  DIIS     TIME  TIME/IT
   1      1.07033674    -0.22827056   -40.44497812    -0.01357244    -0.00771823  0.62D-03  0.94D-03  1  1   757.84   153.17
   2      1.07515859    -0.22922747   -40.44593503    -0.00095691    -0.00531219  0.16D-04  0.11D-03  2  2   901.42   155.80
   3      1.07694813    -0.22929484   -40.44600240    -0.00006736    -0.00133762  0.22D-05  0.64D-05  3  3  1039.59   154.35
   4      1.07735091    -0.22929729   -40.44600485    -0.00000245    -0.00021860  0.16D-06  0.39D-06  4  4  1184.08   155.94
   5      1.07740819    -0.22930086   -40.44600842    -0.00000357    -0.00000963  0.14D-07  0.24D-07  5  5  1327.79   156.17
   6      1.07741843    -0.22929951   -40.44600707     0.00000135    -0.00000405  0.88D-09  0.18D-08  6  6  1471.51   156.23
   7      1.07741993    -0.22929912   -40.44600668     0.00000039    -0.00000089  0.55D-10  0.13D-09  6  1  1615.18   156.33
   8      1.07741986    -0.22929918   -40.44600674    -0.00000006     0.00000024  0.59D-11  0.84D-11  6  3  1758.21   156.47
   9      1.07742000    -0.22929916   -40.44600672     0.00000002    -0.00000009  0.39D-12  0.57D-12  6  2  1901.36   156.62
  10      1.07742000    -0.22929916   -40.44600672     0.00000000     0.00000001  0.55D-13  0.61D-13  6  4  2044.60   156.54
  11      1.07742001    -0.22929916   -40.44600672     0.00000000    -0.00000000  0.56D-14  0.65D-14  6  5  2186.11   156.41
  12      1.07742001    -0.22929916   -40.44600672     0.00000000     0.00000000  0.15D-15  0.65D-15  6  6  2328.05   156.24
  13      1.07742001    -0.22929916   -40.44600672    -0.00000000     0.00000000  0.12D-16  0.73D-16  6  1  2468.86   155.99
  14      1.07742000    -0.22929916   -40.44600672    -0.00000000     0.00000000  0.18D-17  0.12D-16  6  3  2609.63   155.82

 Norm of t1 vector:      0.03268917      S-energy:     0.00000000      T1 diagnostic:  0.00817229
                                                                       D1 diagnostic:  0.01311252

 Adding energy correction from Wij-K(Fij), methodcc=6  factor= 1.0

  CCSD correlation energy              -0.229299156838
  MP2-F12 correction (uncoupled)       -0.003886742070
  C*T doubles correction               -0.000069368563
  f12b correction                       0.001101154183

 Total CPU time for triples:    623.57 sec

  Ecorr(MP2)                           -0.214698115572
  Ecorr(MP2-F12)                       -0.218682618191
  Scale factor for triples energy       1.018558628744


 RESULTS
 =======

  Reference energy                    -40.216666679315
  F12 singles correction               -0.000040880431

 F12 singles corrections added to reference energy

  New reference energy                -40.216707559746

  F12a singlet correction              -0.003784624426
  F12a triplet correction              -0.000171486207
  F12a total correction                -0.003956110633

 F12a corrections for ansatz F12/3C(FIX) added to CCSD energy

  CCSD-F12a singlet pair energy        -0.178096691958
  CCSD-F12a triplet pair energy        -0.055158575521
  CCSD-F12a correlation energy         -0.233255267472

  Triples (T) contribution (scaled)    -0.007109197719
  Total correlation energy             -0.240364465190

  CCSD-F12a total energy              -40.449962827217
  CCSD[T]-F12a energy                 -40.457307650633
  CCSD-T-F12a energy                  -40.457004178619
 !CCSD(T)-F12a total energy           -40.457072024936

 F12b corrections for ansatz F12/3C(FIX) added to CCSD(T)-F12a energy

  CCSD-F12b singlet pair energy        -0.177024715043
  CCSD-F12b triplet pair energy        -0.055129398251
  CCSD-F12b correlation energy         -0.232154113288

  Triples (T) contribution (scaled)    -0.007109197719
  Total correlation energy             -0.239263311007

  CCSD-F12b total energy              -40.448861673034
  CCSD[T]-F12b energy                 -40.456206496449
  CCSD-T-F12b energy                  -40.455903024435
 !CCSD(T)-F12b total energy           -40.455970870753

 Timing summary (sec):

 STEP                 CPU(USER)    SYS     CPU(TOT)    WALL
 Transformation        566.49     25.67    592.16    596.35
 CCSD iterations      1992.83    169.27   2162.10   2181.83
 Triples               623.57      5.42    628.99    638.13
 MP2-F12                50.50      2.35     52.85     53.01
 F12b energy           136.82     10.26    147.08    148.38

 Program statistics:

 Available memory in ccsd:              3999999866
 Min. memory needed in ccsd:              19260852
 Max. memory used in ccsd:                22423154
 Max. memory used in cckext:              14628952 (15 integral passes)



 **********************************************************************************************************************************
 DATASETS  * FILE   NREC   LENGTH (MB)   RECORD NAMES
              1      19     6330.34       500      610      700      900      950      970     1000      129      960     1100   
                                          VAR    BASINP    GEOM    SYMINP    ZMAT    AOBASIS   BASIS     P2S    ABASIS      S 
                                         1400     1410     1200     1210     1080     1600     1650     1700     1380   
                                           T        V       H0       H01     AOSYM     SMH    MOLCAS    OPER     JKOP   

              2       9       62.49       700     1000      520     2100     7360     7350      200     2101     2102   
                                         GEOM     BASIS   MCVARS     RHF    F12ABS    EF12    OPTIONS    RHF      RHF  

 PROGRAMS   *        TOTAL   CCSD(T)    HF-SCF       INT   CCSD(T)    HF-SCF       INT   CCSD(T)    HF-SCF       INT
 CPU TIMES  *     23832.14   3370.44   1460.65      0.45   3717.20   1442.43      0.40  10496.63   1633.75   1709.92
 REAL TIME  *     25859.19 SEC
 DISK USED  *        14.29 GB (local),      499.58 GB (total)
 SF USED    *        17.68 GB
 GA USED    *         4.87 MB       (max)       0.00 MB       (current)
 **********************************************************************************************************************************
 Molecular orbitals read from record     2102.2  Type=RHF/CANONICAL (state 1.1)
 Occupation numbers read from record     2102.2  Type=RHF/RHF (state 1.1)
 Orbital energies read from record       2102.2  Type=RHF/CANONICAL (state 1.1)
 Redundancy group numbers read from rec  2102.2  Type=RHF/RHF (state 1.1)

 CCSD(T)-F12/aug-cc-pV5Z energy=    -40.455970870753

     CCSD(T)-F12          HF-SCF     CCSD(T)-F12          HF-SCF     CCSD(T)-F12          HF-SCF
    -40.45597087    -40.21666668    -76.37282198    -76.06381408   -116.82942452   -116.28051560
 **********************************************************************************************************************************
 Molpro calculation terminated
