
 Primary working directories    : /scratch.ssd/kelum/job_380613.cerit-pbs.cerit-sc.cz/molpro.QcV4Day20P
 Secondary working directories  : /scratch.ssd/kelum/job_380613.cerit-pbs.cerit-sc.cz/molpro.QcV4Day20P
 Wavefunction directory         : /scratch.ssd/kelum/job_380613.cerit-pbs.cerit-sc.cz/
 Main file repository           : /scratch.ssd/kelum/job_380613.cerit-pbs.cerit-sc.cz/molpro.QcV4Day20P/

 id        : karlovklimes

 Nodes            nprocs
 elan9.cerit-sc.cz    4

 Using customized tuning parameters: mindgm=1; mindgv=20; mindgc=4; mindgr=1; noblas=0; minvec=7
 default implementation of scratch files=sf  


 Variables initialized (934), CPU time= 0.00 sec
                                                                                 !gdirect
 memory,4000,m
 gthresh,orbital=1d-10,energy=1d-10
 
 symmetry,nosym
 angstrom
 geometry={
 O15        -6.012300000000     -1.326900000000      0.948000000000
 H29        -5.145500000000     -1.802000000000      0.952300000000
 H30        -6.682100000000     -2.019400000000      0.881700000000
 C1        -3.277200000000      1.482500000000      1.271900000000
 H41        -2.464000000000      0.899600000000      1.651000000000
 H42        -3.160800000000      2.501000000000      1.578500000000
 H43        -4.201800000000      1.099200000000      1.650100000000
 H44        -3.268500000000      1.421000000000      0.203700000000
 }
 
 nkerna=1
 nkernb=1
 
 gf=0
 sing=1
 thrdum=1d-4
 gridthr=1d-8
 
 basis={
 set,orbital
 default,av5z
 set,jkfit
 default,av5z/jkfit
 set,mp2fit
 default,av5z/mp2fit
 set,ri
 default,av5z/optri
 set,tddft
 default,av5z/mp2fit
 }
 
 proc set_monomer1
 dummy,4,5,6,7,8
 endproc
 
 proc set_monomer2
 dummy,1,2,3
 endproc
 
                                                                                 !12 energy
 {hf,accu=1.d-16}
 {ccsd(t)-f12,df_basis=mp2fit,df_basis_exch=jkfit,ri_basis=ri,scale_trip=1,THRAOF12=1d-10}
 
 set_monomer1
 {hf,accu=1.d-16}
 {ccsd(t)-f12,df_basis=mp2fit,df_basis_exch=jkfit,ri_basis=ri,scale_trip=1,THRAOF12=1d-10}
 
 set_monomer2
 {hf,accu=1.d-16}
 {ccsd(t)-f12,df_basis=mp2fit,df_basis_exch=jkfit,ri_basis=ri,scale_trip=1,THRAOF12=1d-10}
 
 Commands  initialized (763), CPU time= 0.02 sec, 617 directives.
 Default parameters read. Elapsed time= 0.13 sec

 Checking input...
 Passed
1


                                         ***  PROGRAM SYSTEM MOLPRO  ***
                                       Copyright, TTI GmbH Stuttgart, 2015
                                    Version 2019.2 linked Jun  8 2019 11:26:33


 **********************************************************************************************************************************
 LABEL *                                                                                 
  64 bit mpp version                                                                     DATE: 24-Mar-20          TIME: 16:51:14  
 **********************************************************************************************************************************

 SHA1:             8135a10abc80eafa5b3ae28ffc55be4890dc4c84
 **********************************************************************************************************************************

 THRESHOLDS:

 ZERO    =  1.00D-12  ONEINT  =  1.00D-12  TWOINT  =  1.00D-11  PREFAC  =  1.00D-14  XXXXXX  =  1.00D-09  EORDER  =  1.00D-04
 ENERGY  =  1.00D-10  ETEST   =  0.00D+00  EDENS   =  0.00D+00  THRDEDEF=  1.00D-06  GRADIENT=  1.00D-02  STEP    =  1.00D-03
 ORBITAL =  1.00D-10  CIVEC   =  1.00D-05  COEFF   =  1.00D-04  PRINTCI =  5.00D-02  PUNCHCI =  9.90D+01  OPTGRAD =  3.00D-04
 OPTENERG=  1.00D-06  OPTSTEP =  3.00D-04  THRGRAD =  1.00D-10  COMPRESS=  1.00D-11  VARMIN  =  1.00D-07  VARMAX  =  1.00D-03
 THRDOUB =  0.00D+00  THRDIV  =  1.00D-05  THRRED  =  1.00D-07  THRPSP  =  1.00D+00  THRDC   =  1.00D-10  THRCS   =  1.00D-10
 THRNRM  =  1.00D-08  THREQ   =  0.00D+00  THRDE   =  1.00D+00  THRREF  =  1.00D-05  SPARFAC =  1.00D+00  THRDLP  =  1.00D-07
 THRDIA  =  1.00D-10  THRDLS  =  1.00D-07  THRGPS  =  0.00D+00  THRKEX  =  0.00D+00  THRDIS  =  2.00D-01  THRVAR  =  1.00D-10
 THRLOC  =  1.00D-06  THRGAP  =  1.00D-06  THRLOCT = -1.00D+00  THRGAPT = -1.00D+00  THRORB  =  1.00D-06  THRMLTP =  0.00D+00
 THRCPQCI=  1.00D-10  KEXTA   =  0.00D+00  THRCOARS=  0.00D+00  SYMTOL  =  1.00D-06  GRADTOL =  1.00D-06  THROVL  =  1.00D-08
 THRORTH =  1.00D-08  GRID    =  1.00D-06  GRIDMAX =  1.00D-03  DTMAX   =  0.00D+00  THROCCDE=  1.00D-01  THROCCDE=  1.00D-01
 THRPRINT=  2.50D-01


 Variable memory set to 4000000000 words,  buffer space 

 ZSYMEL=NOSYM
 ZUNIT=ANG


Geometry recognized as XYZ

 SETTING NKERNA         =         1.00000000                                  
 SETTING NKERNB         =         1.00000000                                  
 SETTING GF             =     0.00000000D+00                                  
 SETTING SING           =         1.00000000                                  
 SETTING THRDUM         =     1.00000000D-04                                  
 SETTING GRIDTHR        =     1.00000000D-08                                  
 SETTING BASIS          =    AV5Z


 Recomputing integrals since basis changed


 Using spherical harmonics

 Library entry O      S aug-cc-pV5Z          selected for orbital group  1
 Library entry O      P aug-cc-pV5Z          selected for orbital group  1
 Library entry O      D aug-cc-pV5Z          selected for orbital group  1
 Library entry O      F aug-cc-pV5Z          selected for orbital group  1
 Library entry O      G aug-cc-pV5Z          selected for orbital group  1
 Library entry O      H aug-cc-pV5Z          selected for orbital group  1
 Library entry H      S aug-cc-pV5Z          selected for orbital group  2
 Library entry H      P aug-cc-pV5Z          selected for orbital group  2
 Library entry H      D aug-cc-pV5Z          selected for orbital group  2
 Library entry H      F aug-cc-pV5Z          selected for orbital group  2
 Library entry H      G aug-cc-pV5Z          selected for orbital group  2
 Library entry C      S aug-cc-pV5Z          selected for orbital group  3
 Library entry C      P aug-cc-pV5Z          selected for orbital group  3
 Library entry C      D aug-cc-pV5Z          selected for orbital group  3
 Library entry C      F aug-cc-pV5Z          selected for orbital group  3
 Library entry C      G aug-cc-pV5Z          selected for orbital group  3
 Library entry C      H aug-cc-pV5Z          selected for orbital group  3


 PROGRAM * SEWARD (Integral evaluation for generally contracted gaussian basis sets)     Author: Roland Lindh, 1990

 Geometry written to block  1 of record 700


 Point group  C1  



 ATOMIC COORDINATES

 NR  ATOM    CHARGE       X              Y              Z

   1  O15     8.00  -11.361600379   -2.507477595    1.791460366
   2  H29     1.00   -9.723585774   -3.405286476    1.799586188
   3  H30     1.00  -12.627338937   -3.816112936    1.666171524
   4  C1      6.00   -6.193010455    2.801518980    2.403542658
   5  H41     1.00   -4.656285171    1.699997622    3.119937832
   6  H42     1.00   -5.973046335    4.726205038    2.982932688
   7  H43     1.00   -7.940251230    2.077186956    3.118237078
   8  H44     1.00   -6.176569838    2.685300823    0.384937212

 Bond lengths in Bohr (Angstrom)

 1-2  1.867945037  1-3  1.824915847  4-5  2.021904040  4-6  2.022002335  4-7  2.021953343
     ( 0.988473945)     ( 0.965703878)     ( 1.069945541)     ( 1.069997556)     ( 1.069971630)

 4-8  2.022015060
     ( 1.070004290)

 Bond angles

  2-1-3  105.29843553   5-4-6  109.53398059   5-4-7  109.65604535   5-4-8  108.43490854

  6-4-7  109.49436728   6-4-8  109.86987750   7-4-8  109.83468330

 NUCLEAR CHARGE:                   20
 NUMBER OF PRIMITIVE AOS:        1046
 NUMBER OF SYMMETRY AOS:          786
 NUMBER OF CONTRACTIONS:          734   (  734A   )
 NUMBER OF CORE ORBITALS:           2   (    2A   )
 NUMBER OF VALENCE ORBITALS:       14   (   14A   )


 NUCLEAR REPULSION ENERGY   35.93228190


 Basis set:  JKFIT                   
 Basis size:  1104
 Attributes:
 Sphericals:   T
 Basis set:  MP2FIT                  
 Basis size:  1246
 Attributes:
 Sphericals:   T
 Basis set:  RI                      
 Basis size:   730
 Attributes:
 Sphericals:   T
 Basis set:  TDDFT                   
 Basis size:  1246
 Attributes:
 Sphericals:   T

 **********************************************************************************************************************************


 Eigenvalues of metric

         1 0.189E-05 0.234E-05 0.355E-05 0.405E-05 0.546E-05 0.712E-05 0.819E-05 0.920E-05


 Contracted 2-electron integrals neglected if value below      1.0D-14
 AO integral compression algorithm  1   Integral accuracy      1.0D-14

     141972.210 MB (compressed) written to integral file ( 45.0%)

     Node minimum: 33823.130 MB, node maximum: 37790.155 MB


 NUMBER OF SORTED TWO-ELECTRON INTEGRALS: 9095363064.     BUFFER LENGTH:  32768
 NUMBER OF SEGMENTS: 190  SEGMENT LENGTH:   47999780      RECORD LENGTH: 131072

 Memory used in sort:      48.16 MW

 SORT1 READ 39468581049. AND WROTE  6544238144. INTEGRALS IN  74989 RECORDS. CPU TIME:   838.62 SEC, REAL TIME:   958.99 SEC
 SORT2 READ 26177472961. AND WROTE 36381317385. INTEGRALS IN 527972 RECORDS. CPU TIME:   128.98 SEC, REAL TIME:   666.66 SEC

 Node minimum:  9095228192.  Node maximum:  9095430501. integrals

 OPERATOR DM      FOR CENTER  0  COORDINATES:    0.000000    0.000000    0.000000


 **********************************************************************************************************************************
 DATASETS  * FILE   NREC   LENGTH (MB)   RECORD NAMES
              1      18       49.80       500      610      700      900      950      970     1000      129      960     1100   
                                          VAR    BASINP    GEOM    SYMINP    ZMAT    AOBASIS   BASIS     P2S    ABASIS      S 
                                         1400     1410     1200     1210     1080     1600     1650     1700   
                                           T        V       H0       H01     AOSYM     SMH    MOLCAS    OPER   

 PROGRAMS   *        TOTAL       INT
 CPU TIMES  *      1630.73   1630.55
 REAL TIME  *      2328.64 SEC
 DISK USED  *        50.44 MB (local),      455.94 GB (total)
 GA USED    *         0.00 MB       (max)       0.00 MB       (current)
 **********************************************************************************************************************************


 PROGRAM * RHF-SCF (CLOSED SHELL)       Authors: W. Meyer, H.-J. Werner


 NUMBER OF ELECTRONS:      10+   10-    SPACE SYMMETRY=1    SPIN SYMMETRY: Singlet 
 CONVERGENCE THRESHOLDS:    1.00E-08 (Density)    1.00E-11 (Energy)
 MAX. NUMBER OF ITERATIONS:       60
 INTERPOLATION TYPE:            DIIS
 INTERPOLATION STEPS:              2 (START)      1 (STEP)
 LEVEL SHIFTS:                  0.00 (CLOSED)  0.00 (OPEN) 



 Orbital guess generated from atomic densities. Full valence occupancy:   16

 Molecular orbital dump at record        2100.2

 Initial occupancy:  10

 ITERATION    DDIFF          GRAD             ENERGY        2-EL.EN.            DIPOLE MOMENTS         DIIS   ORB.
    1      0.000D+00      0.000D+00      -116.22340287    157.620236    0.19988   -1.13497   -0.06153    0    start
    2      0.000D+00      0.291D-02      -116.26739577    152.578667    0.05560   -0.66688   -0.03875    1    diag
    3      0.162D-02      0.171D-02      -116.28098302    154.661613    0.08894   -0.78691   -0.04388    2    diag
    4      0.555D-03      0.253D-03      -116.28163725    154.548180    0.08585   -0.77625   -0.04301    3    diag
    5      0.123D-03      0.742D-04      -116.28170576    154.543223    0.08466   -0.77586   -0.04287    4    diag
    6      0.510D-04      0.180D-04      -116.28170961    154.548757    0.08426   -0.77505   -0.04277    5    diag
    7      0.187D-04      0.363D-05      -116.28170984    154.547113    0.08421   -0.77503   -0.04275    6    diag
    8      0.566D-05      0.917D-06      -116.28170986    154.547282    0.08417   -0.77496   -0.04274    7    diag
    9      0.133D-05      0.218D-06      -116.28170986    154.547256    0.08416   -0.77494   -0.04274    8    diag
   10      0.281D-06      0.261D-07      -116.28170986    154.547256    0.08416   -0.77494   -0.04274    9    orth
   11      0.617D-07      0.588D-08      -116.28170986    154.547258    0.08416   -0.77494   -0.04274    9    diag
   12      0.559D-08      0.150D-08      -116.28170986    154.547258    0.08416   -0.77494   -0.04274    0    orth

 Final occupancy:  10

 !RHF STATE  1.1 Energy              -116.281709857711
 Nuclear energy                        35.93228190
 One-electron energy                 -229.48762053
 Two-electron energy                   77.27362878
 Virial quotient                       -1.00062648
 !RHF STATE  1.1 Dipole moment          0.08415951    -0.77493691    -0.04273753
 Dipole moment /Debye                   0.21389813    -1.96956416    -0.10862085

 Orbital energies:

         1.1          2.1          3.1          4.1          5.1          6.1          7.1          8.1          9.1         10.1
    -20.567580   -11.188709    -1.342805    -0.943650    -0.709181    -0.580793    -0.545171    -0.541731    -0.541273    -0.509289

        11.1         12.1
      0.020339     0.031501


 HOMO     10.1    -0.509289 =     -13.8585eV
 LUMO     11.1     0.020339 =       0.5534eV
 LUMO-HOMO         0.529628 =      14.4119eV


 **********************************************************************************************************************************
 DATASETS  * FILE   NREC   LENGTH (MB)   RECORD NAMES
              1      18       49.80       500      610      700      900      950      970     1000      129      960     1100   
                                          VAR    BASINP    GEOM    SYMINP    ZMAT    AOBASIS   BASIS     P2S    ABASIS      S 
                                         1400     1410     1200     1210     1080     1600     1650     1700   
                                           T        V       H0       H01     AOSYM     SMH    MOLCAS    OPER   

              2       4       13.79       700     1000      520     2100   
                                         GEOM     BASIS   MCVARS     RHF  

 PROGRAMS   *        TOTAL    HF-SCF       INT
 CPU TIMES  *      3342.99   1712.26   1630.55
 REAL TIME  *      4207.25 SEC
 DISK USED  *       102.61 MB (local),      456.15 GB (total)
 SF USED    *         2.16 MB
 GA USED    *         0.00 MB       (max)       0.00 MB       (current)
 **********************************************************************************************************************************

 Basis set:  JKFIT                   
 Basis size:  1104
 Attributes:
 Sphericals:   T
 Basis set:  MP2FIT                  
 Basis size:  1246
 Attributes:
 Sphericals:   T
 Basis set:  RI                      
 Basis size:   730
 Attributes:
 Sphericals:   T
 Basis set:  TDDFT                   
 Basis size:  1246
 Attributes:
 Sphericals:   T

 PROGRAM * CCSD (Closed-shell coupled cluster)     Authors: C. Hampel, H.-J. Werner, 1991, M. Deegan, P.J. Knowles, 1992

                                  CCSD-F12 implementation by  H.-J. Werner, 2007

                   Density fitting integral evaluation by F.R. Manby, 2003,2007, G. Knizia, 2010



 Convergence thresholds:  THRVAR = 1.00D-08  THRDEN = 1.00D-10

 CCSD(T)     terms to be evaluated (factor= 1.000)


 Number of core orbitals:           2 (   2 )
 Number of closed-shell orbitals:   8 (   8 )
 Number of external orbitals:     724 ( 724 )

 Molecular orbitals read from record     2100.2  Type=RHF/CANONICAL (state 1.1)

 MP2-F12 correlation treatment (H.-J. Werner, 2006)
 ==================================================

 Using MP2-F12 with ansatz 3C(FIX)

 Using projected zeroth-order Hamiltonian (+Z)

 FOCKRIB=T FOCKRIC=T FOCKRIP=T CABSP=T CABSA=T CABSK=T CABSF=T GBC=F EBC=F DMAT=T NOFIK=T NOPAO=1 SOLVE=-1  USEPAO=0
 EXCH_A= T EXCH_B= F EXCH_C= F EXCH_P= F

 Geminal basis:    OPTFULL  GEM_TYPE=SLATER  BETA=1.0  NGEM=6

 Optimizing Gaussian exponents for each gem_beta

 Geminal optimization for beta= 1.0000
 Weight function:   m=0, omega= 1.4646

 Augmented Hessian optimization of geminal fit. Trust ratio= 0.40000
 Convergence reached after   2 iterations. Final gradient= 8.53D-16, Step= 4.26D-06, Delta= 1.28D-09

 Alpha:                 0.19532     0.81920     2.85917     9.50073    35.69989   197.79328
 Coeff:                 0.27070     0.30552     0.18297     0.10986     0.06810     0.04224


 All pairs explicitly correlated. Number of r12-pairs:           36

 Excluding core orbitals from MO domains

 AO(A)-basis ORBITAL           loaded. Number of functions:     734
 RI(R)-basis RI                loaded. Number of functions:     730
 DF-basis JKFIT                loaded. Number of functions:    1104

 Screening thresholds:   THRAO=  1.00D-10  THRMO=  1.00D-09  THRPROD=  1.00D-09
                         THRSW=  1.00D-05  THROV=  1.00D-12  THRAOF12= 1.00D-10

 CPU time for Fock operators                      9.77 sec

 Construction of ABS:
 Smallest eigenvalue of S          2.26E-04  (threshold= 1.00E-08)
 Ratio eigmin/eigmax               3.93E-05  (threshold= 1.00E-09)
 Smallest eigenvalue of S kept     2.26E-04  (threshold= 2.26E-04, 0 functions deleted, 730 kept)

 Construction of CABS:
 Smallest eigenvalue of S          1.01E-08  (threshold= 1.00E-08)
 Ratio eigmin/eigmax               1.01E-08  (threshold= 1.00E-09)
 Smallest eigenvalue of S kept     1.01E-08  (threshold= 1.01E-08, 0 functions deleted, 730 kept)

 CPU time for CABS singles                        1.20 sec

 CABS-singles contribution of  -0.00007998 patched into reference energy.
 New reference energy        -116.28178984

 AO(A)-basis ORBITAL           loaded. Number of functions:     734
 RI(R)-basis RI                loaded. Number of functions:     730
 DF-basis MP2FIT               loaded. Number of functions:    1246

 Screening thresholds:   THRAO=  1.00D-10  THRMO=  1.00D-09  THRPROD=  1.00D-09
                         THRSW=  1.00D-05  THROV=  1.00D-12  THRAOF12= 1.00D-10

 CPU time for 3-index integral evaluation        28.41 sec
 CPU time for first  half transformation          3.73 sec ( 7906.9 MFLOP/sec)
 CPU time for second half transformation          0.09 sec ( 2378.8 MFLOP/sec)
 CPU time for sorting                             0.33 sec
 CPU time for fitting                             0.35 sec (26508.1 MFLOP/sec)
 CPU time for tilde quantities                    0.52 sec (26488.3 MFLOP/sec)
 CPU time for assembly                            4.58 sec (27808.9 MFLOP/sec)
 CPU time for tranop_f12                          5.95 sec (28040.8 MFLOP/sec)
 CPU time for f12 integrals (total)              52.05 sec, Elapsed time:     56.58 sec
 F12-matrices built in  4 passes.
 F12-matrices built in  4 passes.
 F12-matrices built in  4 passes.
 F12-matrices built in  4 passes.
 FC-matrix built in  4 passes.
 CPU time for f12 matrices (total)                4.71 sec, Elapsed time:      4.95 sec

 Diagonal F12 approximation with fixed coefficients:  TSING= 0.500,  TTRIP= 0.250 (scaled by -1/beta)

 DF-MP2-F12 energy corrections:
 ==============================
 Approx.                                    Singlet             Triplet             Total
 DF-MP2-F12/3*C(DX,FIX)                -0.011204273718     -0.000787054204     -0.011991327922
 DF-MP2-F12/3*C(FIX)                   -0.010395740168     -0.000516077483     -0.010911817651
 DF-MP2-F12/3C(FIX)                    -0.010508580478     -0.000531550227     -0.011040130704

 DF-MP2-F12 correlation energies:
 ================================
 Approx.                                    Singlet             Triplet             Ecorr            Total Energy
 DF-MP2                                -0.350120661582     -0.159530021351     -0.509650682932   -116.791440518458
 DF-MP2-F12/3*C(DX,FIX)                -0.361324935300     -0.160317075554     -0.521642010854   -116.803431846379
 DF-MP2-F12/3*C(FIX)                   -0.360516401749     -0.160046098834     -0.520562500583   -116.802352336108
 DF-MP2-F12/3C(FIX)                    -0.360629242059     -0.160061571578     -0.520690813637   -116.802480649162

 SCS-DF-MP2 energies (F_SING= 1.20000  F_TRIP= 0.62222  F_PARALLEL= 0.33333):
 ============================================================================
 SCS-DF-MP2                            -0.519407918294   -116.801197753819
 SCS-DF-MP2-F12/3*C(DX,FIX)            -0.533342769371   -116.815132604896
 SCS-DF-MP2-F12/3*C(FIX)               -0.532203921374   -116.813993756899
 SCS-DF-MP2-F12/3C(FIX)                -0.532348957230   -116.814138792756
 Symmetry transformation completed.

 Number of N-1 electron functions:               8
 Number of N-2 electron functions:              36
 Number of singly external CSFs:              5792
 Number of doubly external CSFs:          16776528
 Total number of CSFs:                    16782321

 Pair and operator lists are different

 Length of J-op  integral file:               1.47 GB
 Length of K-op  integral file:               2.18 GB
 Length of 3-ext integral record:             0.00 MB

 For full I/O caching in triples, increase memory by 34.16 Mwords to 4034.21 Mwords.

 Integral transformation finished. Total CPU:1094.70 sec, npass=  1  Memory used:1826.21 MW

 Reference energy:                   -116.28178984

 Adding F12 terms to K(Cij), methodcc=6,  factor= 1.0

 ITER.      SQ.NORM     CORR.ENERGY   TOTAL ENERGY   ENERGY CHANGE        DEN1      VAR(S)    VAR(P)  DIIS     TIME  TIME/IT
   1      1.13413753    -0.52163339  -116.80342323    -0.01196985    -0.00007065  0.14D-02  0.20D-02  1  1  1455.59   300.35
   2      1.14235039    -0.52267757  -116.80446740    -0.00104417    -0.01017826  0.33D-04  0.25D-03  2  2  1748.24   304.65
   3      1.14557669    -0.52284214  -116.80463197    -0.00016457    -0.00235354  0.11D-04  0.14D-04  3  3  2042.48   306.85
   4      1.14652934    -0.52284767  -116.80463751    -0.00000553    -0.00052740  0.67D-06  0.12D-05  4  4  2340.86   309.04
   5      1.14669537    -0.52284950  -116.80463934    -0.00000183    -0.00004169  0.19D-06  0.91D-07  5  5  2636.86   309.76
   6      1.14673997    -0.52284683  -116.80463666     0.00000268    -0.00000775  0.21D-07  0.78D-08  6  6  2934.48   310.64
   7      1.14675018    -0.52284565  -116.80463549     0.00000117    -0.00000245  0.21D-08  0.94D-09  6  2  3229.14   310.79
   8      1.14675283    -0.52284544  -116.80463527     0.00000022    -0.00000031  0.29D-09  0.91D-10  6  1  3515.11   309.83
   9      1.14675365    -0.52284540  -116.80463524     0.00000003    -0.00000003  0.23D-10  0.15D-10  6  3  3801.95   309.16
  10      1.14675377    -0.52284541  -116.80463524    -0.00000001     0.00000010  0.23D-11  0.16D-11  6  4  4090.42   308.78
  11      1.14675375    -0.52284541  -116.80463525    -0.00000001     0.00000007  0.34D-12  0.22D-12  6  5  4375.95   308.18
  12      1.14675372    -0.52284541  -116.80463525    -0.00000000     0.00000002  0.70D-13  0.29D-13  6  6  4662.78   307.83
  13      1.14675370    -0.52284542  -116.80463525    -0.00000000     0.00000001  0.14D-13  0.38D-14  6  2  4950.60   307.61
  14      1.14675370    -0.52284542  -116.80463525    -0.00000000     0.00000000  0.24D-14  0.80D-15  6  1  5238.50   307.40
  15      1.14675370    -0.52284542  -116.80463525    -0.00000000     0.00000000  0.32D-15  0.13D-15  6  3  5527.47   307.26
  16      1.14675370    -0.52284542  -116.80463525    -0.00000000    -0.00000000  0.50D-16  0.21D-16  6  4  5819.82   307.37
  17      1.14675370    -0.52284542  -116.80463525    -0.00000000    -0.00000000  0.15D-16  0.51D-17  6  5  6104.82   307.05

 Norm of t1 vector:      0.04936135      S-energy:    -0.00000000      T1 diagnostic:  0.00872594
                                                                       D1 diagnostic:  0.01884858

 Adding energy correction from Wij-K(Fij), methodcc=6  factor= 1.0

  CCSD correlation energy              -0.522845416471
  MP2-F12 correction (uncoupled)       -0.010857485843
  C*T doubles correction               -0.000162312176
  f12b correction                       0.002685568147

   CPU time for triples:   2258.99 sec for i =  1 -  6 /  8 (~  44.6 % done)
   CPU time for triples:   2264.12 sec for i =  7 -  8 /  8 (  100.0 % done)

 Total CPU time for triples:   4643.80 sec

  Ecorr(MP2)                           -0.509663536445
  Ecorr(MP2-F12)                       -0.520703667149
  Scale factor for triples energy       1.021661605971


 RESULTS
 =======

  Reference energy                   -116.281709857717
  F12 singles correction               -0.000079977808

 F12 singles corrections added to reference energy

  New reference energy               -116.281789835525

  F12a singlet correction              -0.010447747864
  F12a triplet correction              -0.000572050155
  F12a total correction                -0.011019798019

 F12a corrections for ansatz F12/3C(FIX) added to CCSD energy

  CCSD-F12a singlet pair energy        -0.387455629068
  CCSD-F12a triplet pair energy        -0.146409585215
  CCSD-F12a correlation energy         -0.533865214491

  Triples (T) contribution (scaled)    -0.017241945494
  Total correlation energy             -0.551107159985

  CCSD-F12a total energy             -116.815655050016
  CCSD[T]-F12a energy                -116.833451012715
  CCSD-T-F12a energy                 -116.832689266720
 !CCSD(T)-F12a total energy          -116.832896995510

 F12b corrections for ansatz F12/3C(FIX) added to CCSD(T)-F12a energy

  CCSD-F12b singlet pair energy        -0.384862840703
  CCSD-F12b triplet pair energy        -0.146316805434
  CCSD-F12b correlation energy         -0.531179646344

  Triples (T) contribution (scaled)    -0.017241945494
  Total correlation energy             -0.548421591838

  CCSD-F12b total energy             -116.812969481869
  CCSD[T]-F12b energy                -116.830765444568
  CCSD-T-F12b energy                 -116.830003698573
 !CCSD(T)-F12b total energy          -116.830211427364

 Timing summary (sec):

 STEP                 CPU(USER)    SYS     CPU(TOT)    WALL
 Transformation       1096.34     50.60   1146.94   1150.30
 CCSD iterations      4936.77    282.56   5219.33   5220.51
 Triples              4643.80     28.09   4671.89   4673.86
 MP2-F12                71.95      5.53     77.48     77.86
 F12b energy           264.51     13.65    278.16    278.23

 Program statistics:

 Available memory in ccsd:              3999999554
 Min. memory needed in ccsd:              48689265
 Max. memory used in ccsd:                63255345
 Max. memory used in cckext:              42753482 (18 integral passes)



 **********************************************************************************************************************************
 DATASETS  * FILE   NREC   LENGTH (MB)   RECORD NAMES
              1      19    12452.16       500      610      700      900      950      970     1000      129      960     1100   
                                          VAR    BASINP    GEOM    SYMINP    ZMAT    AOBASIS   BASIS     P2S    ABASIS      S 
                                         1400     1410     1200     1210     1080     1600     1650     1700     1380   
                                           T        V       H0       H01     AOSYM     SMH    MOLCAS    OPER     JKOP   

              2       6       24.59       700     1000      520     2100     7360     7350   
                                         GEOM     BASIS   MCVARS     RHF    F12ABS    EF12   

 PROGRAMS   *        TOTAL   CCSD(T)    HF-SCF       INT
 CPU TIMES  *     14356.54  11013.54   1712.26   1630.55
 REAL TIME  *     15610.73 SEC
 DISK USED  *        14.29 GB (local),      507.46 GB (total)
 SF USED    *        17.68 GB
 GA USED    *         4.87 MB       (max)       0.00 MB       (current)
 **********************************************************************************************************************************

 Running procedure: SET_MONOMER1

 Dummy atoms: C1  H41  H42  H43  H44


 Recomputing one-electron integrals since nuclear charges changed


 PROGRAM * SEWARD (Integral evaluation for generally contracted gaussian basis sets)     Author: Roland Lindh, 1990

 Geometry written to block  1 of record 700


 Point group  C1  



 ATOMIC COORDINATES

 NR  ATOM    CHARGE       X              Y              Z

   1  O15     8.00  -11.361600379   -2.507477595    1.791460366
   2  H29     1.00   -9.723585774   -3.405286476    1.799586188
   3  H30     1.00  -12.627338937   -3.816112936    1.666171524
   4  C1      0.00   -6.193010455    2.801518980    2.403542658
   5  H41     0.00   -4.656285171    1.699997622    3.119937832
   6  H42     0.00   -5.973046335    4.726205038    2.982932688
   7  H43     0.00   -7.940251230    2.077186956    3.118237078
   8  H44     0.00   -6.176569838    2.685300823    0.384937212

 Bond lengths in Bohr (Angstrom)

 1-2  1.867945037  1-3  1.824915847  4-5  2.021904040  4-6  2.022002335  4-7  2.021953343
     ( 0.988473945)     ( 0.965703878)     ( 1.069945541)     ( 1.069997556)     ( 1.069971630)

 4-8  2.022015060
     ( 1.070004290)

 Bond angles

  2-1-3  105.29843553   5-4-6  109.53398059   5-4-7  109.65604535   5-4-8  108.43490854

  6-4-7  109.49436728   6-4-8  109.86987750   7-4-8  109.83468330

 NUCLEAR CHARGE:                   10
 NUMBER OF PRIMITIVE AOS:        1046
 NUMBER OF SYMMETRY AOS:          786
 NUMBER OF CONTRACTIONS:          734   (  734A   )
 NUMBER OF CORE ORBITALS:           1   (    1A   )
 NUMBER OF VALENCE ORBITALS:        6   (    6A   )

 MOLECULE CHANGED: INITIALIZING OCCUPATION AND DUMP RECORDS


 NUCLEAR REPULSION ENERGY    9.00717880

 Basis set:  JKFIT                   
 Basis size:  1104
 Attributes:
 Sphericals:   T
 Basis set:  MP2FIT                  
 Basis size:  1246
 Attributes:
 Sphericals:   T
 Basis set:  RI                      
 Basis size:   730
 Attributes:
 Sphericals:   T
 Basis set:  TDDFT                   
 Basis size:  1246
 Attributes:
 Sphericals:   T

 Eigenvalues of metric

         1 0.189E-05 0.234E-05 0.355E-05 0.405E-05 0.546E-05 0.712E-05 0.819E-05 0.920E-05


 Contracted 2-electron integrals neglected if value below      1.0D-14

 OPERATOR DM      FOR CENTER  0  COORDINATES:    0.000000    0.000000    0.000000


 **********************************************************************************************************************************
 DATASETS  * FILE   NREC   LENGTH (MB)   RECORD NAMES
              1      18       49.80       500      610      700      900      950      970     1000      129      960     1100   
                                          VAR    BASINP    GEOM    SYMINP    ZMAT    AOBASIS   BASIS     P2S    ABASIS      S 
                                         1400     1410     1200     1210     1080     1600     1650     1700   
                                           T        V       H0       H01     AOSYM     SMH    MOLCAS    OPER   

              2       7       24.61       700     1000      520     2100     7360     7350      200   
                                         GEOM     BASIS   MCVARS     RHF    F12ABS    EF12    OPTIONS    

 PROGRAMS   *        TOTAL       INT   CCSD(T)    HF-SCF       INT
 CPU TIMES  *     14357.09      0.54  11013.54   1712.26   1630.55
 REAL TIME  *     15613.34 SEC
 DISK USED  *        14.29 GB (local),      507.46 GB (total)
 SF USED    *        17.68 GB
 GA USED    *         4.87 MB       (max)       0.00 MB       (current)
 **********************************************************************************************************************************


 PROGRAM * RHF-SCF (CLOSED SHELL)       Authors: W. Meyer, H.-J. Werner


 NUMBER OF ELECTRONS:       5+    5-    SPACE SYMMETRY=1    SPIN SYMMETRY: Singlet 
 CONVERGENCE THRESHOLDS:    1.00E-08 (Density)    1.00E-11 (Energy)
 MAX. NUMBER OF ITERATIONS:       60
 INTERPOLATION TYPE:            DIIS
 INTERPOLATION STEPS:              2 (START)      1 (STEP)
 LEVEL SHIFTS:                  0.00 (CLOSED)  0.00 (OPEN) 



 Orbital guess generated from atomic densities. Full valence occupancy:    7

 Molecular orbital dump at record        2101.2

 Initial occupancy:   5

 ITERATION    DDIFF          GRAD             ENERGY        2-EL.EN.            DIPOLE MOMENTS         DIIS   ORB.
    1      0.000D+00      0.000D+00       -76.02631466     77.431285    0.19841   -1.13019   -0.05973    0    start
    2      0.000D+00      0.360D-02       -76.05314869     73.773535    0.10825   -0.65773   -0.03504    1    diag
    3      0.130D-02      0.229D-02       -76.06473262     75.397855    0.12928   -0.77583   -0.04127    2    diag
    4      0.494D-03      0.215D-03       -76.06492770     75.306390    0.12709   -0.77129   -0.04108    3    diag
    5      0.636D-04      0.602D-04       -76.06494875     75.320916    0.12622   -0.76963   -0.04101    4    diag
    6      0.208D-04      0.120D-04       -76.06495013     75.319843    0.12596   -0.76925   -0.04100    5    diag
    7      0.557D-05      0.246D-05       -76.06495021     75.319987    0.12589   -0.76913   -0.04100    6    diag
    8      0.150D-05      0.468D-06       -76.06495021     75.319975    0.12587   -0.76909   -0.04099    7    diag
    9      0.281D-06      0.639D-07       -76.06495021     75.319966    0.12587   -0.76909   -0.04099    8    diag
   10      0.430D-07      0.144D-07       -76.06495021     75.319969    0.12587   -0.76909   -0.04099    9    orth
   11      0.111D-07      0.296D-08       -76.06495021     75.319969    0.12587   -0.76909   -0.04099    9    diag
   12      0.189D-08      0.575D-09       -76.06495021     75.319969    0.12587   -0.76909   -0.04099    0    orth

 Final occupancy:   5

 !RHF STATE  1.1 Energy               -76.064950207257
 Nuclear energy                         9.00717880
 One-electron energy                 -122.73211327
 Two-electron energy                   37.65998426
 Virial quotient                       -1.00186963
 !RHF STATE  1.1 Dipole moment          0.12587066    -0.76908601    -0.04099330
 Dipole moment /Debye                   0.31991035    -1.95469363    -0.10418774

 Orbital energies:

         1.1          2.1          3.1          4.1          5.1          6.1          7.1
    -20.567064    -1.342185    -0.708528    -0.579603    -0.508693     0.018033     0.029031


 HOMO      5.1    -0.508693 =     -13.8422eV
 LUMO      6.1     0.018033 =       0.4907eV
 LUMO-HOMO         0.526726 =      14.3329eV


 **********************************************************************************************************************************
 DATASETS  * FILE   NREC   LENGTH (MB)   RECORD NAMES
              1      18       49.80       500      610      700      900      950      970     1000      129      960     1100   
                                          VAR    BASINP    GEOM    SYMINP    ZMAT    AOBASIS   BASIS     P2S    ABASIS      S 
                                         1400     1410     1200     1210     1080     1600     1650     1700   
                                           T        V       H0       H01     AOSYM     SMH    MOLCAS    OPER   

              2       8       38.39       700     1000      520     2100     7360     7350      200     2101   
                                         GEOM     BASIS   MCVARS     RHF    F12ABS    EF12    OPTIONS    RHF  

 PROGRAMS   *        TOTAL    HF-SCF       INT   CCSD(T)    HF-SCF       INT
 CPU TIMES  *     16057.69   1700.60      0.54  11013.54   1712.26   1630.55
 REAL TIME  *     17480.95 SEC
 DISK USED  *        14.29 GB (local),      507.46 GB (total)
 SF USED    *        17.68 GB
 GA USED    *         4.87 MB       (max)       0.00 MB       (current)
 **********************************************************************************************************************************

 Basis set:  JKFIT                   
 Basis size:  1104
 Attributes:
 Sphericals:   T
 Basis set:  MP2FIT                  
 Basis size:  1246
 Attributes:
 Sphericals:   T
 Basis set:  RI                      
 Basis size:   730
 Attributes:
 Sphericals:   T
 Basis set:  TDDFT                   
 Basis size:  1246
 Attributes:
 Sphericals:   T

 PROGRAM * CCSD (Closed-shell coupled cluster)     Authors: C. Hampel, H.-J. Werner, 1991, M. Deegan, P.J. Knowles, 1992

                                  CCSD-F12 implementation by  H.-J. Werner, 2007

                   Density fitting integral evaluation by F.R. Manby, 2003,2007, G. Knizia, 2010



 Convergence thresholds:  THRVAR = 1.00D-08  THRDEN = 1.00D-10

 CCSD(T)     terms to be evaluated (factor= 1.000)


 Number of core orbitals:           1 (   1 )
 Number of closed-shell orbitals:   4 (   4 )
 Number of external orbitals:     729 ( 729 )

 Molecular orbitals read from record     2101.2  Type=RHF/CANONICAL (state 1.1)

 MP2-F12 correlation treatment (H.-J. Werner, 2006)
 ==================================================

 Using MP2-F12 with ansatz 3C(FIX)

 Using projected zeroth-order Hamiltonian (+Z)

 FOCKRIB=T FOCKRIC=T FOCKRIP=T CABSP=T CABSA=T CABSK=T CABSF=T GBC=F EBC=F DMAT=T NOFIK=T NOPAO=1 SOLVE=-1  USEPAO=0
 EXCH_A= T EXCH_B= F EXCH_C= F EXCH_P= F

 Geminal basis:    OPTFULL  GEM_TYPE=SLATER  BETA=1.0  NGEM=6

 Optimizing Gaussian exponents for each gem_beta

 Geminal optimization for beta= 1.0000
 Weight function:   m=0, omega= 1.4646

 Augmented Hessian optimization of geminal fit. Trust ratio= 0.40000
 Convergence reached after   2 iterations. Final gradient= 8.53D-16, Step= 4.26D-06, Delta= 1.28D-09

 Alpha:                 0.19532     0.81920     2.85917     9.50073    35.69989   197.79328
 Coeff:                 0.27070     0.30552     0.18297     0.10986     0.06810     0.04224


 All pairs explicitly correlated. Number of r12-pairs:           10

 Excluding core orbitals from MO domains

 AO(A)-basis ORBITAL           loaded. Number of functions:     734
 RI(R)-basis RI                loaded. Number of functions:     730
 DF-basis JKFIT                loaded. Number of functions:    1104

 Screening thresholds:   THRAO=  1.00D-10  THRMO=  1.00D-09  THRPROD=  1.00D-09
                         THRSW=  1.00D-05  THROV=  1.00D-12  THRAOF12= 1.00D-10

 CPU time for Fock operators                      9.08 sec

 Construction of ABS:
 Smallest eigenvalue of S          2.26E-04  (threshold= 1.00E-08)
 Ratio eigmin/eigmax               3.93E-05  (threshold= 1.00E-09)
 Smallest eigenvalue of S kept     2.26E-04  (threshold= 2.26E-04, 0 functions deleted, 730 kept)

 Construction of CABS:
 Smallest eigenvalue of S          1.01E-08  (threshold= 1.00E-08)
 Ratio eigmin/eigmax               1.01E-08  (threshold= 1.00E-09)
 Smallest eigenvalue of S kept     1.01E-08  (threshold= 1.01E-08, 0 functions deleted, 730 kept)

 CPU time for CABS singles                        1.21 sec

 CABS-singles contribution of  -0.00003902 patched into reference energy.
 New reference energy         -76.06498923

 AO(A)-basis ORBITAL           loaded. Number of functions:     734
 RI(R)-basis RI                loaded. Number of functions:     730
 DF-basis MP2FIT               loaded. Number of functions:    1246

 Screening thresholds:   THRAO=  1.00D-10  THRMO=  1.00D-09  THRPROD=  1.00D-09
                         THRSW=  1.00D-05  THROV=  1.00D-12  THRAOF12= 1.00D-10

 CPU time for 3-index integral evaluation        28.34 sec
 CPU time for first  half transformation          3.34 sec ( 4370.1 MFLOP/sec)
 CPU time for second half transformation          0.03 sec ( 2052.0 MFLOP/sec)
 CPU time for sorting                             0.16 sec
 CPU time for fitting                             0.28 sec ( 8195.1 MFLOP/sec)
 CPU time for tilde quantities                    0.55 sec (12493.5 MFLOP/sec)
 CPU time for assembly                            1.44 sec (22301.3 MFLOP/sec)
 CPU time for tranop_f12                          1.69 sec (21976.0 MFLOP/sec)
 CPU time for f12 integrals (total)              38.60 sec, Elapsed time:     40.49 sec
 F12-matrices built in  4 passes.
 F12-matrices built in  4 passes.
 F12-matrices built in  4 passes.
 F12-matrices built in  4 passes.
 FC-matrix built in  4 passes.
 CPU time for f12 matrices (total)                1.38 sec, Elapsed time:      1.44 sec

 Diagonal F12 approximation with fixed coefficients:  TSING= 0.500,  TTRIP= 0.250 (scaled by -1/beta)

 DF-MP2-F12 energy corrections:
 ==============================
 Approx.                                    Singlet             Triplet             Total
 DF-MP2-F12/3*C(DX,FIX)                -0.007264232233     -0.000572638046     -0.007836870280
 DF-MP2-F12/3*C(FIX)                   -0.006618722235     -0.000353543306     -0.006972265541
 DF-MP2-F12/3C(FIX)                    -0.006684351254     -0.000365743649     -0.007050094903

 DF-MP2-F12 correlation energies:
 ================================
 Approx.                                    Singlet             Triplet             Ecorr            Total Energy
 DF-MP2                                -0.192115946084     -0.102245425205     -0.294361371290    -76.359350600076
 DF-MP2-F12/3*C(DX,FIX)                -0.199380178318     -0.102818063251     -0.302198241569    -76.367187470355
 DF-MP2-F12/3*C(FIX)                   -0.198734668319     -0.102598968511     -0.301333636830    -76.366322865616
 DF-MP2-F12/3C(FIX)                    -0.198800297338     -0.102611168855     -0.301411466193    -76.366400694979

 SCS-DF-MP2 energies (F_SING= 1.20000  F_TRIP= 0.62222  F_PARALLEL= 0.33333):
 ============================================================================
 SCS-DF-MP2                            -0.294158510984    -76.359147739771
 SCS-DF-MP2-F12/3*C(DX,FIX)            -0.303231897782    -76.368221126568
 SCS-DF-MP2-F12/3*C(FIX)               -0.302320960168    -76.367310188954
 SCS-DF-MP2-F12/3C(FIX)                -0.302407306315    -76.367396535101
 Symmetry transformation completed.

 Number of N-1 electron functions:               4
 Number of N-2 electron functions:              10
 Number of singly external CSFs:              2916
 Number of doubly external CSFs:           4252986
 Total number of CSFs:                     4255903

 Pair and operator lists are different

 Length of J-op  integral file:             411.24 MB
 Length of K-op  integral file:             721.81 MB
 Length of 3-ext integral record:             0.00 MB

 Memory could be reduced to 2535.14 Mwords without degradation in triples

 Integral transformation finished. Total CPU: 602.68 sec, npass=  1  Memory used:1009.99 MW

 Reference energy:                    -76.06498923

 Adding F12 terms to K(Cij), methodcc=6,  factor= 1.0

 ITER.      SQ.NORM     CORR.ENERGY   TOTAL ENERGY   ENERGY CHANGE        DEN1      VAR(S)    VAR(P)  DIIS     TIME  TIME/IT
   1      1.06360716    -0.29282257   -76.35781180     0.00154499     0.00759251  0.78D-03  0.10D-02  1  1   805.25   162.59
   2      1.06712449    -0.29291696   -76.35790619    -0.00009439    -0.00497226  0.15D-04  0.12D-03  2  2   960.63   166.12
   3      1.06845663    -0.29300905   -76.35799828    -0.00009209    -0.00094660  0.82D-05  0.72D-05  3  3  1110.91   165.58
   4      1.06896859    -0.29301452   -76.35800375    -0.00000547    -0.00027941  0.52D-06  0.72D-06  4  4  1263.46   165.71
   5      1.06907143    -0.29301326   -76.35800249     0.00000126    -0.00003001  0.16D-06  0.52D-07  5  5  1415.19   165.97
   6      1.06910528    -0.29301100   -76.35800023     0.00000226    -0.00000582  0.17D-07  0.43D-08  6  6  1564.00   165.57
   7      1.06911344    -0.29301047   -76.35799970     0.00000053    -0.00000125  0.12D-08  0.64D-09  6  2  1714.80   165.53
   8      1.06911519    -0.29301037   -76.35799960     0.00000010    -0.00000000  0.17D-09  0.64D-10  6  1  1863.75   165.23
   9      1.06911577    -0.29301034   -76.35799957     0.00000003     0.00000000  0.13D-10  0.77D-11  6  3  2016.82   165.46
  10      1.06911587    -0.29301033   -76.35799956     0.00000001     0.00000003  0.17D-11  0.81D-12  6  4  2168.83   165.52
  11      1.06911586    -0.29301033   -76.35799956    -0.00000000     0.00000003  0.33D-12  0.12D-12  6  5  2316.84   165.30
  12      1.06911585    -0.29301033   -76.35799956    -0.00000000     0.00000001  0.69D-13  0.18D-13  6  6  2466.10   165.18
  13      1.06911584    -0.29301034   -76.35799956    -0.00000000     0.00000000  0.11D-13  0.28D-14  6  2  2619.02   165.37
  14      1.06911584    -0.29301034   -76.35799956    -0.00000000     0.00000000  0.13D-14  0.61D-15  6  1  2773.46   165.62
  15      1.06911584    -0.29301034   -76.35799956    -0.00000000    -0.00000000  0.15D-15  0.86D-16  6  3  2930.17   166.00
  16      1.06911584    -0.29301034   -76.35799956    -0.00000000    -0.00000000  0.19D-16  0.11D-16  6  4  3087.17   166.34

 Norm of t1 vector:      0.03664784      S-energy:    -0.00000000      T1 diagnostic:  0.00916196
                                                                       D1 diagnostic:  0.01866873

 Adding energy correction from Wij-K(Fij), methodcc=6  factor= 1.0

  CCSD correlation energy              -0.293010336107
  MP2-F12 correction (uncoupled)       -0.006965875840
  C*T doubles correction               -0.000092608029
  f12b correction                       0.001582796147


 Total CPU time for triples:    655.72 sec

  Ecorr(MP2)                           -0.294367559121
  Ecorr(MP2-F12)                       -0.301417654024
  Scale factor for triples energy       1.023949972355


 RESULTS
 =======

  Reference energy                    -76.064950207255
  F12 singles correction               -0.000039021531

 F12 singles corrections added to reference energy

  New reference energy                -76.064989228786

  F12a singlet correction              -0.006659355817
  F12a triplet correction              -0.000399128052
  F12a total correction                -0.007058483869

 F12a corrections for ansatz F12/3C(FIX) added to CCSD energy

  CCSD-F12a singlet pair energy        -0.209289534193
  CCSD-F12a triplet pair energy        -0.090779285740
  CCSD-F12a correlation energy         -0.300068819976

  Triples (T) contribution (scaled)    -0.010034055833
  Total correlation energy             -0.310102875808

  CCSD-F12a total energy              -76.365058048762
  CCSD[T]-F12a energy                 -76.375408810844
  CCSD-T-F12a energy                  -76.374953288808
 !CCSD(T)-F12a total energy           -76.375092104594

 F12b corrections for ansatz F12/3C(FIX) added to CCSD(T)-F12a energy

  CCSD-F12b singlet pair energy        -0.207770073053
  CCSD-F12b triplet pair energy        -0.090715950733
  CCSD-F12b correlation energy         -0.298486023829

  Triples (T) contribution (scaled)    -0.010034055833
  Total correlation energy             -0.308520079661

  CCSD-F12b total energy              -76.363475252615
  CCSD[T]-F12b energy                 -76.373826014697
  CCSD-T-F12b energy                  -76.373370492661
 !CCSD(T)-F12b total energy           -76.373509308447

 Timing summary (sec):

 STEP                 CPU(USER)    SYS     CPU(TOT)    WALL
 Transformation        603.20     26.98    630.18    630.70
 CCSD iterations      2431.71    229.45   2661.16   2661.79
 Triples               655.72      6.23    661.95    662.02
 MP2-F12                52.46      2.52     54.98     55.04
 F12b energy           149.62     13.31    162.93    162.97

 Program statistics:

 Available memory in ccsd:              3999999871
 Min. memory needed in ccsd:              19260852
 Max. memory used in ccsd:                22423154
 Max. memory used in cckext:              14628952 (17 integral passes)



 **********************************************************************************************************************************
 DATASETS  * FILE   NREC   LENGTH (MB)   RECORD NAMES
              1      19     6330.34       500      610      700      900      950      970     1000      129      960     1100   
                                          VAR    BASINP    GEOM    SYMINP    ZMAT    AOBASIS   BASIS     P2S    ABASIS      S 
                                         1400     1410     1200     1210     1080     1600     1650     1700     1380   
                                           T        V       H0       H01     AOSYM     SMH    MOLCAS    OPER     JKOP   

              2       8       38.39       700     1000      520     2100     7360     7350      200     2101   
                                         GEOM     BASIS   MCVARS     RHF    F12ABS    EF12    OPTIONS    RHF  

 PROGRAMS   *        TOTAL   CCSD(T)    HF-SCF       INT   CCSD(T)    HF-SCF       INT
 CPU TIMES  *     19950.58   3892.87   1700.60      0.54  11013.54   1712.26   1630.55
 REAL TIME  *     21654.86 SEC
 DISK USED  *        14.29 GB (local),      507.46 GB (total)
 SF USED    *        17.68 GB
 GA USED    *         4.87 MB       (max)       0.00 MB       (current)
 **********************************************************************************************************************************

 Running procedure: SET_MONOMER2

 Dummy atoms: O15  H29  H30


 Recomputing one-electron integrals since nuclear charges changed


 PROGRAM * SEWARD (Integral evaluation for generally contracted gaussian basis sets)     Author: Roland Lindh, 1990

 Geometry written to block  1 of record 700


 Point group  C1  



 ATOMIC COORDINATES

 NR  ATOM    CHARGE       X              Y              Z

   1  O15     0.00  -11.361600379   -2.507477595    1.791460366
   2  H29     0.00   -9.723585774   -3.405286476    1.799586188
   3  H30     0.00  -12.627338937   -3.816112936    1.666171524
   4  C1      6.00   -6.193010455    2.801518980    2.403542658
   5  H41     1.00   -4.656285171    1.699997622    3.119937832
   6  H42     1.00   -5.973046335    4.726205038    2.982932688
   7  H43     1.00   -7.940251230    2.077186956    3.118237078
   8  H44     1.00   -6.176569838    2.685300823    0.384937212

 Bond lengths in Bohr (Angstrom)

 1-2  1.867945037  1-3  1.824915847  4-5  2.021904040  4-6  2.022002335  4-7  2.021953343
     ( 0.988473945)     ( 0.965703878)     ( 1.069945541)     ( 1.069997556)     ( 1.069971630)

 4-8  2.022015060
     ( 1.070004290)

 Bond angles

  2-1-3  105.29843553   5-4-6  109.53398059   5-4-7  109.65604535   5-4-8  108.43490854

  6-4-7  109.49436728   6-4-8  109.86987750   7-4-8  109.83468330

 NUCLEAR CHARGE:                   10
 NUMBER OF PRIMITIVE AOS:        1046
 NUMBER OF SYMMETRY AOS:          786
 NUMBER OF CONTRACTIONS:          734   (  734A   )
 NUMBER OF CORE ORBITALS:           1   (    1A   )
 NUMBER OF VALENCE ORBITALS:        8   (    8A   )

 MOLECULE CHANGED: INITIALIZING OCCUPATION AND DUMP RECORDS


 NUCLEAR REPULSION ENERGY   13.68681606

 Basis set:  JKFIT                   
 Basis size:  1104
 Attributes:
 Sphericals:   T
 Basis set:  MP2FIT                  
 Basis size:  1246
 Attributes:
 Sphericals:   T
 Basis set:  RI                      
 Basis size:   730
 Attributes:
 Sphericals:   T
 Basis set:  TDDFT                   
 Basis size:  1246
 Attributes:
 Sphericals:   T

 Eigenvalues of metric

         1 0.189E-05 0.234E-05 0.355E-05 0.405E-05 0.546E-05 0.712E-05 0.819E-05 0.920E-05


 Contracted 2-electron integrals neglected if value below      1.0D-14

 OPERATOR DM      FOR CENTER  0  COORDINATES:    0.000000    0.000000    0.000000


 **********************************************************************************************************************************
 DATASETS  * FILE   NREC   LENGTH (MB)   RECORD NAMES
              1      18       49.80       500      610      700      900      950      970     1000      129      960     1100   
                                          VAR    BASINP    GEOM    SYMINP    ZMAT    AOBASIS   BASIS     P2S    ABASIS      S 
                                         1400     1410     1200     1210     1080     1600     1650     1700   
                                           T        V       H0       H01     AOSYM     SMH    MOLCAS    OPER   

              2       8       38.39       700     1000      520     2100     7360     7350      200     2101   
                                         GEOM     BASIS   MCVARS     RHF    F12ABS    EF12    OPTIONS    RHF  

 PROGRAMS   *        TOTAL       INT   CCSD(T)    HF-SCF       INT   CCSD(T)    HF-SCF       INT
 CPU TIMES  *     19951.13      0.54   3892.87   1700.60      0.54  11013.54   1712.26   1630.55
 REAL TIME  *     21656.42 SEC
 DISK USED  *        14.29 GB (local),      507.46 GB (total)
 SF USED    *        17.68 GB
 GA USED    *         4.87 MB       (max)       0.00 MB       (current)
 **********************************************************************************************************************************


 PROGRAM * RHF-SCF (CLOSED SHELL)       Authors: W. Meyer, H.-J. Werner


 NUMBER OF ELECTRONS:       5+    5-    SPACE SYMMETRY=1    SPIN SYMMETRY: Singlet 
 CONVERGENCE THRESHOLDS:    1.00E-08 (Density)    1.00E-11 (Energy)
 MAX. NUMBER OF ITERATIONS:       60
 INTERPOLATION TYPE:            DIIS
 INTERPOLATION STEPS:              2 (START)      1 (STEP)
 LEVEL SHIFTS:                  0.00 (CLOSED)  0.00 (OPEN) 



 Orbital guess generated from atomic densities. Full valence occupancy:    9

 Molecular orbital dump at record        2102.2

 Initial occupancy:   5

 ITERATION    DDIFF          GRAD             ENERGY        2-EL.EN.            DIPOLE MOMENTS         DIIS   ORB.
    1      0.000D+00      0.000D+00       -40.19676522     53.509902    0.00411   -0.00276   -0.00131    0    start
    2      0.000D+00      0.198D-02       -40.21405741     52.218477    0.00129   -0.00087   -0.00039    1    diag
    3      0.946D-03      0.769D-03       -40.21634084     52.673984    0.00182   -0.00123   -0.00056    2    diag
    4      0.259D-03      0.192D-03       -40.21666117     52.619247    0.00162   -0.00110   -0.00049    3    diag
    5      0.997D-04      0.248D-04       -40.21666665     52.621405    0.00159   -0.00108   -0.00048    4    diag
    6      0.339D-04      0.204D-05       -40.21666669     52.621533    0.00159   -0.00108   -0.00048    5    diag
    7      0.603D-05      0.166D-06       -40.21666669     52.621495    0.00159   -0.00108   -0.00048    6    diag
    8      0.360D-06      0.136D-07       -40.21666669     52.621496    0.00159   -0.00108   -0.00048    7    diag
    9      0.547D-07      0.167D-08       -40.21666669     52.621496    0.00159   -0.00108   -0.00048    8    diag
   10      0.104D-07      0.465D-09       -40.21666669     52.621496    0.00159   -0.00108   -0.00048    9    orth
   11      0.109D-08      0.667D-10       -40.21666669     52.621496    0.00159   -0.00108   -0.00048    0    orth

 Final occupancy:   5

 !RHF STATE  1.1 Energy               -40.216666692287
 Nuclear energy                        13.68681606
 One-electron energy                  -80.21423069
 Two-electron energy                   26.31074794
 Virial quotient                       -0.99832814
 !RHF STATE  1.1 Dipole moment          0.00158973    -0.00107985    -0.00047790
 Dipole moment /Debye                   0.00404042    -0.00274452    -0.00121463

 Orbital energies:

         1.1          2.1          3.1          4.1          5.1          6.1          7.1
    -11.196017    -0.950605    -0.551931    -0.549996    -0.547818     0.020586     0.031599


 HOMO      5.1    -0.547818 =     -14.9069eV
 LUMO      6.1     0.020586 =       0.5602eV
 LUMO-HOMO         0.568404 =      15.4671eV


 **********************************************************************************************************************************
 DATASETS  * FILE   NREC   LENGTH (MB)   RECORD NAMES
              1      18       49.80       500      610      700      900      950      970     1000      129      960     1100   
                                          VAR    BASINP    GEOM    SYMINP    ZMAT    AOBASIS   BASIS     P2S    ABASIS      S 
                                         1400     1410     1200     1210     1080     1600     1650     1700   
                                           T        V       H0       H01     AOSYM     SMH    MOLCAS    OPER   

              2       9       62.47       700     1000      520     2100     7360     7350      200     2101     2102   
                                         GEOM     BASIS   MCVARS     RHF    F12ABS    EF12    OPTIONS    RHF      RHF  

 PROGRAMS   *        TOTAL    HF-SCF       INT   CCSD(T)    HF-SCF       INT   CCSD(T)    HF-SCF       INT
 CPU TIMES  *     21627.05   1675.91      0.54   3892.87   1700.60      0.54  11013.54   1712.26   1630.55
 REAL TIME  *     23477.83 SEC
 DISK USED  *        14.29 GB (local),      507.46 GB (total)
 SF USED    *        17.68 GB
 GA USED    *         4.87 MB       (max)       0.00 MB       (current)
 **********************************************************************************************************************************

 Basis set:  JKFIT                   
 Basis size:  1104
 Attributes:
 Sphericals:   T
 Basis set:  MP2FIT                  
 Basis size:  1246
 Attributes:
 Sphericals:   T
 Basis set:  RI                      
 Basis size:   730
 Attributes:
 Sphericals:   T
 Basis set:  TDDFT                   
 Basis size:  1246
 Attributes:
 Sphericals:   T

 PROGRAM * CCSD (Closed-shell coupled cluster)     Authors: C. Hampel, H.-J. Werner, 1991, M. Deegan, P.J. Knowles, 1992

                                  CCSD-F12 implementation by  H.-J. Werner, 2007

                   Density fitting integral evaluation by F.R. Manby, 2003,2007, G. Knizia, 2010



 Convergence thresholds:  THRVAR = 1.00D-08  THRDEN = 1.00D-10

 CCSD(T)     terms to be evaluated (factor= 1.000)


 Number of core orbitals:           1 (   1 )
 Number of closed-shell orbitals:   4 (   4 )
 Number of external orbitals:     729 ( 729 )

 Molecular orbitals read from record     2102.2  Type=RHF/CANONICAL (state 1.1)

 MP2-F12 correlation treatment (H.-J. Werner, 2006)
 ==================================================

 Using MP2-F12 with ansatz 3C(FIX)

 Using projected zeroth-order Hamiltonian (+Z)

 FOCKRIB=T FOCKRIC=T FOCKRIP=T CABSP=T CABSA=T CABSK=T CABSF=T GBC=F EBC=F DMAT=T NOFIK=T NOPAO=1 SOLVE=-1  USEPAO=0
 EXCH_A= T EXCH_B= F EXCH_C= F EXCH_P= F

 Geminal basis:    OPTFULL  GEM_TYPE=SLATER  BETA=1.0  NGEM=6

 Optimizing Gaussian exponents for each gem_beta

 Geminal optimization for beta= 1.0000
 Weight function:   m=0, omega= 1.4646

 Augmented Hessian optimization of geminal fit. Trust ratio= 0.40000
 Convergence reached after   2 iterations. Final gradient= 8.53D-16, Step= 4.26D-06, Delta= 1.28D-09

 Alpha:                 0.19532     0.81920     2.85917     9.50073    35.69989   197.79328
 Coeff:                 0.27070     0.30552     0.18297     0.10986     0.06810     0.04224


 All pairs explicitly correlated. Number of r12-pairs:           10

 Excluding core orbitals from MO domains

 AO(A)-basis ORBITAL           loaded. Number of functions:     734
 RI(R)-basis RI                loaded. Number of functions:     730
 DF-basis JKFIT                loaded. Number of functions:    1104

 Screening thresholds:   THRAO=  1.00D-10  THRMO=  1.00D-09  THRPROD=  1.00D-09
                         THRSW=  1.00D-05  THROV=  1.00D-12  THRAOF12= 1.00D-10

 CPU time for Fock operators                      9.23 sec

 Construction of ABS:
 Smallest eigenvalue of S          2.26E-04  (threshold= 1.00E-08)
 Ratio eigmin/eigmax               3.93E-05  (threshold= 1.00E-09)
 Smallest eigenvalue of S kept     2.26E-04  (threshold= 2.26E-04, 0 functions deleted, 730 kept)

 Construction of CABS:
 Smallest eigenvalue of S          1.01E-08  (threshold= 1.00E-08)
 Ratio eigmin/eigmax               1.01E-08  (threshold= 1.00E-09)
 Smallest eigenvalue of S kept     1.01E-08  (threshold= 1.01E-08, 0 functions deleted, 730 kept)

 CPU time for CABS singles                        1.19 sec

 CABS-singles contribution of  -0.00004097 patched into reference energy.
 New reference energy         -40.21670766

 AO(A)-basis ORBITAL           loaded. Number of functions:     734
 RI(R)-basis RI                loaded. Number of functions:     730
 DF-basis MP2FIT               loaded. Number of functions:    1246

 Screening thresholds:   THRAO=  1.00D-10  THRMO=  1.00D-09  THRPROD=  1.00D-09
                         THRSW=  1.00D-05  THROV=  1.00D-12  THRAOF12= 1.00D-10

 CPU time for 3-index integral evaluation        28.81 sec
 CPU time for first  half transformation          2.71 sec ( 5335.7 MFLOP/sec)
 CPU time for second half transformation          0.03 sec ( 2159.9 MFLOP/sec)
 CPU time for sorting                             0.16 sec
 CPU time for fitting                             0.35 sec (26020.2 MFLOP/sec)
 CPU time for tilde quantities                    0.53 sec (12965.0 MFLOP/sec)
 CPU time for assembly                            1.37 sec (25400.6 MFLOP/sec)
 CPU time for tranop_f12                          1.79 sec (22072.6 MFLOP/sec)
 CPU time for f12 integrals (total)              38.66 sec, Elapsed time:     40.63 sec
 F12-matrices built in  4 passes.
 F12-matrices built in  4 passes.
 F12-matrices built in  4 passes.
 F12-matrices built in  4 passes.
 FC-matrix built in  4 passes.
 CPU time for f12 matrices (total)                1.35 sec, Elapsed time:      1.41 sec

 Diagonal F12 approximation with fixed coefficients:  TSING= 0.500,  TTRIP= 0.250 (scaled by -1/beta)

 DF-MP2-F12 energy corrections:
 ==============================
 Approx.                                    Singlet             Triplet             Total
 DF-MP2-F12/3*C(DX,FIX)                -0.003935353755     -0.000213161580     -0.004148515335
 DF-MP2-F12/3*C(FIX)                   -0.003772394878     -0.000161070147     -0.003933465025
 DF-MP2-F12/3C(FIX)                    -0.003819405464     -0.000164113711     -0.003983519175

 DF-MP2-F12 correlation energies:
 ================================
 Approx.                                    Singlet             Triplet             Ecorr            Total Energy
 DF-MP2                                -0.157867743970     -0.056824791331     -0.214692535301    -40.431400194809
 DF-MP2-F12/3*C(DX,FIX)                -0.161803097725     -0.057037952911     -0.218841050636    -40.435548710144
 DF-MP2-F12/3*C(FIX)                   -0.161640138849     -0.056985861477     -0.218626000326    -40.435333659834
 DF-MP2-F12/3C(FIX)                    -0.161687149434     -0.056988905042     -0.218676054476    -40.435383713983

 SCS-DF-MP2 energies (F_SING= 1.20000  F_TRIP= 0.62222  F_PARALLEL= 0.33333):
 ============================================================================
 SCS-DF-MP2                            -0.224798940703    -40.441506600211
 SCS-DF-MP2-F12/3*C(DX,FIX)            -0.229653999081    -40.446361658589
 SCS-DF-MP2-F12/3*C(FIX)               -0.229426035982    -40.446133695490
 SCS-DF-MP2-F12/3C(FIX)                -0.229484342458    -40.446192001965
 Symmetry transformation completed.

 Number of N-1 electron functions:               4
 Number of N-2 electron functions:              10
 Number of singly external CSFs:              2916
 Number of doubly external CSFs:           4252986
 Total number of CSFs:                     4255903

 Pair and operator lists are different

 Length of J-op  integral file:             411.24 MB
 Length of K-op  integral file:             721.81 MB
 Length of 3-ext integral record:             0.00 MB

 Memory could be reduced to 2535.14 Mwords without degradation in triples

 Integral transformation finished. Total CPU: 597.01 sec, npass=  1  Memory used:1009.99 MW

 Reference energy:                    -40.21670766

 Adding F12 terms to K(Cij), methodcc=6,  factor= 1.0

 ITER.      SQ.NORM     CORR.ENERGY   TOTAL ENERGY   ENERGY CHANGE        DEN1      VAR(S)    VAR(P)  DIIS     TIME  TIME/IT
   1      1.07033679    -0.22827128   -40.44497894    -0.01357203    -0.00771782  0.62D-03  0.94D-03  1  1   804.75   169.25
   2      1.07515861    -0.22922832   -40.44593598    -0.00095704    -0.00531222  0.16D-04  0.11D-03  2  2   961.48   170.28
   3      1.07694825    -0.22929568   -40.44600334    -0.00006736    -0.00133771  0.22D-05  0.64D-05  3  3  1110.63   168.03
   4      1.07735102    -0.22929813   -40.44600579    -0.00000245    -0.00021858  0.16D-06  0.39D-06  4  4  1266.25   168.55
   5      1.07740830    -0.22930170   -40.44600936    -0.00000357    -0.00000963  0.14D-07  0.24D-07  5  5  1415.54   167.56
   6      1.07741854    -0.22930034   -40.44600800     0.00000135    -0.00000405  0.88D-09  0.18D-08  6  6  1565.89   167.13
   7      1.07742005    -0.22929995   -40.44600761     0.00000039    -0.00000089  0.55D-10  0.13D-09  6  1  1714.61   166.57
   8      1.07741997    -0.22930001   -40.44600767    -0.00000006     0.00000024  0.59D-11  0.83D-11  6  3  1863.20   166.12
   9      1.07742012    -0.22930000   -40.44600766     0.00000002    -0.00000009  0.39D-12  0.56D-12  6  2  2013.95   166.11
  10      1.07742012    -0.22930000   -40.44600765     0.00000000     0.00000001  0.55D-13  0.61D-13  6  4  2165.03   166.05
  11      1.07742012    -0.22929999   -40.44600765     0.00000000    -0.00000000  0.56D-14  0.65D-14  6  5  2312.55   165.67
  12      1.07742012    -0.22929999   -40.44600765     0.00000000     0.00000000  0.15D-15  0.65D-15  6  6  2460.71   165.45
  13      1.07742012    -0.22929999   -40.44600765    -0.00000000     0.00000000  0.11D-16  0.71D-16  6  1  2612.08   165.48
  14      1.07742012    -0.22929999   -40.44600765    -0.00000000     0.00000000  0.16D-17  0.11D-16  6  3  2762.50   165.43

 Norm of t1 vector:      0.03268904      S-energy:     0.00000000      T1 diagnostic:  0.00817226
                                                                       D1 diagnostic:  0.01311255

 Adding energy correction from Wij-K(Fij), methodcc=6  factor= 1.0

  CCSD correlation energy              -0.229299993566
  MP2-F12 correction (uncoupled)       -0.003886109063
  C*T doubles correction               -0.000069144545
  f12b correction                       0.001100897228

 Total CPU time for triples:    665.27 sec

  Ecorr(MP2)                           -0.214699250668
  Ecorr(MP2-F12)                       -0.218682769843
  Scale factor for triples energy       1.018553950059


 RESULTS
 =======

  Reference energy                    -40.216666692287
  F12 singles correction               -0.000040967221

 F12 singles corrections added to reference energy

  New reference energy                -40.216707659508

  F12a singlet correction              -0.003783849091
  F12a triplet correction              -0.000171404517
  F12a total correction                -0.003955253608

 F12a corrections for ansatz F12/3C(FIX) added to CCSD energy

  CCSD-F12a singlet pair energy        -0.178096648626
  CCSD-F12a triplet pair energy        -0.055158598556
  CCSD-F12a correlation energy         -0.233255247174

  Triples (T) contribution (scaled)    -0.007109238970
  Total correlation energy             -0.240364486144

  CCSD-F12a total energy              -40.449962906681
  CCSD[T]-F12a energy                 -40.457307768707
  CCSD-T-F12a energy                  -40.457004300345
 !CCSD(T)-F12a total energy           -40.457072145651

 F12b corrections for ansatz F12/3C(FIX) added to CCSD(T)-F12a energy

  CCSD-F12b singlet pair energy        -0.177024915784
  CCSD-F12b triplet pair energy        -0.055129434170
  CCSD-F12b correlation energy         -0.232154349946

  Triples (T) contribution (scaled)    -0.007109238970
  Total correlation energy             -0.239263588915

  CCSD-F12b total energy              -40.448862009453
  CCSD[T]-F12b energy                 -40.456206871479
  CCSD-T-F12b energy                  -40.455903403117
 !CCSD(T)-F12b total energy           -40.455971248423

 Timing summary (sec):

 STEP                 CPU(USER)    SYS     CPU(TOT)    WALL
 Transformation        597.50     26.74    624.24    625.26
 CCSD iterations      2112.53    203.34   2315.87   2316.41
 Triples               665.27      6.68    671.95    672.01
 MP2-F12                52.64      2.59     55.23     55.27
 F12b energy           144.26     13.63    157.89    157.90

 Program statistics:

 Available memory in ccsd:              3999999866
 Min. memory needed in ccsd:              19260852
 Max. memory used in ccsd:                22423154
 Max. memory used in cckext:              14628952 (15 integral passes)



 **********************************************************************************************************************************
 DATASETS  * FILE   NREC   LENGTH (MB)   RECORD NAMES
              1      19     6330.34       500      610      700      900      950      970     1000      129      960     1100   
                                          VAR    BASINP    GEOM    SYMINP    ZMAT    AOBASIS   BASIS     P2S    ABASIS      S 
                                         1400     1410     1200     1210     1080     1600     1650     1700     1380   
                                           T        V       H0       H01     AOSYM     SMH    MOLCAS    OPER     JKOP   

              2       9       62.47       700     1000      520     2100     7360     7350      200     2101     2102   
                                         GEOM     BASIS   MCVARS     RHF    F12ABS    EF12    OPTIONS    RHF      RHF  

 PROGRAMS   *        TOTAL   CCSD(T)    HF-SCF       INT   CCSD(T)    HF-SCF       INT   CCSD(T)    HF-SCF       INT
 CPU TIMES  *     25199.44   3572.38   1675.91      0.54   3892.87   1700.60      0.54  11013.54   1712.26   1630.55
 REAL TIME  *     27306.15 SEC
 DISK USED  *        14.29 GB (local),      507.46 GB (total)
 SF USED    *        17.68 GB
 GA USED    *         4.87 MB       (max)       0.00 MB       (current)
 **********************************************************************************************************************************
 Molecular orbitals read from record     2102.2  Type=RHF/CANONICAL (state 1.1)
 Occupation numbers read from record     2102.2  Type=RHF/RHF (state 1.1)
 Orbital energies read from record       2102.2  Type=RHF/CANONICAL (state 1.1)
 Redundancy group numbers read from rec  2102.2  Type=RHF/RHF (state 1.1)

 CCSD(T)-F12/aug-cc-pV5Z energy=    -40.455971248423

     CCSD(T)-F12          HF-SCF     CCSD(T)-F12          HF-SCF     CCSD(T)-F12          HF-SCF
    -40.45597125    -40.21666669    -76.37350931    -76.06495021   -116.83021143   -116.28170986
 **********************************************************************************************************************************
 Molpro calculation terminated
