
 Primary working directories    : /scratch.ssd/kelum/job_380614.cerit-pbs.cerit-sc.cz/molpro.WdHNVmhNuG
 Secondary working directories  : /scratch.ssd/kelum/job_380614.cerit-pbs.cerit-sc.cz/molpro.WdHNVmhNuG
 Wavefunction directory         : /scratch.ssd/kelum/job_380614.cerit-pbs.cerit-sc.cz/
 Main file repository           : /scratch.ssd/kelum/job_380614.cerit-pbs.cerit-sc.cz/molpro.WdHNVmhNuG/

 id        : karlovklimes

 Nodes            nprocs
 elan3.cerit-sc.cz    4

 Using customized tuning parameters: mindgm=1; mindgv=20; mindgc=4; mindgr=1; noblas=0; minvec=7
 default implementation of scratch files=sf  


 Variables initialized (934), CPU time= 0.00 sec
                                                                                 !gdirect
 memory,4000,m
 gthresh,orbital=1d-10,energy=1d-10
 
 symmetry,nosym
 angstrom
 geometry={
 O16        -6.031300000000      0.567500000000     -1.162700000000
 H31        -6.239000000000      1.445500000000     -0.783400000000
 H32        -6.065700000000     -0.057500000000     -0.412200000000
 C1        -3.277200000000      1.482500000000      1.271900000000
 H41        -2.464000000000      0.899600000000      1.651000000000
 H42        -3.160800000000      2.501000000000      1.578500000000
 H43        -4.201800000000      1.099200000000      1.650100000000
 H44        -3.268500000000      1.421000000000      0.203700000000
 }
 
 nkerna=1
 nkernb=1
 
 gf=0
 sing=1
 thrdum=1d-4
 gridthr=1d-8
 
 basis={
 set,orbital
 default,av5z
 set,jkfit
 default,av5z/jkfit
 set,mp2fit
 default,av5z/mp2fit
 set,ri
 default,av5z/optri
 set,tddft
 default,av5z/mp2fit
 }
 
 proc set_monomer1
 dummy,4,5,6,7,8
 endproc
 
 proc set_monomer2
 dummy,1,2,3
 endproc
 
                                                                                 !12 energy
 {hf,accu=1.d-16}
 {ccsd(t)-f12,df_basis=mp2fit,df_basis_exch=jkfit,ri_basis=ri,scale_trip=1,THRAOF12=1d-10}
 
 set_monomer1
 {hf,accu=1.d-16}
 {ccsd(t)-f12,df_basis=mp2fit,df_basis_exch=jkfit,ri_basis=ri,scale_trip=1,THRAOF12=1d-10}
 
 set_monomer2
 {hf,accu=1.d-16}
 {ccsd(t)-f12,df_basis=mp2fit,df_basis_exch=jkfit,ri_basis=ri,scale_trip=1,THRAOF12=1d-10}
 
 Commands  initialized (763), CPU time= 0.00 sec, 617 directives.
 Default parameters read. Elapsed time= 0.13 sec

 Checking input...
 Passed
1


                                         ***  PROGRAM SYSTEM MOLPRO  ***
                                       Copyright, TTI GmbH Stuttgart, 2015
                                    Version 2019.2 linked Jun  8 2019 11:26:33


 **********************************************************************************************************************************
 LABEL *                                                                                 
  64 bit mpp version                                                                     DATE: 24-Mar-20          TIME: 16:53:21  
 **********************************************************************************************************************************

 SHA1:             8135a10abc80eafa5b3ae28ffc55be4890dc4c84
 **********************************************************************************************************************************

 THRESHOLDS:

 ZERO    =  1.00D-12  ONEINT  =  1.00D-12  TWOINT  =  1.00D-11  PREFAC  =  1.00D-14  XXXXXX  =  1.00D-09  EORDER  =  1.00D-04
 ENERGY  =  1.00D-10  ETEST   =  0.00D+00  EDENS   =  0.00D+00  THRDEDEF=  1.00D-06  GRADIENT=  1.00D-02  STEP    =  1.00D-03
 ORBITAL =  1.00D-10  CIVEC   =  1.00D-05  COEFF   =  1.00D-04  PRINTCI =  5.00D-02  PUNCHCI =  9.90D+01  OPTGRAD =  3.00D-04
 OPTENERG=  1.00D-06  OPTSTEP =  3.00D-04  THRGRAD =  1.00D-10  COMPRESS=  1.00D-11  VARMIN  =  1.00D-07  VARMAX  =  1.00D-03
 THRDOUB =  0.00D+00  THRDIV  =  1.00D-05  THRRED  =  1.00D-07  THRPSP  =  1.00D+00  THRDC   =  1.00D-10  THRCS   =  1.00D-10
 THRNRM  =  1.00D-08  THREQ   =  0.00D+00  THRDE   =  1.00D+00  THRREF  =  1.00D-05  SPARFAC =  1.00D+00  THRDLP  =  1.00D-07
 THRDIA  =  1.00D-10  THRDLS  =  1.00D-07  THRGPS  =  0.00D+00  THRKEX  =  0.00D+00  THRDIS  =  2.00D-01  THRVAR  =  1.00D-10
 THRLOC  =  1.00D-06  THRGAP  =  1.00D-06  THRLOCT = -1.00D+00  THRGAPT = -1.00D+00  THRORB  =  1.00D-06  THRMLTP =  0.00D+00
 THRCPQCI=  1.00D-10  KEXTA   =  0.00D+00  THRCOARS=  0.00D+00  SYMTOL  =  1.00D-06  GRADTOL =  1.00D-06  THROVL  =  1.00D-08
 THRORTH =  1.00D-08  GRID    =  1.00D-06  GRIDMAX =  1.00D-03  DTMAX   =  0.00D+00  THROCCDE=  1.00D-01  THROCCDE=  1.00D-01
 THRPRINT=  2.50D-01


 Variable memory set to 4000000000 words,  buffer space 

 ZSYMEL=NOSYM
 ZUNIT=ANG


Geometry recognized as XYZ

 SETTING NKERNA         =         1.00000000                                  
 SETTING NKERNB         =         1.00000000                                  
 SETTING GF             =     0.00000000D+00                                  
 SETTING SING           =         1.00000000                                  
 SETTING THRDUM         =     1.00000000D-04                                  
 SETTING GRIDTHR        =     1.00000000D-08                                  
 SETTING BASIS          =    AV5Z


 Recomputing integrals since basis changed


 Using spherical harmonics

 Library entry O      S aug-cc-pV5Z          selected for orbital group  1
 Library entry O      P aug-cc-pV5Z          selected for orbital group  1
 Library entry O      D aug-cc-pV5Z          selected for orbital group  1
 Library entry O      F aug-cc-pV5Z          selected for orbital group  1
 Library entry O      G aug-cc-pV5Z          selected for orbital group  1
 Library entry O      H aug-cc-pV5Z          selected for orbital group  1
 Library entry H      S aug-cc-pV5Z          selected for orbital group  2
 Library entry H      P aug-cc-pV5Z          selected for orbital group  2
 Library entry H      D aug-cc-pV5Z          selected for orbital group  2
 Library entry H      F aug-cc-pV5Z          selected for orbital group  2
 Library entry H      G aug-cc-pV5Z          selected for orbital group  2
 Library entry C      S aug-cc-pV5Z          selected for orbital group  3
 Library entry C      P aug-cc-pV5Z          selected for orbital group  3
 Library entry C      D aug-cc-pV5Z          selected for orbital group  3
 Library entry C      F aug-cc-pV5Z          selected for orbital group  3
 Library entry C      G aug-cc-pV5Z          selected for orbital group  3
 Library entry C      H aug-cc-pV5Z          selected for orbital group  3


 PROGRAM * SEWARD (Integral evaluation for generally contracted gaussian basis sets)     Author: Roland Lindh, 1990

 Geometry written to block  1 of record 700


 Point group  C1  



 ATOMIC COORDINATES

 NR  ATOM    CHARGE       X              Y              Z

   1  O16     8.00  -11.397505175    1.072419576   -2.197184565
   2  H31     1.00  -11.790001291    2.731599113   -1.480411446
   3  H32     1.00  -11.462511754   -0.108659252   -0.778945109
   4  C1      6.00   -6.193010455    2.801518980    2.403542658
   5  H41     1.00   -4.656285171    1.699997622    3.119937832
   6  H42     1.00   -5.973046335    4.726205038    2.982932688
   7  H43     1.00   -7.940251230    2.077186956    3.118237078
   8  H44     1.00   -6.176569838    2.685300823    0.384937212

 Bond lengths in Bohr (Angstrom)

 1-2  1.849511731  1-3  1.846774542  4-5  2.021904040  4-6  2.022002335  4-7  2.021953343
     ( 0.978719459)     ( 0.977271001)     ( 1.069945541)     ( 1.069997556)     ( 1.069971630)

 4-8  2.022015060
     ( 1.070004290)

 Bond angles

  2-1-3  105.58293551   5-4-6  109.53398059   5-4-7  109.65604535   5-4-8  108.43490854

  6-4-7  109.49436728   6-4-8  109.86987750   7-4-8  109.83468330

 NUCLEAR CHARGE:                   20
 NUMBER OF PRIMITIVE AOS:        1046
 NUMBER OF SYMMETRY AOS:          786
 NUMBER OF CONTRACTIONS:          734   (  734A   )
 NUMBER OF CORE ORBITALS:           2   (    2A   )
 NUMBER OF VALENCE ORBITALS:       14   (   14A   )


 NUCLEAR REPULSION ENERGY   36.77810311


 Basis set:  JKFIT                   
 Basis size:  1104
 Attributes:
 Sphericals:   T
 Basis set:  MP2FIT                  
 Basis size:  1246
 Attributes:
 Sphericals:   T
 Basis set:  RI                      
 Basis size:   730
 Attributes:
 Sphericals:   T
 Basis set:  TDDFT                   
 Basis size:  1246
 Attributes:
 Sphericals:   T

 **********************************************************************************************************************************


 Eigenvalues of metric

         1 0.192E-05 0.328E-05 0.333E-05 0.411E-05 0.483E-05 0.711E-05 0.755E-05 0.961E-05


 Contracted 2-electron integrals neglected if value below      1.0D-14
 AO integral compression algorithm  1   Integral accuracy      1.0D-14

     158631.199 MB (compressed) written to integral file ( 50.2%)

     Node minimum: 38392.562 MB, node maximum: 41291.874 MB


 NUMBER OF SORTED TWO-ELECTRON INTEGRALS: 9095363064.     BUFFER LENGTH:  32768
 NUMBER OF SEGMENTS: 190  SEGMENT LENGTH:   47999780      RECORD LENGTH: 131072

 Memory used in sort:      48.16 MW

 SORT1 READ 39471948705. AND WROTE  7175465805. INTEGRALS IN  82220 RECORDS. CPU TIME:  1005.98 SEC, REAL TIME:  1147.86 SEC
 SORT2 READ 28705210049. AND WROTE 36381317385. INTEGRALS IN 630064 RECORDS. CPU TIME:   136.74 SEC, REAL TIME:   835.40 SEC

 Node minimum:  9095228192.  Node maximum:  9095430501. integrals

 OPERATOR DM      FOR CENTER  0  COORDINATES:    0.000000    0.000000    0.000000


 **********************************************************************************************************************************
 DATASETS  * FILE   NREC   LENGTH (MB)   RECORD NAMES
              1      18       49.80       500      610      700      900      950      970     1000      129      960     1100   
                                          VAR    BASINP    GEOM    SYMINP    ZMAT    AOBASIS   BASIS     P2S    ABASIS      S 
                                         1400     1410     1200     1210     1080     1600     1650     1700   
                                           T        V       H0       H01     AOSYM     SMH    MOLCAS    OPER   

 PROGRAMS   *        TOTAL       INT
 CPU TIMES  *      1860.00   1859.83
 REAL TIME  *      2755.70 SEC
 DISK USED  *        50.44 MB (local),      502.94 GB (total)
 GA USED    *         0.00 MB       (max)       0.00 MB       (current)
 **********************************************************************************************************************************


 PROGRAM * RHF-SCF (CLOSED SHELL)       Authors: W. Meyer, H.-J. Werner


 NUMBER OF ELECTRONS:      10+   10-    SPACE SYMMETRY=1    SPIN SYMMETRY: Singlet 
 CONVERGENCE THRESHOLDS:    1.00E-08 (Density)    1.00E-11 (Energy)
 MAX. NUMBER OF ITERATIONS:       60
 INTERPOLATION TYPE:            DIIS
 INTERPOLATION STEPS:              2 (START)      1 (STEP)
 LEVEL SHIFTS:                  0.00 (CLOSED)  0.00 (OPEN) 



 Orbital guess generated from atomic densities. Full valence occupancy:   16

 Molecular orbital dump at record        2100.2

 Initial occupancy:  10

 ITERATION    DDIFF          GRAD             ENERGY        2-EL.EN.            DIPOLE MOMENTS         DIIS   ORB.
    1      0.000D+00      0.000D+00      -116.22314766    158.994455   -0.23079    0.24266    1.09218    0    start
    2      0.000D+00      0.291D-02      -116.26715696    154.162711   -0.09575    0.14256    0.61092    1    diag
    3      0.162D-02      0.170D-02      -116.28065331    156.183485   -0.13174    0.16796    0.73106    2    diag
    4      0.553D-03      0.254D-03      -116.28131340    156.071556   -0.13048    0.16536    0.71976    3    diag
    5      0.125D-03      0.744D-04      -116.28138255    156.066062   -0.13001    0.16533    0.71908    4    diag
    6      0.523D-04      0.181D-04      -116.28138644    156.071745   -0.12972    0.16513    0.71823    5    diag
    7      0.188D-04      0.366D-05      -116.28138667    156.070017   -0.12971    0.16513    0.71823    6    diag
    8      0.560D-05      0.928D-06      -116.28138669    156.070196   -0.12968    0.16512    0.71817    7    diag
    9      0.127D-05      0.218D-06      -116.28138669    156.070170   -0.12968    0.16511    0.71815    8    diag
   10      0.300D-06      0.262D-07      -116.28138669    156.070172   -0.12967    0.16511    0.71815    9    orth
   11      0.608D-07      0.619D-08      -116.28138669    156.070173   -0.12967    0.16511    0.71815    9    diag
   12      0.489D-08      0.164D-08      -116.28138669    156.070173   -0.12967    0.16511    0.71815    0    orth

 Final occupancy:  10

 !RHF STATE  1.1 Energy              -116.281386693777
 Nuclear energy                        36.77810311
 One-electron energy                 -231.09457625
 Two-electron energy                   78.03508645
 Virial quotient                       -1.00064403
 !RHF STATE  1.1 Dipole moment         -0.12967460     0.16511023     0.71814925
 Dipole moment /Debye                  -0.32957837     0.41964087     1.82523376

 Orbital energies:

         1.1          2.1          3.1          4.1          5.1          6.1          7.1          8.1          9.1         10.1
    -20.566075   -11.198792    -1.340688    -0.953715    -0.707770    -0.578745    -0.555055    -0.553782    -0.550607    -0.506973

        11.1         12.1
      0.019796     0.031911


 HOMO     10.1    -0.506973 =     -13.7954eV
 LUMO     11.1     0.019796 =       0.5387eV
 LUMO-HOMO         0.526769 =      14.3341eV


 **********************************************************************************************************************************
 DATASETS  * FILE   NREC   LENGTH (MB)   RECORD NAMES
              1      18       49.80       500      610      700      900      950      970     1000      129      960     1100   
                                          VAR    BASINP    GEOM    SYMINP    ZMAT    AOBASIS   BASIS     P2S    ABASIS      S 
                                         1400     1410     1200     1210     1080     1600     1650     1700   
                                           T        V       H0       H01     AOSYM     SMH    MOLCAS    OPER   

              2       4       13.79       700     1000      520     2100   
                                         GEOM     BASIS   MCVARS     RHF  

 PROGRAMS   *        TOTAL    HF-SCF       INT
 CPU TIMES  *      3550.25   1690.24   1859.83
 REAL TIME  *      4638.26 SEC
 DISK USED  *       102.61 MB (local),      503.15 GB (total)
 SF USED    *         2.16 MB
 GA USED    *         0.00 MB       (max)       0.00 MB       (current)
 **********************************************************************************************************************************

 Basis set:  JKFIT                   
 Basis size:  1104
 Attributes:
 Sphericals:   T
 Basis set:  MP2FIT                  
 Basis size:  1246
 Attributes:
 Sphericals:   T
 Basis set:  RI                      
 Basis size:   730
 Attributes:
 Sphericals:   T
 Basis set:  TDDFT                   
 Basis size:  1246
 Attributes:
 Sphericals:   T

 PROGRAM * CCSD (Closed-shell coupled cluster)     Authors: C. Hampel, H.-J. Werner, 1991, M. Deegan, P.J. Knowles, 1992

                                  CCSD-F12 implementation by  H.-J. Werner, 2007

                   Density fitting integral evaluation by F.R. Manby, 2003,2007, G. Knizia, 2010



 Convergence thresholds:  THRVAR = 1.00D-08  THRDEN = 1.00D-10

 CCSD(T)     terms to be evaluated (factor= 1.000)


 Number of core orbitals:           2 (   2 )
 Number of closed-shell orbitals:   8 (   8 )
 Number of external orbitals:     724 ( 724 )

 Molecular orbitals read from record     2100.2  Type=RHF/CANONICAL (state 1.1)

 MP2-F12 correlation treatment (H.-J. Werner, 2006)
 ==================================================

 Using MP2-F12 with ansatz 3C(FIX)

 Using projected zeroth-order Hamiltonian (+Z)

 FOCKRIB=T FOCKRIC=T FOCKRIP=T CABSP=T CABSA=T CABSK=T CABSF=T GBC=F EBC=F DMAT=T NOFIK=T NOPAO=1 SOLVE=-1  USEPAO=0
 EXCH_A= T EXCH_B= F EXCH_C= F EXCH_P= F

 Geminal basis:    OPTFULL  GEM_TYPE=SLATER  BETA=1.0  NGEM=6

 Optimizing Gaussian exponents for each gem_beta

 Geminal optimization for beta= 1.0000
 Weight function:   m=0, omega= 1.4646

 Augmented Hessian optimization of geminal fit. Trust ratio= 0.40000
 Convergence reached after   2 iterations. Final gradient= 8.53D-16, Step= 4.26D-06, Delta= 1.28D-09

 Alpha:                 0.19532     0.81920     2.85917     9.50073    35.69989   197.79328
 Coeff:                 0.27070     0.30552     0.18297     0.10986     0.06810     0.04224


 All pairs explicitly correlated. Number of r12-pairs:           36

 Excluding core orbitals from MO domains

 AO(A)-basis ORBITAL           loaded. Number of functions:     734
 RI(R)-basis RI                loaded. Number of functions:     730
 DF-basis JKFIT                loaded. Number of functions:    1104

 Screening thresholds:   THRAO=  1.00D-10  THRMO=  1.00D-09  THRPROD=  1.00D-09
                         THRSW=  1.00D-05  THROV=  1.00D-12  THRAOF12= 1.00D-10

 CPU time for Fock operators                      9.95 sec

 Construction of ABS:
 Smallest eigenvalue of S          2.27E-04  (threshold= 1.00E-08)
 Ratio eigmin/eigmax               3.94E-05  (threshold= 1.00E-09)
 Smallest eigenvalue of S kept     2.27E-04  (threshold= 2.27E-04, 0 functions deleted, 730 kept)

 Construction of CABS:
 Smallest eigenvalue of S          9.64E-09  (threshold= 1.00E-08)
 Ratio eigmin/eigmax               9.64E-09  (threshold= 1.00E-09)
 Smallest eigenvalue of S kept     8.36E-08  (threshold= 8.36E-08, 1 functions deleted, 729 kept)

 CPU time for CABS singles                        1.19 sec

 CABS-singles contribution of  -0.00007928 patched into reference energy.
 New reference energy        -116.28146597

 AO(A)-basis ORBITAL           loaded. Number of functions:     734
 RI(R)-basis RI                loaded. Number of functions:     730
 DF-basis MP2FIT               loaded. Number of functions:    1246

 Screening thresholds:   THRAO=  1.00D-10  THRMO=  1.00D-09  THRPROD=  1.00D-09
                         THRSW=  1.00D-05  THROV=  1.00D-12  THRAOF12= 1.00D-10

 CPU time for 3-index integral evaluation        29.34 sec
 CPU time for first  half transformation          2.87 sec (10281.0 MFLOP/sec)
 CPU time for second half transformation          0.08 sec ( 2971.2 MFLOP/sec)
 CPU time for sorting                             0.31 sec
 CPU time for fitting                             0.38 sec (24415.4 MFLOP/sec)
 CPU time for tilde quantities                    0.50 sec (27547.8 MFLOP/sec)
 CPU time for assembly                            4.55 sec (27992.3 MFLOP/sec)
 CPU time for tranop_f12                          6.03 sec (27661.6 MFLOP/sec)
 CPU time for f12 integrals (total)              51.91 sec, Elapsed time:     56.39 sec
 F12-matrices built in  4 passes.
 F12-matrices built in  4 passes.
 F12-matrices built in  4 passes.
 F12-matrices built in  4 passes.
 FC-matrix built in  4 passes.
 CPU time for f12 matrices (total)                4.62 sec, Elapsed time:      4.83 sec

 Diagonal F12 approximation with fixed coefficients:  TSING= 0.500,  TTRIP= 0.250 (scaled by -1/beta)

 DF-MP2-F12 energy corrections:
 ==============================
 Approx.                                    Singlet             Triplet             Total
 DF-MP2-F12/3*C(DX,FIX)                -0.011200219710     -0.000787636680     -0.011987856390
 DF-MP2-F12/3*C(FIX)                   -0.010390853498     -0.000516903534     -0.010907757032
 DF-MP2-F12/3C(FIX)                    -0.010502895675     -0.000532594384     -0.011035490059

 DF-MP2-F12 correlation energies:
 ================================
 Approx.                                    Singlet             Triplet             Ecorr            Total Energy
 DF-MP2                                -0.350217862375     -0.159685402627     -0.509903265001   -116.791369235433
 DF-MP2-F12/3*C(DX,FIX)                -0.361418082085     -0.160473039307     -0.521891121391   -116.803357091824
 DF-MP2-F12/3*C(FIX)                   -0.360608715873     -0.160202306160     -0.520811022033   -116.802276992465
 DF-MP2-F12/3C(FIX)                    -0.360720758050     -0.160217997010     -0.520938755060   -116.802404725492

 SCS-DF-MP2 energies (F_SING= 1.20000  F_TRIP= 0.62222  F_PARALLEL= 0.33333):
 ============================================================================
 SCS-DF-MP2                            -0.519621240928   -116.801087211361
 SCS-DF-MP2-F12/3*C(DX,FIX)            -0.533551589626   -116.815017560058
 SCS-DF-MP2-F12/3*C(FIX)               -0.532411893992   -116.813877864424
 SCS-DF-MP2-F12/3C(FIX)                -0.532556107800   -116.814022078232
 Symmetry transformation completed.

 Number of N-1 electron functions:               8
 Number of N-2 electron functions:              36
 Number of singly external CSFs:              5792
 Number of doubly external CSFs:          16776528
 Total number of CSFs:                    16782321

 Pair and operator lists are different

 Length of J-op  integral file:               1.47 GB
 Length of K-op  integral file:               2.18 GB
 Length of 3-ext integral record:             0.00 MB

 For full I/O caching in triples, increase memory by 34.16 Mwords to 4034.21 Mwords.

 Integral transformation finished. Total CPU:1079.72 sec, npass=  1  Memory used:1826.21 MW

 Reference energy:                   -116.28146597

 Adding F12 terms to K(Cij), methodcc=6,  factor= 1.0

 ITER.      SQ.NORM     CORR.ENERGY   TOTAL ENERGY   ENERGY CHANGE        DEN1      VAR(S)    VAR(P)  DIIS     TIME  TIME/IT
   1      1.13426498    -0.52191129  -116.80337726    -0.01199523    -0.00007795  0.14D-02  0.20D-02  1  1  1450.44   313.61
   2      1.14252194    -0.52296288  -116.80442885    -0.00105159    -0.01021459  0.33D-04  0.25D-03  2  2  1752.14   316.97
   3      1.14575116    -0.52312718  -116.80459315    -0.00016430    -0.00233754  0.12D-04  0.14D-04  3  3  2054.85   318.46
   4      1.14670919    -0.52313188  -116.80459785    -0.00000470    -0.00053001  0.67D-06  0.13D-05  4  4  2356.06   318.80
   5      1.14687762    -0.52313369  -116.80459966    -0.00000181    -0.00004209  0.20D-06  0.94D-07  5  5  2651.23   317.77
   6      1.14692350    -0.52313095  -116.80459692     0.00000274    -0.00000817  0.22D-07  0.82D-08  6  6  2939.89   315.88
   7      1.14693436    -0.52312973  -116.80459570     0.00000122    -0.00000276  0.23D-08  0.11D-08  6  2  3224.50   313.78
   8      1.14693720    -0.52312948  -116.80459545     0.00000026    -0.00000046  0.35D-09  0.11D-09  6  1  3523.73   314.03
   9      1.14693807    -0.52312944  -116.80459541     0.00000003    -0.00000000  0.36D-10  0.18D-10  6  3  3824.46   314.40
  10      1.14693825    -0.52312944  -116.80459541     0.00000000     0.00000007  0.37D-11  0.24D-11  6  4  4116.37   313.81
  11      1.14693821    -0.52312945  -116.80459542    -0.00000001     0.00000008  0.58D-12  0.30D-12  6  5  4403.57   313.00
  12      1.14693820    -0.52312945  -116.80459542    -0.00000000     0.00000002  0.10D-12  0.41D-13  6  6  4699.44   313.02
  13      1.14693818    -0.52312945  -116.80459542    -0.00000000     0.00000001  0.19D-13  0.55D-14  6  2  4994.59   313.01
  14      1.14693817    -0.52312945  -116.80459542    -0.00000000     0.00000000  0.30D-14  0.12D-14  6  1  5287.26   312.80
  15      1.14693817    -0.52312945  -116.80459542    -0.00000000    -0.00000000  0.36D-15  0.20D-15  6  3  5586.67   313.11
  16      1.14693817    -0.52312945  -116.80459542    -0.00000000    -0.00000000  0.53D-16  0.27D-16  6  4  5871.81   312.58
  17      1.14693817    -0.52312945  -116.80459542     0.00000000    -0.00000000  0.13D-16  0.56D-17  6  5  6159.78   312.17

 Norm of t1 vector:      0.04974644      S-energy:    -0.00000000      T1 diagnostic:  0.00879401
                                                                       D1 diagnostic:  0.01922976

 Adding energy correction from Wij-K(Fij), methodcc=6  factor= 1.0

  CCSD correlation energy              -0.523129454382
  MP2-F12 correction (uncoupled)       -0.010855238392
  C*T doubles correction               -0.000161211059
  f12b correction                       0.002684921532

   CPU time for triples:   1951.13 sec for i =  1 -  6 /  8 (~  44.6 % done)
   CPU time for triples:   2482.46 sec for i =  7 -  8 /  8 (  100.0 % done)

 Total CPU time for triples:   4499.05 sec

  Ecorr(MP2)                           -0.509916064720
  Ecorr(MP2-F12)                       -0.520951554779
  Scale factor for triples energy       1.021641777584


 RESULTS
 =======

  Reference energy                   -116.281386693778
  F12 singles correction               -0.000079276654

 F12 singles corrections added to reference energy

  New reference energy               -116.281465970432

  F12a singlet correction              -0.010443505982
  F12a triplet correction              -0.000572943468
  F12a total correction                -0.011016449450

 F12a corrections for ansatz F12/3C(FIX) added to CCSD energy

  CCSD-F12a singlet pair energy        -0.387550412847
  CCSD-F12a triplet pair energy        -0.146595490713
  CCSD-F12a correlation energy         -0.534145903832

  Triples (T) contribution (scaled)    -0.017302945738
  Total correlation energy             -0.551448849570

  CCSD-F12a total energy             -116.815611874265
  CCSD[T]-F12a energy                -116.833471974701
  CCSD-T-F12a energy                 -116.832705208942
 !CCSD(T)-F12a total energy          -116.832914820002

 F12b corrections for ansatz F12/3C(FIX) added to CCSD(T)-F12a energy

  CCSD-F12b singlet pair energy        -0.384958366191
  CCSD-F12b triplet pair energy        -0.146502615838
  CCSD-F12b correlation energy         -0.531460982301

  Triples (T) contribution (scaled)    -0.017302945738
  Total correlation energy             -0.548763928038

  CCSD-F12b total energy             -116.812926952733
  CCSD[T]-F12b energy                -116.830787053169
  CCSD-T-F12b energy                 -116.830020287410
 !CCSD(T)-F12b total energy          -116.830229898471

 Timing summary (sec):

 STEP                 CPU(USER)    SYS     CPU(TOT)    WALL
 Transformation       1081.36     52.00   1133.36   1138.61
 CCSD iterations      5006.80    294.42   5301.22   5307.46
 Triples              4499.05     27.24   4526.29   4526.67
 MP2-F12                71.83      5.32     77.15     77.81
 F12b energy           260.56     13.58    274.14    274.14

 Program statistics:

 Available memory in ccsd:              3999999554
 Min. memory needed in ccsd:              48689265
 Max. memory used in ccsd:                63255345
 Max. memory used in cckext:              42753482 (18 integral passes)



 **********************************************************************************************************************************
 DATASETS  * FILE   NREC   LENGTH (MB)   RECORD NAMES
              1      19    12452.16       500      610      700      900      950      970     1000      129      960     1100   
                                          VAR    BASINP    GEOM    SYMINP    ZMAT    AOBASIS   BASIS     P2S    ABASIS      S 
                                         1400     1410     1200     1210     1080     1600     1650     1700     1380   
                                           T        V       H0       H01     AOSYM     SMH    MOLCAS    OPER     JKOP   

              2       6       24.60       700     1000      520     2100     7360     7350   
                                         GEOM     BASIS   MCVARS     RHF    F12ABS    EF12   

 PROGRAMS   *        TOTAL   CCSD(T)    HF-SCF       INT
 CPU TIMES  *     14470.02  10919.76   1690.24   1859.83
 REAL TIME  *     15965.66 SEC
 DISK USED  *        14.29 GB (local),      554.46 GB (total)
 SF USED    *        17.68 GB
 GA USED    *         4.87 MB       (max)       0.00 MB       (current)
 **********************************************************************************************************************************

 Running procedure: SET_MONOMER1

 Dummy atoms: C1  H41  H42  H43  H44


 Recomputing one-electron integrals since nuclear charges changed


 PROGRAM * SEWARD (Integral evaluation for generally contracted gaussian basis sets)     Author: Roland Lindh, 1990

 Geometry written to block  1 of record 700


 Point group  C1  



 ATOMIC COORDINATES

 NR  ATOM    CHARGE       X              Y              Z

   1  O16     8.00  -11.397505175    1.072419576   -2.197184565
   2  H31     1.00  -11.790001291    2.731599113   -1.480411446
   3  H32     1.00  -11.462511754   -0.108659252   -0.778945109
   4  C1      0.00   -6.193010455    2.801518980    2.403542658
   5  H41     0.00   -4.656285171    1.699997622    3.119937832
   6  H42     0.00   -5.973046335    4.726205038    2.982932688
   7  H43     0.00   -7.940251230    2.077186956    3.118237078
   8  H44     0.00   -6.176569838    2.685300823    0.384937212

 Bond lengths in Bohr (Angstrom)

 1-2  1.849511731  1-3  1.846774542  4-5  2.021904040  4-6  2.022002335  4-7  2.021953343
     ( 0.978719459)     ( 0.977271001)     ( 1.069945541)     ( 1.069997556)     ( 1.069971630)

 4-8  2.022015060
     ( 1.070004290)

 Bond angles

  2-1-3  105.58293551   5-4-6  109.53398059   5-4-7  109.65604535   5-4-8  108.43490854

  6-4-7  109.49436728   6-4-8  109.86987750   7-4-8  109.83468330

 NUCLEAR CHARGE:                   10
 NUMBER OF PRIMITIVE AOS:        1046
 NUMBER OF SYMMETRY AOS:          786
 NUMBER OF CONTRACTIONS:          734   (  734A   )
 NUMBER OF CORE ORBITALS:           1   (    1A   )
 NUMBER OF VALENCE ORBITALS:        6   (    6A   )

 MOLECULE CHANGED: INITIALIZING OCCUPATION AND DUMP RECORDS


 NUCLEAR REPULSION ENERGY    8.99703174

 Basis set:  JKFIT                   
 Basis size:  1104
 Attributes:
 Sphericals:   T
 Basis set:  MP2FIT                  
 Basis size:  1246
 Attributes:
 Sphericals:   T
 Basis set:  RI                      
 Basis size:   730
 Attributes:
 Sphericals:   T
 Basis set:  TDDFT                   
 Basis size:  1246
 Attributes:
 Sphericals:   T

 Eigenvalues of metric

         1 0.192E-05 0.328E-05 0.333E-05 0.411E-05 0.483E-05 0.711E-05 0.755E-05 0.961E-05


 Contracted 2-electron integrals neglected if value below      1.0D-14

 OPERATOR DM      FOR CENTER  0  COORDINATES:    0.000000    0.000000    0.000000


 **********************************************************************************************************************************
 DATASETS  * FILE   NREC   LENGTH (MB)   RECORD NAMES
              1      18       49.80       500      610      700      900      950      970     1000      129      960     1100   
                                          VAR    BASINP    GEOM    SYMINP    ZMAT    AOBASIS   BASIS     P2S    ABASIS      S 
                                         1400     1410     1200     1210     1080     1600     1650     1700   
                                           T        V       H0       H01     AOSYM     SMH    MOLCAS    OPER   

              2       7       24.63       700     1000      520     2100     7360     7350      200   
                                         GEOM     BASIS   MCVARS     RHF    F12ABS    EF12    OPTIONS    

 PROGRAMS   *        TOTAL       INT   CCSD(T)    HF-SCF       INT
 CPU TIMES  *     14470.68      0.65  10919.76   1690.24   1859.83
 REAL TIME  *     15968.51 SEC
 DISK USED  *        14.29 GB (local),      554.46 GB (total)
 SF USED    *        17.68 GB
 GA USED    *         4.87 MB       (max)       0.00 MB       (current)
 **********************************************************************************************************************************


 PROGRAM * RHF-SCF (CLOSED SHELL)       Authors: W. Meyer, H.-J. Werner


 NUMBER OF ELECTRONS:       5+    5-    SPACE SYMMETRY=1    SPIN SYMMETRY: Singlet 
 CONVERGENCE THRESHOLDS:    1.00E-08 (Density)    1.00E-11 (Energy)
 MAX. NUMBER OF ITERATIONS:       60
 INTERPOLATION TYPE:            DIIS
 INTERPOLATION STEPS:              2 (START)      1 (STEP)
 LEVEL SHIFTS:                  0.00 (CLOSED)  0.00 (OPEN) 



 Orbital guess generated from atomic densities. Full valence occupancy:    7

 Molecular orbital dump at record        2101.2

 Initial occupancy:   5

 ITERATION    DDIFF          GRAD             ENERGY        2-EL.EN.            DIPOLE MOMENTS         DIIS   ORB.
    1      0.000D+00      0.000D+00       -76.02645562     77.417456   -0.23473    0.24571    1.09504    0    start
    2      0.000D+00      0.360D-02       -76.05323694     73.759137   -0.13633    0.14233    0.63636    1    diag
    3      0.130D-02      0.229D-02       -76.06481950     75.384132   -0.16085    0.16801    0.75074    2    diag
    4      0.494D-03      0.215D-03       -76.06501432     75.292598   -0.15985    0.16689    0.74613    3    diag
    5      0.632D-04      0.601D-04       -76.06503529     75.307096   -0.15948    0.16647    0.74443    4    diag
    6      0.204D-04      0.120D-04       -76.06503666     75.306024   -0.15939    0.16637    0.74404    5    diag
    7      0.536D-05      0.245D-05       -76.06503673     75.306169   -0.15936    0.16634    0.74392    6    diag
    8      0.146D-05      0.468D-06       -76.06503674     75.306158   -0.15936    0.16633    0.74388    7    diag
    9      0.286D-06      0.640D-07       -76.06503674     75.306148   -0.15935    0.16633    0.74387    8    diag
   10      0.360D-07      0.142D-07       -76.06503674     75.306151   -0.15935    0.16633    0.74387    9    orth
   11      0.876D-08      0.242D-08       -76.06503674     75.306151   -0.15935    0.16633    0.74387    0    orth

 Final occupancy:   5

 !RHF STATE  1.1 Energy               -76.065036736278
 Nuclear energy                         8.99703174
 One-electron energy                 -122.71514375
 Two-electron energy                   37.65307528
 Virial quotient                       -1.00193216
 !RHF STATE  1.1 Dipole moment         -0.15935482     0.16633095     0.74387016
 Dipole moment /Debye                  -0.40501301     0.42274342     1.89060551

 Orbital energies:

         1.1          2.1          3.1          4.1          5.1          6.1          7.1
    -20.567112    -1.341423    -0.708515    -0.578924    -0.508523     0.015032     0.030598


 HOMO      5.1    -0.508523 =     -13.8376eV
 LUMO      6.1     0.015032 =       0.4090eV
 LUMO-HOMO         0.523555 =      14.2467eV


 **********************************************************************************************************************************
 DATASETS  * FILE   NREC   LENGTH (MB)   RECORD NAMES
              1      18       49.80       500      610      700      900      950      970     1000      129      960     1100   
                                          VAR    BASINP    GEOM    SYMINP    ZMAT    AOBASIS   BASIS     P2S    ABASIS      S 
                                         1400     1410     1200     1210     1080     1600     1650     1700   
                                           T        V       H0       H01     AOSYM     SMH    MOLCAS    OPER   

              2       8       38.40       700     1000      520     2100     7360     7350      200     2101   
                                         GEOM     BASIS   MCVARS     RHF    F12ABS    EF12    OPTIONS    RHF  

 PROGRAMS   *        TOTAL    HF-SCF       INT   CCSD(T)    HF-SCF       INT
 CPU TIMES  *     16123.35   1652.67      0.65  10919.76   1690.24   1859.83
 REAL TIME  *     17786.23 SEC
 DISK USED  *        14.29 GB (local),      554.46 GB (total)
 SF USED    *        17.68 GB
 GA USED    *         4.87 MB       (max)       0.00 MB       (current)
 **********************************************************************************************************************************

 Basis set:  JKFIT                   
 Basis size:  1104
 Attributes:
 Sphericals:   T
 Basis set:  MP2FIT                  
 Basis size:  1246
 Attributes:
 Sphericals:   T
 Basis set:  RI                      
 Basis size:   730
 Attributes:
 Sphericals:   T
 Basis set:  TDDFT                   
 Basis size:  1246
 Attributes:
 Sphericals:   T

 PROGRAM * CCSD (Closed-shell coupled cluster)     Authors: C. Hampel, H.-J. Werner, 1991, M. Deegan, P.J. Knowles, 1992

                                  CCSD-F12 implementation by  H.-J. Werner, 2007

                   Density fitting integral evaluation by F.R. Manby, 2003,2007, G. Knizia, 2010



 Convergence thresholds:  THRVAR = 1.00D-08  THRDEN = 1.00D-10

 CCSD(T)     terms to be evaluated (factor= 1.000)


 Number of core orbitals:           1 (   1 )
 Number of closed-shell orbitals:   4 (   4 )
 Number of external orbitals:     729 ( 729 )

 Molecular orbitals read from record     2101.2  Type=RHF/CANONICAL (state 1.1)

 MP2-F12 correlation treatment (H.-J. Werner, 2006)
 ==================================================

 Using MP2-F12 with ansatz 3C(FIX)

 Using projected zeroth-order Hamiltonian (+Z)

 FOCKRIB=T FOCKRIC=T FOCKRIP=T CABSP=T CABSA=T CABSK=T CABSF=T GBC=F EBC=F DMAT=T NOFIK=T NOPAO=1 SOLVE=-1  USEPAO=0
 EXCH_A= T EXCH_B= F EXCH_C= F EXCH_P= F

 Geminal basis:    OPTFULL  GEM_TYPE=SLATER  BETA=1.0  NGEM=6

 Optimizing Gaussian exponents for each gem_beta

 Geminal optimization for beta= 1.0000
 Weight function:   m=0, omega= 1.4646

 Augmented Hessian optimization of geminal fit. Trust ratio= 0.40000
 Convergence reached after   2 iterations. Final gradient= 8.53D-16, Step= 4.26D-06, Delta= 1.28D-09

 Alpha:                 0.19532     0.81920     2.85917     9.50073    35.69989   197.79328
 Coeff:                 0.27070     0.30552     0.18297     0.10986     0.06810     0.04224


 All pairs explicitly correlated. Number of r12-pairs:           10

 Excluding core orbitals from MO domains

 AO(A)-basis ORBITAL           loaded. Number of functions:     734
 RI(R)-basis RI                loaded. Number of functions:     730
 DF-basis JKFIT                loaded. Number of functions:    1104

 Screening thresholds:   THRAO=  1.00D-10  THRMO=  1.00D-09  THRPROD=  1.00D-09
                         THRSW=  1.00D-05  THROV=  1.00D-12  THRAOF12= 1.00D-10

 CPU time for Fock operators                      9.26 sec

 Construction of ABS:
 Smallest eigenvalue of S          2.27E-04  (threshold= 1.00E-08)
 Ratio eigmin/eigmax               3.94E-05  (threshold= 1.00E-09)
 Smallest eigenvalue of S kept     2.27E-04  (threshold= 2.27E-04, 0 functions deleted, 730 kept)

 Construction of CABS:
 Smallest eigenvalue of S          9.64E-09  (threshold= 1.00E-08)
 Ratio eigmin/eigmax               9.64E-09  (threshold= 1.00E-09)
 Smallest eigenvalue of S kept     8.36E-08  (threshold= 8.36E-08, 1 functions deleted, 729 kept)

 CPU time for CABS singles                        1.20 sec

 CABS-singles contribution of  -0.00003853 patched into reference energy.
 New reference energy         -76.06507526

 AO(A)-basis ORBITAL           loaded. Number of functions:     734
 RI(R)-basis RI                loaded. Number of functions:     730
 DF-basis MP2FIT               loaded. Number of functions:    1246

 Screening thresholds:   THRAO=  1.00D-10  THRMO=  1.00D-09  THRPROD=  1.00D-09
                         THRSW=  1.00D-05  THROV=  1.00D-12  THRAOF12= 1.00D-10

 CPU time for 3-index integral evaluation        29.59 sec
 CPU time for first  half transformation          2.32 sec ( 6398.5 MFLOP/sec)
 CPU time for second half transformation          0.05 sec ( 1323.0 MFLOP/sec)
 CPU time for sorting                             0.13 sec
 CPU time for fitting                             0.37 sec (12445.3 MFLOP/sec)
 CPU time for tilde quantities                    0.49 sec (18617.5 MFLOP/sec)
 CPU time for assembly                            1.38 sec (28135.3 MFLOP/sec)
 CPU time for tranop_f12                          1.72 sec (25711.1 MFLOP/sec)
 CPU time for f12 integrals (total)              38.85 sec, Elapsed time:     40.81 sec
 F12-matrices built in  4 passes.
 F12-matrices built in  4 passes.
 F12-matrices built in  4 passes.
 F12-matrices built in  4 passes.
 FC-matrix built in  4 passes.
 CPU time for f12 matrices (total)                1.37 sec, Elapsed time:      1.42 sec

 Diagonal F12 approximation with fixed coefficients:  TSING= 0.500,  TTRIP= 0.250 (scaled by -1/beta)

 DF-MP2-F12 energy corrections:
 ==============================
 Approx.                                    Singlet             Triplet             Total
 DF-MP2-F12/3*C(DX,FIX)                -0.007258033372     -0.000572252201     -0.007830285573
 DF-MP2-F12/3*C(FIX)                   -0.006611912474     -0.000353220656     -0.006965133130
 DF-MP2-F12/3C(FIX)                    -0.006676615586     -0.000365439032     -0.007042054618

 DF-MP2-F12 correlation energies:
 ================================
 Approx.                                    Singlet             Triplet             Ecorr            Total Energy
 DF-MP2                                -0.192156796223     -0.102264750112     -0.294421546335    -76.359496807894
 DF-MP2-F12/3*C(DX,FIX)                -0.199414829595     -0.102837002313     -0.302251831908    -76.367327093467
 DF-MP2-F12/3*C(FIX)                   -0.198768708697     -0.102617970768     -0.301386679465    -76.366461941024
 DF-MP2-F12/3C(FIX)                    -0.198833411809     -0.102630189143     -0.301463600953    -76.366538862511

 SCS-DF-MP2 energies (F_SING= 1.20000  F_TRIP= 0.62222  F_PARALLEL= 0.33333):
 ============================================================================
 SCS-DF-MP2                            -0.294219555537    -76.359294817096
 SCS-DF-MP2-F12/3*C(DX,FIX)            -0.303285263620    -76.368360525179
 SCS-DF-MP2-F12/3*C(FIX)               -0.302373632247    -76.367448893806
 SCS-DF-MP2-F12/3C(FIX)                -0.302458878527    -76.367534140086
 Symmetry transformation completed.

 Number of N-1 electron functions:               4
 Number of N-2 electron functions:              10
 Number of singly external CSFs:              2916
 Number of doubly external CSFs:           4252986
 Total number of CSFs:                     4255903

 Pair and operator lists are different

 Length of J-op  integral file:             411.24 MB
 Length of K-op  integral file:             721.80 MB
 Length of 3-ext integral record:             0.00 MB

 Memory could be reduced to 2535.14 Mwords without degradation in triples

 Integral transformation finished. Total CPU: 599.02 sec, npass=  1  Memory used:1009.99 MW

 Reference energy:                    -76.06507526

 Adding F12 terms to K(Cij), methodcc=6,  factor= 1.0

 ITER.      SQ.NORM     CORR.ENERGY   TOTAL ENERGY   ENERGY CHANGE        DEN1      VAR(S)    VAR(P)  DIIS     TIME  TIME/IT
   1      1.06365218    -0.29286968   -76.35794494     0.00155807     0.00761410  0.78D-03  0.10D-02  1  1   809.51   171.43
   2      1.06717579    -0.29296412   -76.35803938    -0.00009444    -0.00497871  0.15D-04  0.12D-03  2  2   973.77   175.32
   3      1.06850977    -0.29305638   -76.35813164    -0.00009226    -0.00094737  0.82D-05  0.72D-05  3  3  1133.20   174.83
   4      1.06902207    -0.29306186   -76.35813713    -0.00000549    -0.00027986  0.53D-06  0.74D-06  4  4  1297.71   175.90
   5      1.06912619    -0.29306060   -76.35813587     0.00000126    -0.00003095  0.17D-06  0.56D-07  5  5  1463.06   176.74
   6      1.06916036    -0.29305839   -76.35813365     0.00000222    -0.00000580  0.20D-07  0.48D-08  6  6  1626.37   176.87
   7      1.06916882    -0.29305783   -76.35813309     0.00000056    -0.00000134  0.17D-08  0.87D-09  6  2  1810.06   180.19
   8      1.06917086    -0.29305769   -76.35813296     0.00000013    -0.00000010  0.24D-09  0.94D-10  6  1  1963.96   178.71
   9      1.06917133    -0.29305768   -76.35813294     0.00000001     0.00000010  0.48D-10  0.23D-10  6  2  2118.50   177.63
  10      1.06917168    -0.29305766   -76.35813292     0.00000002    -0.00000002  0.26D-11  0.14D-11  6  3  2276.54   177.22
  11      1.06917166    -0.29305766   -76.35813292    -0.00000000     0.00000005  0.47D-12  0.20D-12  6  5  2432.40   176.72
  12      1.06917168    -0.29305766   -76.35813292     0.00000000    -0.00000000  0.89D-13  0.24D-13  6  4  2587.79   176.28
  13      1.06917168    -0.29305766   -76.35813292    -0.00000000    -0.00000000  0.16D-13  0.41D-14  6  6  2743.88   175.96
  14      1.06917168    -0.29305766   -76.35813292    -0.00000000     0.00000000  0.25D-14  0.92D-15  6  1  2901.85   175.84
  15      1.06917167    -0.29305766   -76.35813292    -0.00000000    -0.00000000  0.31D-15  0.15D-15  6  2  3061.15   175.83
  16      1.06917167    -0.29305766   -76.35813292    -0.00000000     0.00000000  0.31D-16  0.18D-16  6  3  3219.12   175.71

 Norm of t1 vector:      0.03667942      S-energy:    -0.00000000      T1 diagnostic:  0.00916985
                                                                       D1 diagnostic:  0.01868746

 Adding energy correction from Wij-K(Fij), methodcc=6  factor= 1.0

  CCSD correlation energy              -0.293057661924
  MP2-F12 correction (uncoupled)       -0.006960952341
  C*T doubles correction               -0.000091036985
  f12b correction                       0.001581602141


 Total CPU time for triples:    648.56 sec

  Ecorr(MP2)                           -0.294427748284
  Ecorr(MP2-F12)                       -0.301469802902
  Scale factor for triples energy       1.023917768141


 RESULTS
 =======

  Reference energy                    -76.065036736277
  F12 singles correction               -0.000038525281

 F12 singles corrections added to reference energy

  New reference energy                -76.065075261559

  F12a singlet correction              -0.006653175987
  F12a triplet correction              -0.000398813338
  F12a total correction                -0.007051989325

 F12a corrections for ansatz F12/3C(FIX) added to CCSD energy

  CCSD-F12a singlet pair energy        -0.209326849239
  CCSD-F12a triplet pair energy        -0.090782801480
  CCSD-F12a correlation energy         -0.300109651249

  Triples (T) contribution (scaled)    -0.010042375671
  Total correlation energy             -0.310152026920

  CCSD-F12a total energy              -76.365184912808
  CCSD[T]-F12a energy                 -76.375544495208
  CCSD-T-F12a energy                  -76.375088263227
 !CCSD(T)-F12a total energy           -76.375227288479

 F12b corrections for ansatz F12/3C(FIX) added to CCSD(T)-F12a energy

  CCSD-F12b singlet pair energy        -0.207808534945
  CCSD-F12b triplet pair energy        -0.090719513633
  CCSD-F12b correlation energy         -0.298528049109

  Triples (T) contribution (scaled)    -0.010042375671
  Total correlation energy             -0.308570424780

  CCSD-F12b total energy              -76.363603310667
  CCSD[T]-F12b energy                 -76.373962893067
  CCSD-T-F12b energy                  -76.373506661086
 !CCSD(T)-F12b total energy           -76.373645686338

 Timing summary (sec):

 STEP                 CPU(USER)    SYS     CPU(TOT)    WALL
 Transformation        599.53     26.99    626.52    627.60
 CCSD iterations      2566.90    241.64   2808.54   2811.76
 Triples               648.56      5.79    654.35    656.08
 MP2-F12                52.88      2.64     55.52     55.58
 F12b energy           154.38     14.41    168.79    169.06

 Program statistics:

 Available memory in ccsd:              3999999871
 Min. memory needed in ccsd:              19260852
 Max. memory used in ccsd:                22423154
 Max. memory used in cckext:              14628952 (17 integral passes)



 **********************************************************************************************************************************
 DATASETS  * FILE   NREC   LENGTH (MB)   RECORD NAMES
              1      19     6330.34       500      610      700      900      950      970     1000      129      960     1100   
                                          VAR    BASINP    GEOM    SYMINP    ZMAT    AOBASIS   BASIS     P2S    ABASIS      S 
                                         1400     1410     1200     1210     1080     1600     1650     1700     1380   
                                           T        V       H0       H01     AOSYM     SMH    MOLCAS    OPER     JKOP   

              2       8       38.40       700     1000      520     2100     7360     7350      200     2101   
                                         GEOM     BASIS   MCVARS     RHF    F12ABS    EF12    OPTIONS    RHF  

 PROGRAMS   *        TOTAL   CCSD(T)    HF-SCF       INT   CCSD(T)    HF-SCF       INT
 CPU TIMES  *     20145.78   4022.43   1652.67      0.65  10919.76   1690.24   1859.83
 REAL TIME  *     22107.88 SEC
 DISK USED  *        14.29 GB (local),      554.46 GB (total)
 SF USED    *        17.68 GB
 GA USED    *         4.87 MB       (max)       0.00 MB       (current)
 **********************************************************************************************************************************

 Running procedure: SET_MONOMER2

 Dummy atoms: O16  H31  H32


 Recomputing one-electron integrals since nuclear charges changed


 PROGRAM * SEWARD (Integral evaluation for generally contracted gaussian basis sets)     Author: Roland Lindh, 1990

 Geometry written to block  1 of record 700


 Point group  C1  



 ATOMIC COORDINATES

 NR  ATOM    CHARGE       X              Y              Z

   1  O16     0.00  -11.397505175    1.072419576   -2.197184565
   2  H31     0.00  -11.790001291    2.731599113   -1.480411446
   3  H32     0.00  -11.462511754   -0.108659252   -0.778945109
   4  C1      6.00   -6.193010455    2.801518980    2.403542658
   5  H41     1.00   -4.656285171    1.699997622    3.119937832
   6  H42     1.00   -5.973046335    4.726205038    2.982932688
   7  H43     1.00   -7.940251230    2.077186956    3.118237078
   8  H44     1.00   -6.176569838    2.685300823    0.384937212

 Bond lengths in Bohr (Angstrom)

 1-2  1.849511731  1-3  1.846774542  4-5  2.021904040  4-6  2.022002335  4-7  2.021953343
     ( 0.978719459)     ( 0.977271001)     ( 1.069945541)     ( 1.069997556)     ( 1.069971630)

 4-8  2.022015060
     ( 1.070004290)

 Bond angles

  2-1-3  105.58293551   5-4-6  109.53398059   5-4-7  109.65604535   5-4-8  108.43490854

  6-4-7  109.49436728   6-4-8  109.86987750   7-4-8  109.83468330

 NUCLEAR CHARGE:                   10
 NUMBER OF PRIMITIVE AOS:        1046
 NUMBER OF SYMMETRY AOS:          786
 NUMBER OF CONTRACTIONS:          734   (  734A   )
 NUMBER OF CORE ORBITALS:           1   (    1A   )
 NUMBER OF VALENCE ORBITALS:        8   (    8A   )

 MOLECULE CHANGED: INITIALIZING OCCUPATION AND DUMP RECORDS


 NUCLEAR REPULSION ENERGY   13.68681606

 Basis set:  JKFIT                   
 Basis size:  1104
 Attributes:
 Sphericals:   T
 Basis set:  MP2FIT                  
 Basis size:  1246
 Attributes:
 Sphericals:   T
 Basis set:  RI                      
 Basis size:   730
 Attributes:
 Sphericals:   T
 Basis set:  TDDFT                   
 Basis size:  1246
 Attributes:
 Sphericals:   T

 Eigenvalues of metric

         1 0.192E-05 0.328E-05 0.333E-05 0.411E-05 0.483E-05 0.711E-05 0.755E-05 0.961E-05


 Contracted 2-electron integrals neglected if value below      1.0D-14

 OPERATOR DM      FOR CENTER  0  COORDINATES:    0.000000    0.000000    0.000000


 **********************************************************************************************************************************
 DATASETS  * FILE   NREC   LENGTH (MB)   RECORD NAMES
              1      18       49.80       500      610      700      900      950      970     1000      129      960     1100   
                                          VAR    BASINP    GEOM    SYMINP    ZMAT    AOBASIS   BASIS     P2S    ABASIS      S 
                                         1400     1410     1200     1210     1080     1600     1650     1700   
                                           T        V       H0       H01     AOSYM     SMH    MOLCAS    OPER   

              2       8       38.40       700     1000      520     2100     7360     7350      200     2101   
                                         GEOM     BASIS   MCVARS     RHF    F12ABS    EF12    OPTIONS    RHF  

 PROGRAMS   *        TOTAL       INT   CCSD(T)    HF-SCF       INT   CCSD(T)    HF-SCF       INT
 CPU TIMES  *     20146.26      0.48   4022.43   1652.67      0.65  10919.76   1690.24   1859.83
 REAL TIME  *     22109.57 SEC
 DISK USED  *        14.29 GB (local),      554.46 GB (total)
 SF USED    *        17.68 GB
 GA USED    *         4.87 MB       (max)       0.00 MB       (current)
 **********************************************************************************************************************************


 PROGRAM * RHF-SCF (CLOSED SHELL)       Authors: W. Meyer, H.-J. Werner


 NUMBER OF ELECTRONS:       5+    5-    SPACE SYMMETRY=1    SPIN SYMMETRY: Singlet 
 CONVERGENCE THRESHOLDS:    1.00E-08 (Density)    1.00E-11 (Energy)
 MAX. NUMBER OF ITERATIONS:       60
 INTERPOLATION TYPE:            DIIS
 INTERPOLATION STEPS:              2 (START)      1 (STEP)
 LEVEL SHIFTS:                  0.00 (CLOSED)  0.00 (OPEN) 



 Orbital guess generated from atomic densities. Full valence occupancy:    9

 Molecular orbital dump at record        2102.2

 Initial occupancy:   5

 ITERATION    DDIFF          GRAD             ENERGY        2-EL.EN.            DIPOLE MOMENTS         DIIS   ORB.
    1      0.000D+00      0.000D+00       -40.19676539     53.509904    0.00411   -0.00276   -0.00131    0    start
    2      0.000D+00      0.198D-02       -40.21405760     52.218480    0.00129   -0.00087   -0.00038    1    diag
    3      0.950D-03      0.769D-03       -40.21634103     52.673987    0.00182   -0.00123   -0.00055    2    diag
    4      0.259D-03      0.192D-03       -40.21666136     52.619250    0.00162   -0.00110   -0.00049    3    diag
    5      0.100D-03      0.248D-04       -40.21666684     52.621408    0.00159   -0.00108   -0.00048    4    diag
    6      0.349D-04      0.204D-05       -40.21666688     52.621536    0.00159   -0.00108   -0.00048    5    diag
    7      0.608D-05      0.166D-06       -40.21666688     52.621498    0.00159   -0.00108   -0.00048    6    diag
    8      0.352D-06      0.136D-07       -40.21666688     52.621499    0.00159   -0.00108   -0.00048    7    diag
    9      0.576D-07      0.167D-08       -40.21666688     52.621499    0.00159   -0.00108   -0.00048    8    diag
   10      0.108D-07      0.465D-09       -40.21666688     52.621499    0.00159   -0.00108   -0.00048    9    orth
   11      0.116D-08      0.667D-10       -40.21666688     52.621499    0.00159   -0.00108   -0.00048    0    orth

 Final occupancy:   5

 !RHF STATE  1.1 Energy               -40.216666881966
 Nuclear energy                        13.68681606
 One-electron energy                  -80.21423222
 Two-electron energy                   26.31074928
 Virial quotient                       -0.99832814
 !RHF STATE  1.1 Dipole moment          0.00158784    -0.00107821    -0.00047518
 Dipole moment /Debye                   0.00403562    -0.00274036    -0.00120772

 Orbital energies:

         1.1          2.1          3.1          4.1          5.1          6.1          7.1
    -11.196017    -0.950605    -0.551931    -0.549996    -0.547818     0.021751     0.033394


 HOMO      5.1    -0.547818 =     -14.9069eV
 LUMO      6.1     0.021751 =       0.5919eV
 LUMO-HOMO         0.569569 =      15.4988eV


 **********************************************************************************************************************************
 DATASETS  * FILE   NREC   LENGTH (MB)   RECORD NAMES
              1      18       49.80       500      610      700      900      950      970     1000      129      960     1100   
                                          VAR    BASINP    GEOM    SYMINP    ZMAT    AOBASIS   BASIS     P2S    ABASIS      S 
                                         1400     1410     1200     1210     1080     1600     1650     1700   
                                           T        V       H0       H01     AOSYM     SMH    MOLCAS    OPER   

              2       9       62.49       700     1000      520     2100     7360     7350      200     2101     2102   
                                         GEOM     BASIS   MCVARS     RHF    F12ABS    EF12    OPTIONS    RHF      RHF  

 PROGRAMS   *        TOTAL    HF-SCF       INT   CCSD(T)    HF-SCF       INT   CCSD(T)    HF-SCF       INT
 CPU TIMES  *     21707.21   1560.95      0.48   4022.43   1652.67      0.65  10919.76   1690.24   1859.83
 REAL TIME  *     23845.45 SEC
 DISK USED  *        14.29 GB (local),      554.46 GB (total)
 SF USED    *        17.68 GB
 GA USED    *         4.87 MB       (max)       0.00 MB       (current)
 **********************************************************************************************************************************

 Basis set:  JKFIT                   
 Basis size:  1104
 Attributes:
 Sphericals:   T
 Basis set:  MP2FIT                  
 Basis size:  1246
 Attributes:
 Sphericals:   T
 Basis set:  RI                      
 Basis size:   730
 Attributes:
 Sphericals:   T
 Basis set:  TDDFT                   
 Basis size:  1246
 Attributes:
 Sphericals:   T

 PROGRAM * CCSD (Closed-shell coupled cluster)     Authors: C. Hampel, H.-J. Werner, 1991, M. Deegan, P.J. Knowles, 1992

                                  CCSD-F12 implementation by  H.-J. Werner, 2007

                   Density fitting integral evaluation by F.R. Manby, 2003,2007, G. Knizia, 2010



 Convergence thresholds:  THRVAR = 1.00D-08  THRDEN = 1.00D-10

 CCSD(T)     terms to be evaluated (factor= 1.000)


 Number of core orbitals:           1 (   1 )
 Number of closed-shell orbitals:   4 (   4 )
 Number of external orbitals:     729 ( 729 )

 Molecular orbitals read from record     2102.2  Type=RHF/CANONICAL (state 1.1)

 MP2-F12 correlation treatment (H.-J. Werner, 2006)
 ==================================================

 Using MP2-F12 with ansatz 3C(FIX)

 Using projected zeroth-order Hamiltonian (+Z)

 FOCKRIB=T FOCKRIC=T FOCKRIP=T CABSP=T CABSA=T CABSK=T CABSF=T GBC=F EBC=F DMAT=T NOFIK=T NOPAO=1 SOLVE=-1  USEPAO=0
 EXCH_A= T EXCH_B= F EXCH_C= F EXCH_P= F

 Geminal basis:    OPTFULL  GEM_TYPE=SLATER  BETA=1.0  NGEM=6

 Optimizing Gaussian exponents for each gem_beta

 Geminal optimization for beta= 1.0000
 Weight function:   m=0, omega= 1.4646

 Augmented Hessian optimization of geminal fit. Trust ratio= 0.40000
 Convergence reached after   2 iterations. Final gradient= 8.53D-16, Step= 4.26D-06, Delta= 1.28D-09

 Alpha:                 0.19532     0.81920     2.85917     9.50073    35.69989   197.79328
 Coeff:                 0.27070     0.30552     0.18297     0.10986     0.06810     0.04224


 All pairs explicitly correlated. Number of r12-pairs:           10

 Excluding core orbitals from MO domains

 AO(A)-basis ORBITAL           loaded. Number of functions:     734
 RI(R)-basis RI                loaded. Number of functions:     730
 DF-basis JKFIT                loaded. Number of functions:    1104

 Screening thresholds:   THRAO=  1.00D-10  THRMO=  1.00D-09  THRPROD=  1.00D-09
                         THRSW=  1.00D-05  THROV=  1.00D-12  THRAOF12= 1.00D-10

 CPU time for Fock operators                      9.28 sec

 Construction of ABS:
 Smallest eigenvalue of S          2.27E-04  (threshold= 1.00E-08)
 Ratio eigmin/eigmax               3.94E-05  (threshold= 1.00E-09)
 Smallest eigenvalue of S kept     2.27E-04  (threshold= 2.27E-04, 0 functions deleted, 730 kept)

 Construction of CABS:
 Smallest eigenvalue of S          9.64E-09  (threshold= 1.00E-08)
 Ratio eigmin/eigmax               9.64E-09  (threshold= 1.00E-09)
 Smallest eigenvalue of S kept     8.36E-08  (threshold= 8.36E-08, 1 functions deleted, 729 kept)

 CPU time for CABS singles                        1.20 sec

 CABS-singles contribution of  -0.00004074 patched into reference energy.
 New reference energy         -40.21670762

 AO(A)-basis ORBITAL           loaded. Number of functions:     734
 RI(R)-basis RI                loaded. Number of functions:     730
 DF-basis MP2FIT               loaded. Number of functions:    1246

 Screening thresholds:   THRAO=  1.00D-10  THRMO=  1.00D-09  THRPROD=  1.00D-09
                         THRSW=  1.00D-05  THROV=  1.00D-12  THRAOF12= 1.00D-10

 CPU time for 3-index integral evaluation        29.30 sec
 CPU time for first  half transformation          2.70 sec ( 5457.7 MFLOP/sec)
 CPU time for second half transformation          0.05 sec ( 1276.0 MFLOP/sec)
 CPU time for sorting                             0.16 sec
 CPU time for fitting                             0.39 sec ( 5923.4 MFLOP/sec)
 CPU time for tilde quantities                    0.51 sec (22350.1 MFLOP/sec)
 CPU time for assembly                            1.43 sec (23416.7 MFLOP/sec)
 CPU time for tranop_f12                          1.72 sec (26628.2 MFLOP/sec)
 CPU time for f12 integrals (total)              39.02 sec, Elapsed time:     41.00 sec
 F12-matrices built in  4 passes.
 F12-matrices built in  4 passes.
 F12-matrices built in  4 passes.
 F12-matrices built in  4 passes.
 FC-matrix built in  4 passes.
 CPU time for f12 matrices (total)                1.34 sec, Elapsed time:      1.41 sec

 Diagonal F12 approximation with fixed coefficients:  TSING= 0.500,  TTRIP= 0.250 (scaled by -1/beta)

 DF-MP2-F12 energy corrections:
 ==============================
 Approx.                                    Singlet             Triplet             Total
 DF-MP2-F12/3*C(DX,FIX)                -0.003934166884     -0.000213108980     -0.004147275864
 DF-MP2-F12/3*C(FIX)                   -0.003770954093     -0.000160957958     -0.003931912052
 DF-MP2-F12/3C(FIX)                    -0.003817913425     -0.000163983830     -0.003981897256

 DF-MP2-F12 correlation energies:
 ================================
 Approx.                                    Singlet             Triplet             Ecorr            Total Energy
 DF-MP2                                -0.157869253819     -0.056824919452     -0.214694173271    -40.431401795556
 DF-MP2-F12/3*C(DX,FIX)                -0.161803420703     -0.057038028432     -0.218841449135    -40.435549071420
 DF-MP2-F12/3*C(FIX)                   -0.161640207912     -0.056985877410     -0.218626085322    -40.435333707608
 DF-MP2-F12/3C(FIX)                    -0.161687167244     -0.056988903282     -0.218676070526    -40.435383692812

 SCS-DF-MP2 energies (F_SING= 1.20000  F_TRIP= 0.62222  F_PARALLEL= 0.33333):
 ============================================================================
 SCS-DF-MP2                            -0.224800832241    -40.441508454527
 SCS-DF-MP2-F12/3*C(DX,FIX)            -0.229654433646    -40.446362055931
 SCS-DF-MP2-F12/3*C(FIX)               -0.229426128772    -40.446133751058
 SCS-DF-MP2-F12/3C(FIX)                -0.229484362735    -40.446191985021
 Symmetry transformation completed.

 Number of N-1 electron functions:               4
 Number of N-2 electron functions:              10
 Number of singly external CSFs:              2916
 Number of doubly external CSFs:           4252986
 Total number of CSFs:                     4255903

 Pair and operator lists are different

 Length of J-op  integral file:             411.24 MB
 Length of K-op  integral file:             721.80 MB
 Length of 3-ext integral record:             0.00 MB

 Memory could be reduced to 2535.14 Mwords without degradation in triples

 Integral transformation finished. Total CPU: 583.76 sec, npass=  1  Memory used:1009.99 MW

 Reference energy:                    -40.21670762

 Adding F12 terms to K(Cij), methodcc=6,  factor= 1.0

 ITER.      SQ.NORM     CORR.ENERGY   TOTAL ENERGY   ENERGY CHANGE        DEN1      VAR(S)    VAR(P)  DIIS     TIME  TIME/IT
   1      1.07033685    -0.22827239   -40.44498002    -0.01357151    -0.00771704  0.62D-03  0.94D-03  1  1   790.61   168.48
   2      1.07515866    -0.22922939   -40.44593702    -0.00095700    -0.00531229  0.16D-04  0.11D-03  2  2   946.14   169.76
   3      1.07694835    -0.22929675   -40.44600437    -0.00006736    -0.00133779  0.22D-05  0.64D-05  3  3  1100.64   169.90
   4      1.07735115    -0.22929920   -40.44600682    -0.00000245    -0.00021863  0.16D-06  0.39D-06  4  4  1255.16   169.92
   5      1.07740846    -0.22930276   -40.44601039    -0.00000357    -0.00000966  0.14D-07  0.24D-07  5  5  1410.42   170.16
   6      1.07741870    -0.22930142   -40.44600904     0.00000134    -0.00000403  0.90D-09  0.19D-08  6  6  1568.38   170.85
   7      1.07742023    -0.22930102   -40.44600865     0.00000040    -0.00000090  0.56D-10  0.13D-09  6  1  1724.17   171.05
   8      1.07742016    -0.22930108   -40.44600871    -0.00000006     0.00000024  0.61D-11  0.88D-11  6  3  1881.57   171.35
   9      1.07742030    -0.22930107   -40.44600869     0.00000002    -0.00000009  0.42D-12  0.62D-12  6  2  2037.83   171.50
  10      1.07742030    -0.22930107   -40.44600869     0.00000000     0.00000001  0.58D-13  0.64D-13  6  4  2194.80   171.73
  11      1.07742031    -0.22930106   -40.44600869     0.00000000    -0.00000000  0.59D-14  0.66D-14  6  5  2351.82   171.88
  12      1.07742030    -0.22930106   -40.44600869     0.00000000     0.00000000  0.17D-15  0.66D-15  6  6  2508.40   171.96
  13      1.07742030    -0.22930106   -40.44600869    -0.00000000     0.00000000  0.12D-16  0.71D-16  6  1  2664.05   172.02
  14      1.07742030    -0.22930106   -40.44600869    -0.00000000     0.00000000  0.18D-17  0.10D-16  6  3  2822.56   172.26

 Norm of t1 vector:      0.03268904      S-energy:     0.00000000      T1 diagnostic:  0.00817226
                                                                       D1 diagnostic:  0.01311247

 Adding energy correction from Wij-K(Fij), methodcc=6  factor= 1.0

  CCSD correlation energy              -0.229301063451
  MP2-F12 correction (uncoupled)       -0.003884751162
  C*T doubles correction               -0.000069033372
  f12b correction                       0.001100486922

 Total CPU time for triples:    646.96 sec

  Ecorr(MP2)                           -0.214700885994
  Ecorr(MP2-F12)                       -0.218682783250
  Scale factor for triples energy       1.018546254419


 RESULTS
 =======

  Reference energy                    -40.216666881967
  F12 singles correction               -0.000040740319

 F12 singles corrections added to reference energy

  New reference energy                -40.216707622286

  F12a singlet correction              -0.003782482297
  F12a triplet correction              -0.000171302237
  F12a total correction                -0.003953784534

 F12a corrections for ansatz F12/3C(FIX) added to CCSD energy

  CCSD-F12a singlet pair energy        -0.178096283358
  CCSD-F12a triplet pair energy        -0.055158564634
  CCSD-F12a correlation energy         -0.233254847985

  Triples (T) contribution (scaled)    -0.007109303460
  Total correlation energy             -0.240364151446

  CCSD-F12a total energy              -40.449962470271
  CCSD[T]-F12a energy                 -40.457307391777
  CCSD-T-F12a energy                  -40.457003929521
 !CCSD(T)-F12a total energy           -40.457071773731

 F12b corrections for ansatz F12/3C(FIX) added to CCSD(T)-F12a energy

  CCSD-F12b singlet pair energy        -0.177024940495
  CCSD-F12b triplet pair energy        -0.055129420574
  CCSD-F12b correlation energy         -0.232154361063

  Triples (T) contribution (scaled)    -0.007109303460
  Total correlation energy             -0.239263664523

  CCSD-F12b total energy              -40.448861983349
  CCSD[T]-F12b energy                 -40.456206904855
  CCSD-T-F12b energy                  -40.455903442599
 !CCSD(T)-F12b total energy           -40.455971286809

 Timing summary (sec):

 STEP                 CPU(USER)    SYS     CPU(TOT)    WALL
 Transformation        584.27     28.42    612.69    614.61
 CCSD iterations      2185.35    218.91   2404.26   2411.99
 Triples               646.96      5.74    652.70    655.10
 MP2-F12                53.13      2.56     55.69     55.78
 F12b energy           152.74     14.88    167.62    168.17

 Program statistics:

 Available memory in ccsd:              3999999866
 Min. memory needed in ccsd:              19260852
 Max. memory used in ccsd:                22423154
 Max. memory used in cckext:              14628952 (15 integral passes)



 **********************************************************************************************************************************
 DATASETS  * FILE   NREC   LENGTH (MB)   RECORD NAMES
              1      19     6330.34       500      610      700      900      950      970     1000      129      960     1100   
                                          VAR    BASINP    GEOM    SYMINP    ZMAT    AOBASIS   BASIS     P2S    ABASIS      S 
                                         1400     1410     1200     1210     1080     1600     1650     1700     1380   
                                           T        V       H0       H01     AOSYM     SMH    MOLCAS    OPER     JKOP   

              2       9       62.49       700     1000      520     2100     7360     7350      200     2101     2102   
                                         GEOM     BASIS   MCVARS     RHF    F12ABS    EF12    OPTIONS    RHF      RHF  

 PROGRAMS   *        TOTAL   CCSD(T)    HF-SCF       INT   CCSD(T)    HF-SCF       INT   CCSD(T)    HF-SCF       INT
 CPU TIMES  *     25329.85   3622.63   1560.95      0.48   4022.43   1652.67      0.65  10919.76   1690.24   1859.83
 REAL TIME  *     27752.70 SEC
 DISK USED  *        14.29 GB (local),      554.46 GB (total)
 SF USED    *        17.68 GB
 GA USED    *         4.87 MB       (max)       0.00 MB       (current)
 **********************************************************************************************************************************
 Molecular orbitals read from record     2102.2  Type=RHF/CANONICAL (state 1.1)
 Occupation numbers read from record     2102.2  Type=RHF/RHF (state 1.1)
 Orbital energies read from record       2102.2  Type=RHF/CANONICAL (state 1.1)
 Redundancy group numbers read from rec  2102.2  Type=RHF/RHF (state 1.1)

 CCSD(T)-F12/aug-cc-pV5Z energy=    -40.455971286809

     CCSD(T)-F12          HF-SCF     CCSD(T)-F12          HF-SCF     CCSD(T)-F12          HF-SCF
    -40.45597129    -40.21666688    -76.37364569    -76.06503674   -116.83022990   -116.28138669
 **********************************************************************************************************************************
 Molpro calculation terminated
