
 Primary working directories    : /scratch.ssd/kelum/job_380616.cerit-pbs.cerit-sc.cz/molpro.btsoOicdE5
 Secondary working directories  : /scratch.ssd/kelum/job_380616.cerit-pbs.cerit-sc.cz/molpro.btsoOicdE5
 Wavefunction directory         : /scratch.ssd/kelum/job_380616.cerit-pbs.cerit-sc.cz/
 Main file repository           : /scratch.ssd/kelum/job_380616.cerit-pbs.cerit-sc.cz/molpro.btsoOicdE5/

 id        : karlovklimes

 Nodes            nprocs
 elan5.cerit-sc.cz    4

 Using customized tuning parameters: mindgm=1; mindgv=20; mindgc=4; mindgr=1; noblas=0; minvec=7
 default implementation of scratch files=sf  


 Variables initialized (934), CPU time= 0.01 sec
                                                                                 !gdirect
 memory,4000,m
 gthresh,orbital=1d-10,energy=1d-10
 
 symmetry,nosym
 angstrom
 geometry={
 O18        -6.356200000000      0.392700000000      3.232000000000
 H35        -6.218200000000     -0.218800000000      2.485700000000
 H36        -5.588500000000      0.246100000000      3.819100000000
 C1        -3.277200000000      1.482500000000      1.271900000000
 H41        -2.464000000000      0.899600000000      1.651000000000
 H42        -3.160800000000      2.501000000000      1.578500000000
 H43        -4.201800000000      1.099200000000      1.650100000000
 H44        -3.268500000000      1.421000000000      0.203700000000
 }
 
 nkerna=1
 nkernb=1
 
 gf=0
 sing=1
 thrdum=1d-4
 gridthr=1d-8
 
 basis={
 set,orbital
 default,av5z
 set,jkfit
 default,av5z/jkfit
 set,mp2fit
 default,av5z/mp2fit
 set,ri
 default,av5z/optri
 set,tddft
 default,av5z/mp2fit
 }
 
 proc set_monomer1
 dummy,4,5,6,7,8
 endproc
 
 proc set_monomer2
 dummy,1,2,3
 endproc
 
                                                                                 !12 energy
 {hf,accu=1.d-16}
 {ccsd(t)-f12,df_basis=mp2fit,df_basis_exch=jkfit,ri_basis=ri,scale_trip=1,THRAOF12=1d-10}
 
 set_monomer1
 {hf,accu=1.d-16}
 {ccsd(t)-f12,df_basis=mp2fit,df_basis_exch=jkfit,ri_basis=ri,scale_trip=1,THRAOF12=1d-10}
 
 set_monomer2
 {hf,accu=1.d-16}
 {ccsd(t)-f12,df_basis=mp2fit,df_basis_exch=jkfit,ri_basis=ri,scale_trip=1,THRAOF12=1d-10}
 
 Commands  initialized (763), CPU time= 0.01 sec, 617 directives.
 Default parameters read. Elapsed time= 0.19 sec

 Checking input...
 Passed
1


                                         ***  PROGRAM SYSTEM MOLPRO  ***
                                       Copyright, TTI GmbH Stuttgart, 2015
                                    Version 2019.2 linked Jun  8 2019 11:26:33


 **********************************************************************************************************************************
 LABEL *                                                                                 
  64 bit mpp version                                                                     DATE: 24-Mar-20          TIME: 17:12:51  
 **********************************************************************************************************************************

 SHA1:             8135a10abc80eafa5b3ae28ffc55be4890dc4c84
 **********************************************************************************************************************************

 THRESHOLDS:

 ZERO    =  1.00D-12  ONEINT  =  1.00D-12  TWOINT  =  1.00D-11  PREFAC  =  1.00D-14  XXXXXX  =  1.00D-09  EORDER  =  1.00D-04
 ENERGY  =  1.00D-10  ETEST   =  0.00D+00  EDENS   =  0.00D+00  THRDEDEF=  1.00D-06  GRADIENT=  1.00D-02  STEP    =  1.00D-03
 ORBITAL =  1.00D-10  CIVEC   =  1.00D-05  COEFF   =  1.00D-04  PRINTCI =  5.00D-02  PUNCHCI =  9.90D+01  OPTGRAD =  3.00D-04
 OPTENERG=  1.00D-06  OPTSTEP =  3.00D-04  THRGRAD =  1.00D-10  COMPRESS=  1.00D-11  VARMIN  =  1.00D-07  VARMAX  =  1.00D-03
 THRDOUB =  0.00D+00  THRDIV  =  1.00D-05  THRRED  =  1.00D-07  THRPSP  =  1.00D+00  THRDC   =  1.00D-10  THRCS   =  1.00D-10
 THRNRM  =  1.00D-08  THREQ   =  0.00D+00  THRDE   =  1.00D+00  THRREF  =  1.00D-05  SPARFAC =  1.00D+00  THRDLP  =  1.00D-07
 THRDIA  =  1.00D-10  THRDLS  =  1.00D-07  THRGPS  =  0.00D+00  THRKEX  =  0.00D+00  THRDIS  =  2.00D-01  THRVAR  =  1.00D-10
 THRLOC  =  1.00D-06  THRGAP  =  1.00D-06  THRLOCT = -1.00D+00  THRGAPT = -1.00D+00  THRORB  =  1.00D-06  THRMLTP =  0.00D+00
 THRCPQCI=  1.00D-10  KEXTA   =  0.00D+00  THRCOARS=  0.00D+00  SYMTOL  =  1.00D-06  GRADTOL =  1.00D-06  THROVL  =  1.00D-08
 THRORTH =  1.00D-08  GRID    =  1.00D-06  GRIDMAX =  1.00D-03  DTMAX   =  0.00D+00  THROCCDE=  1.00D-01  THROCCDE=  1.00D-01
 THRPRINT=  2.50D-01


 Variable memory set to 4000000000 words,  buffer space 

 ZSYMEL=NOSYM
 ZUNIT=ANG


Geometry recognized as XYZ

 SETTING NKERNA         =         1.00000000                                  
 SETTING NKERNB         =         1.00000000                                  
 SETTING GF             =     0.00000000D+00                                  
 SETTING SING           =         1.00000000                                  
 SETTING THRDUM         =     1.00000000D-04                                  
 SETTING GRIDTHR        =     1.00000000D-08                                  
 SETTING BASIS          =    AV5Z


 Recomputing integrals since basis changed


 Using spherical harmonics

 Library entry O      S aug-cc-pV5Z          selected for orbital group  1
 Library entry O      P aug-cc-pV5Z          selected for orbital group  1
 Library entry O      D aug-cc-pV5Z          selected for orbital group  1
 Library entry O      F aug-cc-pV5Z          selected for orbital group  1
 Library entry O      G aug-cc-pV5Z          selected for orbital group  1
 Library entry O      H aug-cc-pV5Z          selected for orbital group  1
 Library entry H      S aug-cc-pV5Z          selected for orbital group  2
 Library entry H      P aug-cc-pV5Z          selected for orbital group  2
 Library entry H      D aug-cc-pV5Z          selected for orbital group  2
 Library entry H      F aug-cc-pV5Z          selected for orbital group  2
 Library entry H      G aug-cc-pV5Z          selected for orbital group  2
 Library entry C      S aug-cc-pV5Z          selected for orbital group  3
 Library entry C      P aug-cc-pV5Z          selected for orbital group  3
 Library entry C      D aug-cc-pV5Z          selected for orbital group  3
 Library entry C      F aug-cc-pV5Z          selected for orbital group  3
 Library entry C      G aug-cc-pV5Z          selected for orbital group  3
 Library entry C      H aug-cc-pV5Z          selected for orbital group  3


 PROGRAM * SEWARD (Integral evaluation for generally contracted gaussian basis sets)     Author: Roland Lindh, 1990

 Geometry written to block  1 of record 700


 Point group  C1  



 ATOMIC COORDINATES

 NR  ATOM    CHARGE       X              Y              Z

   1  O18     8.00  -12.011477193    0.742095449    6.107594835
   2  H35     1.00  -11.750694988   -0.413472076    4.697292228
   3  H36     1.00  -10.560734447    0.465061599    7.217053042
   4  C1      6.00   -6.193010455    2.801518980    2.403542658
   5  H41     1.00   -4.656285171    1.699997622    3.119937832
   6  H42     1.00   -5.973046335    4.726205038    2.982932688
   7  H43     1.00   -7.940251230    2.077186956    3.118237078
   8  H44     1.00   -6.176569838    2.685300823    0.384937212

 Bond lengths in Bohr (Angstrom)

 1-2  1.841818967  1-3  1.847241128  4-5  2.021904040  4-6  2.022002335  4-7  2.021953343
     ( 0.974648624)     ( 0.977517908)     ( 1.069945541)     ( 1.069997556)     ( 1.069971630)

 4-8  2.022015060
     ( 1.070004290)

 Bond angles

  2-1-3  104.74973043   5-4-6  109.53398059   5-4-7  109.65604535   5-4-8  108.43490854

  6-4-7  109.49436728   6-4-8  109.86987750   7-4-8  109.83468330

 NUCLEAR CHARGE:                   20
 NUMBER OF PRIMITIVE AOS:        1046
 NUMBER OF SYMMETRY AOS:          786
 NUMBER OF CONTRACTIONS:          734   (  734A   )
 NUMBER OF CORE ORBITALS:           2   (    2A   )
 NUMBER OF VALENCE ORBITALS:       14   (   14A   )


 NUCLEAR REPULSION ENERGY   36.79874832


 Basis set:  JKFIT                   
 Basis size:  1104
 Attributes:
 Sphericals:   T
 Basis set:  MP2FIT                  
 Basis size:  1246
 Attributes:
 Sphericals:   T
 Basis set:  RI                      
 Basis size:   730
 Attributes:
 Sphericals:   T
 Basis set:  TDDFT                   
 Basis size:  1246
 Attributes:
 Sphericals:   T

 **********************************************************************************************************************************


 Eigenvalues of metric

         1 0.990E-06 0.190E-05 0.289E-05 0.378E-05 0.485E-05 0.637E-05 0.795E-05 0.886E-05


 Contracted 2-electron integrals neglected if value below      1.0D-14
 AO integral compression algorithm  1   Integral accuracy      1.0D-14

     159417.893 MB (compressed) written to integral file ( 50.5%)

     Node minimum: 38879.101 MB, node maximum: 42083.025 MB


 NUMBER OF SORTED TWO-ELECTRON INTEGRALS: 9095363064.     BUFFER LENGTH:  32768
 NUMBER OF SEGMENTS: 190  SEGMENT LENGTH:   47999780      RECORD LENGTH: 131072

 Memory used in sort:      48.16 MW

 SORT1 READ 39471948705. AND WROTE  7176121869. INTEGRALS IN  82220 RECORDS. CPU TIME:  1061.20 SEC, REAL TIME:  1201.25 SEC
 SORT2 READ 28717742424. AND WROTE 36381317385. INTEGRALS IN 593644 RECORDS. CPU TIME:   158.85 SEC, REAL TIME:   814.53 SEC

 Node minimum:  9095228192.  Node maximum:  9095430501. integrals

 OPERATOR DM      FOR CENTER  0  COORDINATES:    0.000000    0.000000    0.000000


 **********************************************************************************************************************************
 DATASETS  * FILE   NREC   LENGTH (MB)   RECORD NAMES
              1      18       49.80       500      610      700      900      950      970     1000      129      960     1100   
                                          VAR    BASINP    GEOM    SYMINP    ZMAT    AOBASIS   BASIS     P2S    ABASIS      S 
                                         1400     1410     1200     1210     1080     1600     1650     1700   
                                           T        V       H0       H01     AOSYM     SMH    MOLCAS    OPER   

 PROGRAMS   *        TOTAL       INT
 CPU TIMES  *      1980.05   1979.82
 REAL TIME  *      2827.45 SEC
 DISK USED  *        50.44 MB (local),      503.86 GB (total)
 GA USED    *         0.00 MB       (max)       0.00 MB       (current)
 **********************************************************************************************************************************


 PROGRAM * RHF-SCF (CLOSED SHELL)       Authors: W. Meyer, H.-J. Werner


 NUMBER OF ELECTRONS:      10+   10-    SPACE SYMMETRY=1    SPIN SYMMETRY: Singlet 
 CONVERGENCE THRESHOLDS:    1.00E-08 (Density)    1.00E-11 (Energy)
 MAX. NUMBER OF ITERATIONS:       60
 INTERPOLATION TYPE:            DIIS
 INTERPOLATION STEPS:              2 (START)      1 (STEP)
 LEVEL SHIFTS:                  0.00 (CLOSED)  0.00 (OPEN) 



 Orbital guess generated from atomic densities. Full valence occupancy:   16

 Molecular orbital dump at record        2100.2

 Initial occupancy:  10

 ITERATION    DDIFF          GRAD             ENERGY        2-EL.EN.            DIPOLE MOMENTS         DIIS   ORB.
    1      0.000D+00      0.000D+00      -116.22300923    158.960933    0.87210   -0.73696   -0.14829    0    start
    2      0.000D+00      0.291D-02      -116.26714975    154.183213    0.49261   -0.38994   -0.08910    1    diag
    3      0.162D-02      0.169D-02      -116.28050093    156.190721    0.58768   -0.47977   -0.10356    2    diag
    4      0.554D-03      0.255D-03      -116.28116038    156.076753    0.57838   -0.47391   -0.10191    3    diag
    5      0.130D-03      0.748D-04      -116.28123021    156.072349    0.57805   -0.47326   -0.10224    4    diag
    6      0.533D-04      0.183D-04      -116.28123425    156.077935    0.57753   -0.47265   -0.10235    5    diag
    7      0.186D-04      0.381D-05      -116.28123450    156.076214    0.57759   -0.47263   -0.10242    6    diag
    8      0.520D-05      0.980D-06      -116.28123452    156.076401    0.57757   -0.47257   -0.10245    7    diag
    9      0.116D-05      0.225D-06      -116.28123452    156.076371    0.57756   -0.47255   -0.10245    8    diag
   10      0.310D-06      0.282D-07      -116.28123452    156.076372    0.57756   -0.47254   -0.10245    9    orth
   11      0.546D-07      0.742D-08      -116.28123452    156.076373    0.57756   -0.47254   -0.10245    9    diag
   12      0.656D-08      0.214D-08      -116.28123452    156.076373    0.57756   -0.47254   -0.10245    0    orth

 Final occupancy:  10

 !RHF STATE  1.1 Energy              -116.281234524828
 Nuclear energy                        36.79874832
 One-electron energy                 -231.11816951
 Two-electron energy                   78.03818666
 Virial quotient                       -1.00054159
 !RHF STATE  1.1 Dipole moment          0.57756283    -0.47254262    -0.10245270
 Dipole moment /Debye                   1.46792213    -1.20100488    -0.26039173

 Orbital energies:

         1.1          2.1          3.1          4.1          5.1          6.1          7.1          8.1          9.1         10.1
    -20.567719   -11.197909    -1.344046    -0.953092    -0.708943    -0.582773    -0.555232    -0.552803    -0.550540    -0.507841

        11.1         12.1
      0.019273     0.032445


 HOMO     10.1    -0.507841 =     -13.8191eV
 LUMO     11.1     0.019273 =       0.5244eV
 LUMO-HOMO         0.527114 =      14.3435eV


 **********************************************************************************************************************************
 DATASETS  * FILE   NREC   LENGTH (MB)   RECORD NAMES
              1      18       49.80       500      610      700      900      950      970     1000      129      960     1100   
                                          VAR    BASINP    GEOM    SYMINP    ZMAT    AOBASIS   BASIS     P2S    ABASIS      S 
                                         1400     1410     1200     1210     1080     1600     1650     1700   
                                           T        V       H0       H01     AOSYM     SMH    MOLCAS    OPER   

              2       4       13.79       700     1000      520     2100   
                                         GEOM     BASIS   MCVARS     RHF  

 PROGRAMS   *        TOTAL    HF-SCF       INT
 CPU TIMES  *      3907.21   1927.14   1979.82
 REAL TIME  *      4957.51 SEC
 DISK USED  *       102.61 MB (local),      504.07 GB (total)
 SF USED    *         2.16 MB
 GA USED    *         0.00 MB       (max)       0.00 MB       (current)
 **********************************************************************************************************************************

 Basis set:  JKFIT                   
 Basis size:  1104
 Attributes:
 Sphericals:   T
 Basis set:  MP2FIT                  
 Basis size:  1246
 Attributes:
 Sphericals:   T
 Basis set:  RI                      
 Basis size:   730
 Attributes:
 Sphericals:   T
 Basis set:  TDDFT                   
 Basis size:  1246
 Attributes:
 Sphericals:   T

 PROGRAM * CCSD (Closed-shell coupled cluster)     Authors: C. Hampel, H.-J. Werner, 1991, M. Deegan, P.J. Knowles, 1992

                                  CCSD-F12 implementation by  H.-J. Werner, 2007

                   Density fitting integral evaluation by F.R. Manby, 2003,2007, G. Knizia, 2010



 Convergence thresholds:  THRVAR = 1.00D-08  THRDEN = 1.00D-10

 CCSD(T)     terms to be evaluated (factor= 1.000)


 Number of core orbitals:           2 (   2 )
 Number of closed-shell orbitals:   8 (   8 )
 Number of external orbitals:     724 ( 724 )

 Molecular orbitals read from record     2100.2  Type=RHF/CANONICAL (state 1.1)

 MP2-F12 correlation treatment (H.-J. Werner, 2006)
 ==================================================

 Using MP2-F12 with ansatz 3C(FIX)

 Using projected zeroth-order Hamiltonian (+Z)

 FOCKRIB=T FOCKRIC=T FOCKRIP=T CABSP=T CABSA=T CABSK=T CABSF=T GBC=F EBC=F DMAT=T NOFIK=T NOPAO=1 SOLVE=-1  USEPAO=0
 EXCH_A= T EXCH_B= F EXCH_C= F EXCH_P= F

 Geminal basis:    OPTFULL  GEM_TYPE=SLATER  BETA=1.0  NGEM=6

 Optimizing Gaussian exponents for each gem_beta

 Geminal optimization for beta= 1.0000
 Weight function:   m=0, omega= 1.4646

 Augmented Hessian optimization of geminal fit. Trust ratio= 0.40000
 Convergence reached after   2 iterations. Final gradient= 8.53D-16, Step= 4.26D-06, Delta= 1.28D-09

 Alpha:                 0.19532     0.81920     2.85917     9.50073    35.69989   197.79328
 Coeff:                 0.27070     0.30552     0.18297     0.10986     0.06810     0.04224


 All pairs explicitly correlated. Number of r12-pairs:           36

 Excluding core orbitals from MO domains

 AO(A)-basis ORBITAL           loaded. Number of functions:     734
 RI(R)-basis RI                loaded. Number of functions:     730
 DF-basis JKFIT                loaded. Number of functions:    1104

 Screening thresholds:   THRAO=  1.00D-10  THRMO=  1.00D-09  THRPROD=  1.00D-09
                         THRSW=  1.00D-05  THROV=  1.00D-12  THRAOF12= 1.00D-10

 CPU time for Fock operators                     10.46 sec

 Construction of ABS:
 Smallest eigenvalue of S          2.24E-04  (threshold= 1.00E-08)
 Ratio eigmin/eigmax               3.89E-05  (threshold= 1.00E-09)
 Smallest eigenvalue of S kept     2.24E-04  (threshold= 2.24E-04, 0 functions deleted, 730 kept)

 Construction of CABS:
 Smallest eigenvalue of S          8.26E-09  (threshold= 1.00E-08)
 Ratio eigmin/eigmax               8.26E-09  (threshold= 1.00E-09)
 Smallest eigenvalue of S kept     6.61E-08  (threshold= 6.61E-08, 1 functions deleted, 729 kept)

 CPU time for CABS singles                        1.20 sec

 CABS-singles contribution of  -0.00007946 patched into reference energy.
 New reference energy        -116.28131399

 AO(A)-basis ORBITAL           loaded. Number of functions:     734
 RI(R)-basis RI                loaded. Number of functions:     730
 DF-basis MP2FIT               loaded. Number of functions:    1246

 Screening thresholds:   THRAO=  1.00D-10  THRMO=  1.00D-09  THRPROD=  1.00D-09
                         THRSW=  1.00D-05  THROV=  1.00D-12  THRAOF12= 1.00D-10

 CPU time for 3-index integral evaluation        30.14 sec
 CPU time for first  half transformation          4.23 sec ( 6926.7 MFLOP/sec)
 CPU time for second half transformation          0.11 sec ( 2323.2 MFLOP/sec)
 CPU time for sorting                             0.41 sec
 CPU time for fitting                             0.40 sec (23194.6 MFLOP/sec)
 CPU time for tilde quantities                    0.50 sec (27547.8 MFLOP/sec)
 CPU time for assembly                            4.68 sec (27214.8 MFLOP/sec)
 CPU time for tranop_f12                          5.94 sec (28082.5 MFLOP/sec)
 CPU time for f12 integrals (total)              54.51 sec, Elapsed time:     59.66 sec
 F12-matrices built in  4 passes.
 F12-matrices built in  4 passes.
 F12-matrices built in  4 passes.
 F12-matrices built in  4 passes.
 FC-matrix built in  4 passes.
 CPU time for f12 matrices (total)                4.79 sec, Elapsed time:      5.00 sec

 Diagonal F12 approximation with fixed coefficients:  TSING= 0.500,  TTRIP= 0.250 (scaled by -1/beta)

 DF-MP2-F12 energy corrections:
 ==============================
 Approx.                                    Singlet             Triplet             Total
 DF-MP2-F12/3*C(DX,FIX)                -0.011188406975     -0.000786394692     -0.011974801667
 DF-MP2-F12/3*C(FIX)                   -0.010378113602     -0.000515464910     -0.010893578512
 DF-MP2-F12/3C(FIX)                    -0.010488267332     -0.000531120150     -0.011019387482

 DF-MP2-F12 correlation energies:
 ================================
 Approx.                                    Singlet             Triplet             Ecorr            Total Energy
 DF-MP2                                -0.350229943336     -0.159843761436     -0.510073704772   -116.791387691975
 DF-MP2-F12/3*C(DX,FIX)                -0.361418350311     -0.160630156128     -0.522048506439   -116.803362493642
 DF-MP2-F12/3*C(FIX)                   -0.360608056938     -0.160359226346     -0.520967283284   -116.802281270487
 DF-MP2-F12/3C(FIX)                    -0.360718210668     -0.160374881586     -0.521093092254   -116.802407079458

 SCS-DF-MP2 energies (F_SING= 1.20000  F_TRIP= 0.62222  F_PARALLEL= 0.33333):
 ============================================================================
 SCS-DF-MP2                            -0.519734272452   -116.801048259655
 SCS-DF-MP2-F12/3*C(DX,FIX)            -0.533649673075   -116.814963660279
 SCS-DF-MP2-F12/3*C(FIX)               -0.532508742496   -116.813822729699
 SCS-DF-MP2-F12/3C(FIX)                -0.532650668011   -116.813964655214
 Symmetry transformation completed.

 Number of N-1 electron functions:               8
 Number of N-2 electron functions:              36
 Number of singly external CSFs:              5792
 Number of doubly external CSFs:          16776528
 Total number of CSFs:                    16782321

 Pair and operator lists are different

 Length of J-op  integral file:               1.47 GB
 Length of K-op  integral file:               2.18 GB
 Length of 3-ext integral record:             0.00 MB

 For full I/O caching in triples, increase memory by 34.16 Mwords to 4034.21 Mwords.

 Integral transformation finished. Total CPU:1139.33 sec, npass=  1  Memory used:1826.21 MW

 Reference energy:                   -116.28131399

 Adding F12 terms to K(Cij), methodcc=6,  factor= 1.0

 ITER.      SQ.NORM     CORR.ENERGY   TOTAL ENERGY   ENERGY CHANGE        DEN1      VAR(S)    VAR(P)  DIIS     TIME  TIME/IT
   1      1.13422153    -0.52207462  -116.80338860    -0.01198814    -0.00008232  0.14D-02  0.20D-02  1  1  1540.13   339.10
   2      1.14247148    -0.52312272  -116.80443671    -0.00104811    -0.01021366  0.32D-04  0.25D-03  2  2  1863.51   340.16
   3      1.14568442    -0.52328468  -116.80459867    -0.00016196    -0.00232077  0.12D-04  0.14D-04  3  3  2188.71   341.10
   4      1.14663868    -0.52328857  -116.80460256    -0.00000389    -0.00052868  0.68D-06  0.13D-05  4  4  2511.83   340.77
   5      1.14680861    -0.52329038  -116.80460437    -0.00000181    -0.00004262  0.21D-06  0.94D-07  5  5  2833.78   340.49
   6      1.14685562    -0.52328761  -116.80460160     0.00000277    -0.00000832  0.23D-07  0.83D-08  6  6  3155.20   340.35
   7      1.14686690    -0.52328635  -116.80460034     0.00000126    -0.00000287  0.24D-08  0.11D-08  6  2  3480.71   340.68
   8      1.14686988    -0.52328607  -116.80460006     0.00000028    -0.00000051  0.36D-09  0.12D-09  6  1  3809.84   341.37
   9      1.14687077    -0.52328604  -116.80460003     0.00000003    -0.00000000  0.35D-10  0.18D-10  6  3  4133.16   341.46
  10      1.14687095    -0.52328604  -116.80460002     0.00000000     0.00000006  0.37D-11  0.26D-11  6  4  4454.75   341.34
  11      1.14687092    -0.52328605  -116.80460003    -0.00000001     0.00000008  0.61D-12  0.32D-12  6  5  4775.97   341.22
  12      1.14687091    -0.52328605  -116.80460003    -0.00000000     0.00000002  0.10D-12  0.41D-13  6  6  5097.72   341.15
  13      1.14687089    -0.52328605  -116.80460003    -0.00000000     0.00000001  0.21D-13  0.57D-14  6  2  5416.78   340.87
  14      1.14687089    -0.52328605  -116.80460004    -0.00000000     0.00000000  0.40D-14  0.13D-14  6  1  5737.32   340.71
  15      1.14687089    -0.52328605  -116.80460004    -0.00000000    -0.00000000  0.70D-15  0.25D-15  6  3  6054.81   340.35
  16      1.14687089    -0.52328605  -116.80460004    -0.00000000    -0.00000000  0.16D-15  0.47D-16  6  4  6375.31   340.22
  17      1.14687089    -0.52328605  -116.80460004     0.00000000    -0.00000000  0.57D-16  0.14D-16  6  5  6679.99   339.24

 Norm of t1 vector:      0.04986401      S-energy:    -0.00000000      T1 diagnostic:  0.00881480
                                                                       D1 diagnostic:  0.01965655

 Adding energy correction from Wij-K(Fij), methodcc=6  factor= 1.0

  CCSD correlation energy              -0.523286048283
  MP2-F12 correction (uncoupled)       -0.010844918782
  C*T doubles correction               -0.000157836141
  f12b correction                       0.002681066583

   CPU time for triples:   2076.07 sec for i =  1 -  6 /  8 (~  44.6 % done)
   CPU time for triples:   2792.96 sec for i =  7 -  8 /  8 (  100.0 % done)

 Total CPU time for triples:   4900.74 sec

  Ecorr(MP2)                           -0.510086480305
  Ecorr(MP2-F12)                       -0.521105867787
  Scale factor for triples energy       1.021602978922


 RESULTS
 =======

  Reference energy                   -116.281234524828
  F12 singles correction               -0.000079462375

 F12 singles corrections added to reference energy

  New reference energy               -116.281313987203

  F12a singlet correction              -0.010431361936
  F12a triplet correction              -0.000571392986
  F12a total correction                -0.011002754922

 F12a corrections for ansatz F12/3C(FIX) added to CCSD energy

  CCSD-F12a singlet pair energy        -0.387489076670
  CCSD-F12a triplet pair energy        -0.146799726095
  CCSD-F12a correlation energy         -0.534288803205

  Triples (T) contribution (scaled)    -0.017337693622
  Total correlation energy             -0.551626496827

  CCSD-F12a total energy             -116.815602790408
  CCSD[T]-F12a energy                -116.833497565677
  CCSD-T-F12a energy                 -116.832730598762
 !CCSD(T)-F12a total energy          -116.832940484030

 F12b corrections for ansatz F12/3C(FIX) added to CCSD(T)-F12a energy

  CCSD-F12b singlet pair energy        -0.384900764843
  CCSD-F12b triplet pair energy        -0.146706971338
  CCSD-F12b correlation energy         -0.531607736622

  Triples (T) contribution (scaled)    -0.017337693622
  Total correlation energy             -0.548945430244

  CCSD-F12b total energy             -116.812921723825
  CCSD[T]-F12b energy                -116.830816499093
  CCSD-T-F12b energy                 -116.830049532178
 !CCSD(T)-F12b total energy          -116.830259417447

 Timing summary (sec):

 STEP                 CPU(USER)    SYS     CPU(TOT)    WALL
 Transformation       1140.95     52.84   1193.79   1195.37
 CCSD iterations      5464.08    302.70   5766.78   5767.72
 Triples              4900.74     33.41   4934.15   4952.14
 MP2-F12                75.17      5.79     80.96     81.78
 F12b energy           282.59     15.03    297.62    297.66

 Program statistics:

 Available memory in ccsd:              3999999554
 Min. memory needed in ccsd:              48689265
 Max. memory used in ccsd:                63255345
 Max. memory used in cckext:              42753482 (18 integral passes)



 **********************************************************************************************************************************
 DATASETS  * FILE   NREC   LENGTH (MB)   RECORD NAMES
              1      19    12452.16       500      610      700      900      950      970     1000      129      960     1100   
                                          VAR    BASINP    GEOM    SYMINP    ZMAT    AOBASIS   BASIS     P2S    ABASIS      S 
                                         1400     1410     1200     1210     1080     1600     1650     1700     1380   
                                           T        V       H0       H01     AOSYM     SMH    MOLCAS    OPER     JKOP   

              2       6       24.60       700     1000      520     2100     7360     7350   
                                         GEOM     BASIS   MCVARS     RHF    F12ABS    EF12   

 PROGRAMS   *        TOTAL   CCSD(T)    HF-SCF       INT
 CPU TIMES  *     15770.98  11863.76   1927.14   1979.82
 REAL TIME  *     17255.37 SEC
 DISK USED  *        14.29 GB (local),      555.38 GB (total)
 SF USED    *        17.68 GB
 GA USED    *         4.87 MB       (max)       0.00 MB       (current)
 **********************************************************************************************************************************

 Running procedure: SET_MONOMER1

 Dummy atoms: C1  H41  H42  H43  H44


 Recomputing one-electron integrals since nuclear charges changed


 PROGRAM * SEWARD (Integral evaluation for generally contracted gaussian basis sets)     Author: Roland Lindh, 1990

 Geometry written to block  1 of record 700


 Point group  C1  



 ATOMIC COORDINATES

 NR  ATOM    CHARGE       X              Y              Z

   1  O18     8.00  -12.011477193    0.742095449    6.107594835
   2  H35     1.00  -11.750694988   -0.413472076    4.697292228
   3  H36     1.00  -10.560734447    0.465061599    7.217053042
   4  C1      0.00   -6.193010455    2.801518980    2.403542658
   5  H41     0.00   -4.656285171    1.699997622    3.119937832
   6  H42     0.00   -5.973046335    4.726205038    2.982932688
   7  H43     0.00   -7.940251230    2.077186956    3.118237078
   8  H44     0.00   -6.176569838    2.685300823    0.384937212

 Bond lengths in Bohr (Angstrom)

 1-2  1.841818967  1-3  1.847241128  4-5  2.021904040  4-6  2.022002335  4-7  2.021953343
     ( 0.974648624)     ( 0.977517908)     ( 1.069945541)     ( 1.069997556)     ( 1.069971630)

 4-8  2.022015060
     ( 1.070004290)

 Bond angles

  2-1-3  104.74973043   5-4-6  109.53398059   5-4-7  109.65604535   5-4-8  108.43490854

  6-4-7  109.49436728   6-4-8  109.86987750   7-4-8  109.83468330

 NUCLEAR CHARGE:                   10
 NUMBER OF PRIMITIVE AOS:        1046
 NUMBER OF SYMMETRY AOS:          786
 NUMBER OF CONTRACTIONS:          734   (  734A   )
 NUMBER OF CORE ORBITALS:           1   (    1A   )
 NUMBER OF VALENCE ORBITALS:        6   (    6A   )

 MOLECULE CHANGED: INITIALIZING OCCUPATION AND DUMP RECORDS


 NUCLEAR REPULSION ENERGY    9.01656758

 Basis set:  JKFIT                   
 Basis size:  1104
 Attributes:
 Sphericals:   T
 Basis set:  MP2FIT                  
 Basis size:  1246
 Attributes:
 Sphericals:   T
 Basis set:  RI                      
 Basis size:   730
 Attributes:
 Sphericals:   T
 Basis set:  TDDFT                   
 Basis size:  1246
 Attributes:
 Sphericals:   T

 Eigenvalues of metric

         1 0.990E-06 0.190E-05 0.289E-05 0.378E-05 0.485E-05 0.637E-05 0.795E-05 0.886E-05


 Contracted 2-electron integrals neglected if value below      1.0D-14

 OPERATOR DM      FOR CENTER  0  COORDINATES:    0.000000    0.000000    0.000000


 **********************************************************************************************************************************
 DATASETS  * FILE   NREC   LENGTH (MB)   RECORD NAMES
              1      18       49.80       500      610      700      900      950      970     1000      129      960     1100   
                                          VAR    BASINP    GEOM    SYMINP    ZMAT    AOBASIS   BASIS     P2S    ABASIS      S 
                                         1400     1410     1200     1210     1080     1600     1650     1700   
                                           T        V       H0       H01     AOSYM     SMH    MOLCAS    OPER   

              2       7       24.63       700     1000      520     2100     7360     7350      200   
                                         GEOM     BASIS   MCVARS     RHF    F12ABS    EF12    OPTIONS    

 PROGRAMS   *        TOTAL       INT   CCSD(T)    HF-SCF       INT
 CPU TIMES  *     15771.60      0.60  11863.76   1927.14   1979.82
 REAL TIME  *     17258.19 SEC
 DISK USED  *        14.29 GB (local),      555.38 GB (total)
 SF USED    *        17.68 GB
 GA USED    *         4.87 MB       (max)       0.00 MB       (current)
 **********************************************************************************************************************************


 PROGRAM * RHF-SCF (CLOSED SHELL)       Authors: W. Meyer, H.-J. Werner


 NUMBER OF ELECTRONS:       5+    5-    SPACE SYMMETRY=1    SPIN SYMMETRY: Singlet 
 CONVERGENCE THRESHOLDS:    1.00E-08 (Density)    1.00E-11 (Energy)
 MAX. NUMBER OF ITERATIONS:       60
 INTERPOLATION TYPE:            DIIS
 INTERPOLATION STEPS:              2 (START)      1 (STEP)
 LEVEL SHIFTS:                  0.00 (CLOSED)  0.00 (OPEN) 



 Orbital guess generated from atomic densities. Full valence occupancy:    7

 Molecular orbital dump at record        2101.2

 Initial occupancy:   5

 ITERATION    DDIFF          GRAD             ENERGY        2-EL.EN.            DIPOLE MOMENTS         DIIS   ORB.
    1      0.000D+00      0.000D+00       -76.02666982     77.438887    0.87680   -0.73330   -0.15323    0    start
    2      0.000D+00      0.360D-02       -76.05353816     73.787916    0.50894   -0.42623   -0.08979    1    diag
    3      0.131D-02      0.229D-02       -76.06510150     75.409918    0.60079   -0.50302   -0.10581    2    diag
    4      0.494D-03      0.215D-03       -76.06529538     75.318345    0.59710   -0.50004   -0.10532    3    diag
    5      0.621D-04      0.600D-04       -76.06531625     75.332949    0.59576   -0.49896   -0.10516    4    diag
    6      0.193D-04      0.120D-04       -76.06531760     75.331888    0.59545   -0.49872   -0.10513    5    diag
    7      0.510D-05      0.244D-05       -76.06531767     75.332032    0.59536   -0.49865   -0.10511    6    diag
    8      0.148D-05      0.461D-06       -76.06531767     75.332021    0.59533   -0.49862   -0.10511    7    diag
    9      0.271D-06      0.619D-07       -76.06531767     75.332011    0.59532   -0.49862   -0.10511    8    diag
   10      0.352D-07      0.135D-07       -76.06531767     75.332014    0.59532   -0.49862   -0.10511    9    orth
   11      0.980D-08      0.239D-08       -76.06531767     75.332014    0.59532   -0.49862   -0.10511    0    orth

 Final occupancy:   5

 !RHF STATE  1.1 Energy               -76.065317672628
 Nuclear energy                         9.01656758
 One-electron energy                 -122.74789204
 Two-electron energy                   37.66600678
 Virial quotient                       -1.00182432
 !RHF STATE  1.1 Dipole moment          0.59532279    -0.49861902    -0.10510973
 Dipole moment /Debye                   1.51306050    -1.26728012    -0.26714480

 Orbital energies:

         1.1          2.1          3.1          4.1          5.1          6.1          7.1
    -20.567171    -1.342938    -0.708001    -0.580901    -0.508929     0.014723     0.031077


 HOMO      5.1    -0.508929 =     -13.8487eV
 LUMO      6.1     0.014723 =       0.4006eV
 LUMO-HOMO         0.523652 =      14.2493eV


 **********************************************************************************************************************************
 DATASETS  * FILE   NREC   LENGTH (MB)   RECORD NAMES
              1      18       49.80       500      610      700      900      950      970     1000      129      960     1100   
                                          VAR    BASINP    GEOM    SYMINP    ZMAT    AOBASIS   BASIS     P2S    ABASIS      S 
                                         1400     1410     1200     1210     1080     1600     1650     1700   
                                           T        V       H0       H01     AOSYM     SMH    MOLCAS    OPER   

              2       8       38.40       700     1000      520     2100     7360     7350      200     2101   
                                         GEOM     BASIS   MCVARS     RHF    F12ABS    EF12    OPTIONS    RHF  

 PROGRAMS   *        TOTAL    HF-SCF       INT   CCSD(T)    HF-SCF       INT
 CPU TIMES  *     17510.50   1738.90      0.60  11863.76   1927.14   1979.82
 REAL TIME  *     19184.66 SEC
 DISK USED  *        14.29 GB (local),      555.38 GB (total)
 SF USED    *        17.68 GB
 GA USED    *         4.87 MB       (max)       0.00 MB       (current)
 **********************************************************************************************************************************

 Basis set:  JKFIT                   
 Basis size:  1104
 Attributes:
 Sphericals:   T
 Basis set:  MP2FIT                  
 Basis size:  1246
 Attributes:
 Sphericals:   T
 Basis set:  RI                      
 Basis size:   730
 Attributes:
 Sphericals:   T
 Basis set:  TDDFT                   
 Basis size:  1246
 Attributes:
 Sphericals:   T

 PROGRAM * CCSD (Closed-shell coupled cluster)     Authors: C. Hampel, H.-J. Werner, 1991, M. Deegan, P.J. Knowles, 1992

                                  CCSD-F12 implementation by  H.-J. Werner, 2007

                   Density fitting integral evaluation by F.R. Manby, 2003,2007, G. Knizia, 2010



 Convergence thresholds:  THRVAR = 1.00D-08  THRDEN = 1.00D-10

 CCSD(T)     terms to be evaluated (factor= 1.000)


 Number of core orbitals:           1 (   1 )
 Number of closed-shell orbitals:   4 (   4 )
 Number of external orbitals:     729 ( 729 )

 Molecular orbitals read from record     2101.2  Type=RHF/CANONICAL (state 1.1)

 MP2-F12 correlation treatment (H.-J. Werner, 2006)
 ==================================================

 Using MP2-F12 with ansatz 3C(FIX)

 Using projected zeroth-order Hamiltonian (+Z)

 FOCKRIB=T FOCKRIC=T FOCKRIP=T CABSP=T CABSA=T CABSK=T CABSF=T GBC=F EBC=F DMAT=T NOFIK=T NOPAO=1 SOLVE=-1  USEPAO=0
 EXCH_A= T EXCH_B= F EXCH_C= F EXCH_P= F

 Geminal basis:    OPTFULL  GEM_TYPE=SLATER  BETA=1.0  NGEM=6

 Optimizing Gaussian exponents for each gem_beta

 Geminal optimization for beta= 1.0000
 Weight function:   m=0, omega= 1.4646

 Augmented Hessian optimization of geminal fit. Trust ratio= 0.40000
 Convergence reached after   2 iterations. Final gradient= 8.53D-16, Step= 4.26D-06, Delta= 1.28D-09

 Alpha:                 0.19532     0.81920     2.85917     9.50073    35.69989   197.79328
 Coeff:                 0.27070     0.30552     0.18297     0.10986     0.06810     0.04224


 All pairs explicitly correlated. Number of r12-pairs:           10

 Excluding core orbitals from MO domains

 AO(A)-basis ORBITAL           loaded. Number of functions:     734
 RI(R)-basis RI                loaded. Number of functions:     730
 DF-basis JKFIT                loaded. Number of functions:    1104

 Screening thresholds:   THRAO=  1.00D-10  THRMO=  1.00D-09  THRPROD=  1.00D-09
                         THRSW=  1.00D-05  THROV=  1.00D-12  THRAOF12= 1.00D-10

 CPU time for Fock operators                      9.55 sec

 Construction of ABS:
 Smallest eigenvalue of S          2.24E-04  (threshold= 1.00E-08)
 Ratio eigmin/eigmax               3.89E-05  (threshold= 1.00E-09)
 Smallest eigenvalue of S kept     2.24E-04  (threshold= 2.24E-04, 0 functions deleted, 730 kept)

 Construction of CABS:
 Smallest eigenvalue of S          8.26E-09  (threshold= 1.00E-08)
 Ratio eigmin/eigmax               8.26E-09  (threshold= 1.00E-09)
 Smallest eigenvalue of S kept     6.61E-08  (threshold= 6.61E-08, 1 functions deleted, 729 kept)

 CPU time for CABS singles                        1.24 sec

 CABS-singles contribution of  -0.00003875 patched into reference energy.
 New reference energy         -76.06535643

 AO(A)-basis ORBITAL           loaded. Number of functions:     734
 RI(R)-basis RI                loaded. Number of functions:     730
 DF-basis MP2FIT               loaded. Number of functions:    1246

 Screening thresholds:   THRAO=  1.00D-10  THRMO=  1.00D-09  THRPROD=  1.00D-09
                         THRSW=  1.00D-05  THROV=  1.00D-12  THRAOF12= 1.00D-10

 CPU time for 3-index integral evaluation        29.92 sec
 CPU time for first  half transformation          3.73 sec ( 3954.3 MFLOP/sec)
 CPU time for second half transformation          0.04 sec ( 1509.1 MFLOP/sec)
 CPU time for sorting                             0.19 sec
 CPU time for fitting                             0.39 sec ( 5891.6 MFLOP/sec)
 CPU time for tilde quantities                    0.53 sec (17230.0 MFLOP/sec)
 CPU time for assembly                            1.50 sec (22304.3 MFLOP/sec)
 CPU time for tranop_f12                          1.67 sec (25083.9 MFLOP/sec)
 CPU time for f12 integrals (total)              40.89 sec, Elapsed time:     43.09 sec
 F12-matrices built in  4 passes.
 F12-matrices built in  4 passes.
 F12-matrices built in  4 passes.
 F12-matrices built in  4 passes.
 FC-matrix built in  4 passes.
 CPU time for f12 matrices (total)                1.38 sec, Elapsed time:      1.49 sec

 Diagonal F12 approximation with fixed coefficients:  TSING= 0.500,  TTRIP= 0.250 (scaled by -1/beta)

 DF-MP2-F12 energy corrections:
 ==============================
 Approx.                                    Singlet             Triplet             Total
 DF-MP2-F12/3*C(DX,FIX)                -0.007247702841     -0.000571499979     -0.007819202821
 DF-MP2-F12/3*C(FIX)                   -0.006600766744     -0.000352466246     -0.006953232990
 DF-MP2-F12/3C(FIX)                    -0.006663936648     -0.000364700005     -0.007028636653

 DF-MP2-F12 correlation energies:
 ================================
 Approx.                                    Singlet             Triplet             Ecorr            Total Energy
 DF-MP2                                -0.192106954770     -0.102238812093     -0.294345766863    -76.359702194138
 DF-MP2-F12/3*C(DX,FIX)                -0.199354657611     -0.102810312073     -0.302164969684    -76.367521396958
 DF-MP2-F12/3*C(FIX)                   -0.198707721514     -0.102591278339     -0.301298999853    -76.366655427128
 DF-MP2-F12/3C(FIX)                    -0.198770891418     -0.102603512099     -0.301374403516    -76.366730830791

 SCS-DF-MP2 energies (F_SING= 1.20000  F_TRIP= 0.62222  F_PARALLEL= 0.33333):
 ============================================================================
 SCS-DF-MP2                            -0.294143606582    -76.359500033856
 SCS-DF-MP2-F12/3*C(DX,FIX)            -0.303196449978    -76.368552877253
 SCS-DF-MP2-F12/3*C(FIX)               -0.302283839006    -76.367640266280
 SCS-DF-MP2-F12/3C(FIX)                -0.302367255007    -76.367723682282
 Symmetry transformation completed.

 Number of N-1 electron functions:               4
 Number of N-2 electron functions:              10
 Number of singly external CSFs:              2916
 Number of doubly external CSFs:           4252986
 Total number of CSFs:                     4255903

 Pair and operator lists are different

 Length of J-op  integral file:             411.24 MB
 Length of K-op  integral file:             721.80 MB
 Length of 3-ext integral record:             0.00 MB

 Memory could be reduced to 2535.14 Mwords without degradation in triples

 Integral transformation finished. Total CPU: 610.40 sec, npass=  1  Memory used:1009.99 MW

 Reference energy:                    -76.06535643

 Adding F12 terms to K(Cij), methodcc=6,  factor= 1.0

 ITER.      SQ.NORM     CORR.ENERGY   TOTAL ENERGY   ENERGY CHANGE        DEN1      VAR(S)    VAR(P)  DIIS     TIME  TIME/IT
   1      1.06355663    -0.29280333   -76.35815976     0.00154862     0.00758900  0.78D-03  0.10D-02  1  1   834.40   183.18
   2      1.06706537    -0.29289721   -76.35825363    -0.00009388    -0.00496742  0.15D-04  0.11D-03  2  2  1006.70   185.09
   3      1.06838989    -0.29298852   -76.35834495    -0.00009132    -0.00094270  0.82D-05  0.72D-05  3  3  1177.10   185.10
   4      1.06889821    -0.29299393   -76.35835035    -0.00000540    -0.00027824  0.53D-06  0.74D-06  4  4  1345.88   184.81
   5      1.06900246    -0.29299265   -76.35834908     0.00000127    -0.00003135  0.17D-06  0.55D-07  5  5  1515.98   184.93
   6      1.06903655    -0.29299045   -76.35834687     0.00000221    -0.00000573  0.20D-07  0.47D-08  6  6  1691.85   186.40
   7      1.06904500    -0.29298988   -76.35834631     0.00000056    -0.00000134  0.17D-08  0.84D-09  6  2  1861.40   186.24
   8      1.06904702    -0.29298975   -76.35834618     0.00000013    -0.00000010  0.23D-09  0.90D-10  6  1  2029.79   186.01
   9      1.06904767    -0.29298972   -76.35834615     0.00000003     0.00000006  0.21D-10  0.98D-11  6  3  2198.58   185.95
  10      1.06904783    -0.29298971   -76.35834614     0.00000001     0.00000001  0.21D-11  0.13D-11  6  4  2368.92   186.05
  11      1.06904782    -0.29298971   -76.35834614    -0.00000000     0.00000003  0.42D-12  0.15D-12  6  5  2542.69   186.42
  12      1.06904782    -0.29298972   -76.35834614    -0.00000000     0.00000001  0.75D-13  0.23D-13  6  6  2714.98   186.61
  13      1.06904782    -0.29298972   -76.35834614    -0.00000000     0.00000000  0.14D-13  0.39D-14  6  2  2888.77   186.80
  14      1.06904782    -0.29298972   -76.35834614    -0.00000000     0.00000000  0.19D-14  0.70D-15  6  1  3059.29   186.74
  15      1.06904782    -0.29298972   -76.35834614    -0.00000000    -0.00000000  0.22D-15  0.12D-15  6  3  3229.85   186.71
  16      1.06904782    -0.29298972   -76.35834614     0.00000000    -0.00000000  0.43D-16  0.18D-16  6  4  3405.68   186.96

 Norm of t1 vector:      0.03660077      S-energy:    -0.00000000      T1 diagnostic:  0.00915019
                                                                       D1 diagnostic:  0.01865597

 Adding energy correction from Wij-K(Fij), methodcc=6  factor= 1.0

  CCSD correlation energy              -0.292989716148
  MP2-F12 correction (uncoupled)       -0.006951853214
  C*T doubles correction               -0.000088713020
  f12b correction                       0.001578080318


 Total CPU time for triples:    685.13 sec

  Ecorr(MP2)                           -0.294351951167
  Ecorr(MP2-F12)                       -0.301380587820
  Scale factor for triples energy       1.023878342323


 RESULTS
 =======

  Reference energy                    -76.065317672626
  F12 singles correction               -0.000038754649

 F12 singles corrections added to reference energy

  New reference energy                -76.065356427275

  F12a singlet correction              -0.006642545322
  F12a triplet correction              -0.000398020912
  F12a total correction                -0.007040566234

 F12a corrections for ansatz F12/3C(FIX) added to CCSD energy

  CCSD-F12a singlet pair energy        -0.209246081453
  CCSD-F12a triplet pair energy        -0.090784200318
  CCSD-F12a correlation energy         -0.300030282382

  Triples (T) contribution (scaled)    -0.010027590932
  Total correlation energy             -0.310057873315

  CCSD-F12a total energy              -76.365386709657
  CCSD[T]-F12a energy                 -76.375730396328
  CCSD-T-F12a energy                  -76.375275760156
 !CCSD(T)-F12a total energy           -76.375414300589

 F12b corrections for ansatz F12/3C(FIX) added to CCSD(T)-F12a energy

  CCSD-F12b singlet pair energy        -0.207731152919
  CCSD-F12b triplet pair energy        -0.090721048534
  CCSD-F12b correlation energy         -0.298452202064

  Triples (T) contribution (scaled)    -0.010027590932
  Total correlation energy             -0.308479792996

  CCSD-F12b total energy              -76.363808629338
  CCSD[T]-F12b energy                 -76.374152316009
  CCSD-T-F12b energy                  -76.373697679838
 !CCSD(T)-F12b total energy           -76.373836220271

 Timing summary (sec):

 STEP                 CPU(USER)    SYS     CPU(TOT)    WALL
 Transformation        610.92     30.89    641.81    643.88
 CCSD iterations      2739.49    251.39   2990.88   2991.77
 Triples               685.13      5.24    690.37    690.62
 MP2-F12                55.44      2.69     58.13     58.39
 F12b energy           175.51     13.44    188.95    189.00

 Program statistics:

 Available memory in ccsd:              3999999871
 Min. memory needed in ccsd:              19260852
 Max. memory used in ccsd:                22423154
 Max. memory used in cckext:              14628952 (17 integral passes)



 **********************************************************************************************************************************
 DATASETS  * FILE   NREC   LENGTH (MB)   RECORD NAMES
              1      19     6330.34       500      610      700      900      950      970     1000      129      960     1100   
                                          VAR    BASINP    GEOM    SYMINP    ZMAT    AOBASIS   BASIS     P2S    ABASIS      S 
                                         1400     1410     1200     1210     1080     1600     1650     1700     1380   
                                           T        V       H0       H01     AOSYM     SMH    MOLCAS    OPER     JKOP   

              2       8       38.40       700     1000      520     2100     7360     7350      200     2101   
                                         GEOM     BASIS   MCVARS     RHF    F12ABS    EF12    OPTIONS    RHF  

 PROGRAMS   *        TOTAL   CCSD(T)    HF-SCF       INT   CCSD(T)    HF-SCF       INT
 CPU TIMES  *     21777.17   4266.66   1738.90      0.60  11863.76   1927.14   1979.82
 REAL TIME  *     23759.97 SEC
 DISK USED  *        14.29 GB (local),      555.38 GB (total)
 SF USED    *        17.68 GB
 GA USED    *         4.87 MB       (max)       0.00 MB       (current)
 **********************************************************************************************************************************

 Running procedure: SET_MONOMER2

 Dummy atoms: O18  H35  H36


 Recomputing one-electron integrals since nuclear charges changed


 PROGRAM * SEWARD (Integral evaluation for generally contracted gaussian basis sets)     Author: Roland Lindh, 1990

 Geometry written to block  1 of record 700


 Point group  C1  



 ATOMIC COORDINATES

 NR  ATOM    CHARGE       X              Y              Z

   1  O18     0.00  -12.011477193    0.742095449    6.107594835
   2  H35     0.00  -11.750694988   -0.413472076    4.697292228
   3  H36     0.00  -10.560734447    0.465061599    7.217053042
   4  C1      6.00   -6.193010455    2.801518980    2.403542658
   5  H41     1.00   -4.656285171    1.699997622    3.119937832
   6  H42     1.00   -5.973046335    4.726205038    2.982932688
   7  H43     1.00   -7.940251230    2.077186956    3.118237078
   8  H44     1.00   -6.176569838    2.685300823    0.384937212

 Bond lengths in Bohr (Angstrom)

 1-2  1.841818967  1-3  1.847241128  4-5  2.021904040  4-6  2.022002335  4-7  2.021953343
     ( 0.974648624)     ( 0.977517908)     ( 1.069945541)     ( 1.069997556)     ( 1.069971630)

 4-8  2.022015060
     ( 1.070004290)

 Bond angles

  2-1-3  104.74973043   5-4-6  109.53398059   5-4-7  109.65604535   5-4-8  108.43490854

  6-4-7  109.49436728   6-4-8  109.86987750   7-4-8  109.83468330

 NUCLEAR CHARGE:                   10
 NUMBER OF PRIMITIVE AOS:        1046
 NUMBER OF SYMMETRY AOS:          786
 NUMBER OF CONTRACTIONS:          734   (  734A   )
 NUMBER OF CORE ORBITALS:           1   (    1A   )
 NUMBER OF VALENCE ORBITALS:        8   (    8A   )

 MOLECULE CHANGED: INITIALIZING OCCUPATION AND DUMP RECORDS


 NUCLEAR REPULSION ENERGY   13.68681606

 Basis set:  JKFIT                   
 Basis size:  1104
 Attributes:
 Sphericals:   T
 Basis set:  MP2FIT                  
 Basis size:  1246
 Attributes:
 Sphericals:   T
 Basis set:  RI                      
 Basis size:   730
 Attributes:
 Sphericals:   T
 Basis set:  TDDFT                   
 Basis size:  1246
 Attributes:
 Sphericals:   T

 Eigenvalues of metric

         1 0.990E-06 0.190E-05 0.289E-05 0.378E-05 0.485E-05 0.637E-05 0.795E-05 0.886E-05


 Contracted 2-electron integrals neglected if value below      1.0D-14

 OPERATOR DM      FOR CENTER  0  COORDINATES:    0.000000    0.000000    0.000000


 **********************************************************************************************************************************
 DATASETS  * FILE   NREC   LENGTH (MB)   RECORD NAMES
              1      18       49.80       500      610      700      900      950      970     1000      129      960     1100   
                                          VAR    BASINP    GEOM    SYMINP    ZMAT    AOBASIS   BASIS     P2S    ABASIS      S 
                                         1400     1410     1200     1210     1080     1600     1650     1700   
                                           T        V       H0       H01     AOSYM     SMH    MOLCAS    OPER   

              2       8       38.40       700     1000      520     2100     7360     7350      200     2101   
                                         GEOM     BASIS   MCVARS     RHF    F12ABS    EF12    OPTIONS    RHF  

 PROGRAMS   *        TOTAL       INT   CCSD(T)    HF-SCF       INT   CCSD(T)    HF-SCF       INT
 CPU TIMES  *     21777.73      0.55   4266.66   1738.90      0.60  11863.76   1927.14   1979.82
 REAL TIME  *     23761.79 SEC
 DISK USED  *        14.29 GB (local),      555.38 GB (total)
 SF USED    *        17.68 GB
 GA USED    *         4.87 MB       (max)       0.00 MB       (current)
 **********************************************************************************************************************************


 PROGRAM * RHF-SCF (CLOSED SHELL)       Authors: W. Meyer, H.-J. Werner


 NUMBER OF ELECTRONS:       5+    5-    SPACE SYMMETRY=1    SPIN SYMMETRY: Singlet 
 CONVERGENCE THRESHOLDS:    1.00E-08 (Density)    1.00E-11 (Energy)
 MAX. NUMBER OF ITERATIONS:       60
 INTERPOLATION TYPE:            DIIS
 INTERPOLATION STEPS:              2 (START)      1 (STEP)
 LEVEL SHIFTS:                  0.00 (CLOSED)  0.00 (OPEN) 



 Orbital guess generated from atomic densities. Full valence occupancy:    9

 Molecular orbital dump at record        2102.2

 Initial occupancy:   5

 ITERATION    DDIFF          GRAD             ENERGY        2-EL.EN.            DIPOLE MOMENTS         DIIS   ORB.
    1      0.000D+00      0.000D+00       -40.19676554     53.509906    0.00411   -0.00276   -0.00131    0    start
    2      0.000D+00      0.198D-02       -40.21405773     52.218483    0.00129   -0.00087   -0.00039    1    diag
    3      0.952D-03      0.769D-03       -40.21634115     52.673989    0.00183   -0.00123   -0.00056    2    diag
    4      0.263D-03      0.192D-03       -40.21666148     52.619252    0.00162   -0.00110   -0.00049    3    diag
    5      0.105D-03      0.248D-04       -40.21666696     52.621410    0.00160   -0.00108   -0.00048    4    diag
    6      0.343D-04      0.204D-05       -40.21666701     52.621538    0.00160   -0.00108   -0.00048    5    diag
    7      0.558D-05      0.166D-06       -40.21666701     52.621500    0.00159   -0.00108   -0.00048    6    diag
    8      0.314D-06      0.136D-07       -40.21666701     52.621501    0.00159   -0.00108   -0.00048    7    diag
    9      0.584D-07      0.167D-08       -40.21666701     52.621501    0.00159   -0.00108   -0.00048    8    diag
   10      0.995D-08      0.465D-09       -40.21666701     52.621501    0.00159   -0.00108   -0.00048    0    orth

 Final occupancy:   5

 !RHF STATE  1.1 Energy               -40.216667005436
 Nuclear energy                        13.68681606
 One-electron energy                  -80.21423338
 Two-electron energy                   26.31075032
 Virial quotient                       -0.99832811
 !RHF STATE  1.1 Dipole moment          0.00159364    -0.00107608    -0.00048015
 Dipole moment /Debye                   0.00405037    -0.00273494    -0.00122034

 Orbital energies:

         1.1          2.1          3.1          4.1          5.1          6.1          7.1
    -11.196017    -0.950605    -0.551931    -0.549996    -0.547817     0.020867     0.034143


 HOMO      5.1    -0.547817 =     -14.9069eV
 LUMO      6.1     0.020867 =       0.5678eV
 LUMO-HOMO         0.568684 =      15.4747eV


 **********************************************************************************************************************************
 DATASETS  * FILE   NREC   LENGTH (MB)   RECORD NAMES
              1      18       49.80       500      610      700      900      950      970     1000      129      960     1100   
                                          VAR    BASINP    GEOM    SYMINP    ZMAT    AOBASIS   BASIS     P2S    ABASIS      S 
                                         1400     1410     1200     1210     1080     1600     1650     1700   
                                           T        V       H0       H01     AOSYM     SMH    MOLCAS    OPER   

              2       9       62.49       700     1000      520     2100     7360     7350      200     2101     2102   
                                         GEOM     BASIS   MCVARS     RHF    F12ABS    EF12    OPTIONS    RHF      RHF  

 PROGRAMS   *        TOTAL    HF-SCF       INT   CCSD(T)    HF-SCF       INT   CCSD(T)    HF-SCF       INT
 CPU TIMES  *     23458.83   1681.10      0.55   4266.66   1738.90      0.60  11863.76   1927.14   1979.82
 REAL TIME  *     25590.04 SEC
 DISK USED  *        14.29 GB (local),      555.38 GB (total)
 SF USED    *        17.68 GB
 GA USED    *         4.87 MB       (max)       0.00 MB       (current)
 **********************************************************************************************************************************

 Basis set:  JKFIT                   
 Basis size:  1104
 Attributes:
 Sphericals:   T
 Basis set:  MP2FIT                  
 Basis size:  1246
 Attributes:
 Sphericals:   T
 Basis set:  RI                      
 Basis size:   730
 Attributes:
 Sphericals:   T
 Basis set:  TDDFT                   
 Basis size:  1246
 Attributes:
 Sphericals:   T

 PROGRAM * CCSD (Closed-shell coupled cluster)     Authors: C. Hampel, H.-J. Werner, 1991, M. Deegan, P.J. Knowles, 1992

                                  CCSD-F12 implementation by  H.-J. Werner, 2007

                   Density fitting integral evaluation by F.R. Manby, 2003,2007, G. Knizia, 2010



 Convergence thresholds:  THRVAR = 1.00D-08  THRDEN = 1.00D-10

 CCSD(T)     terms to be evaluated (factor= 1.000)


 Number of core orbitals:           1 (   1 )
 Number of closed-shell orbitals:   4 (   4 )
 Number of external orbitals:     729 ( 729 )

 Molecular orbitals read from record     2102.2  Type=RHF/CANONICAL (state 1.1)

 MP2-F12 correlation treatment (H.-J. Werner, 2006)
 ==================================================

 Using MP2-F12 with ansatz 3C(FIX)

 Using projected zeroth-order Hamiltonian (+Z)

 FOCKRIB=T FOCKRIC=T FOCKRIP=T CABSP=T CABSA=T CABSK=T CABSF=T GBC=F EBC=F DMAT=T NOFIK=T NOPAO=1 SOLVE=-1  USEPAO=0
 EXCH_A= T EXCH_B= F EXCH_C= F EXCH_P= F

 Geminal basis:    OPTFULL  GEM_TYPE=SLATER  BETA=1.0  NGEM=6

 Optimizing Gaussian exponents for each gem_beta

 Geminal optimization for beta= 1.0000
 Weight function:   m=0, omega= 1.4646

 Augmented Hessian optimization of geminal fit. Trust ratio= 0.40000
 Convergence reached after   2 iterations. Final gradient= 8.53D-16, Step= 4.26D-06, Delta= 1.28D-09

 Alpha:                 0.19532     0.81920     2.85917     9.50073    35.69989   197.79328
 Coeff:                 0.27070     0.30552     0.18297     0.10986     0.06810     0.04224


 All pairs explicitly correlated. Number of r12-pairs:           10

 Excluding core orbitals from MO domains

 AO(A)-basis ORBITAL           loaded. Number of functions:     734
 RI(R)-basis RI                loaded. Number of functions:     730
 DF-basis JKFIT                loaded. Number of functions:    1104

 Screening thresholds:   THRAO=  1.00D-10  THRMO=  1.00D-09  THRPROD=  1.00D-09
                         THRSW=  1.00D-05  THROV=  1.00D-12  THRAOF12= 1.00D-10

 CPU time for Fock operators                      9.99 sec

 Construction of ABS:
 Smallest eigenvalue of S          2.24E-04  (threshold= 1.00E-08)
 Ratio eigmin/eigmax               3.89E-05  (threshold= 1.00E-09)
 Smallest eigenvalue of S kept     2.24E-04  (threshold= 2.24E-04, 0 functions deleted, 730 kept)

 Construction of CABS:
 Smallest eigenvalue of S          8.26E-09  (threshold= 1.00E-08)
 Ratio eigmin/eigmax               8.26E-09  (threshold= 1.00E-09)
 Smallest eigenvalue of S kept     6.61E-08  (threshold= 6.61E-08, 1 functions deleted, 729 kept)

 CPU time for CABS singles                        1.23 sec

 CABS-singles contribution of  -0.00004072 patched into reference energy.
 New reference energy         -40.21670773

 AO(A)-basis ORBITAL           loaded. Number of functions:     734
 RI(R)-basis RI                loaded. Number of functions:     730
 DF-basis MP2FIT               loaded. Number of functions:    1246

 Screening thresholds:   THRAO=  1.00D-10  THRMO=  1.00D-09  THRPROD=  1.00D-09
                         THRSW=  1.00D-05  THROV=  1.00D-12  THRAOF12= 1.00D-10

 CPU time for 3-index integral evaluation        29.99 sec
 CPU time for first  half transformation          3.96 sec ( 3728.0 MFLOP/sec)
 CPU time for second half transformation          0.07 sec (  844.7 MFLOP/sec)
 CPU time for sorting                             0.20 sec
 CPU time for fitting                             0.36 sec (19044.2 MFLOP/sec)
 CPU time for tilde quantities                    0.51 sec (17936.1 MFLOP/sec)
 CPU time for assembly                            1.41 sec (25653.1 MFLOP/sec)
 CPU time for tranop_f12                          1.76 sec (25139.5 MFLOP/sec)
 CPU time for f12 integrals (total)              41.09 sec, Elapsed time:     43.32 sec
 F12-matrices built in  4 passes.
 F12-matrices built in  4 passes.
 F12-matrices built in  4 passes.
 F12-matrices built in  4 passes.
 FC-matrix built in  4 passes.
 CPU time for f12 matrices (total)                1.42 sec, Elapsed time:      1.46 sec

 Diagonal F12 approximation with fixed coefficients:  TSING= 0.500,  TTRIP= 0.250 (scaled by -1/beta)

 DF-MP2-F12 energy corrections:
 ==============================
 Approx.                                    Singlet             Triplet             Total
 DF-MP2-F12/3*C(DX,FIX)                -0.003929365329     -0.000212711877     -0.004142077206
 DF-MP2-F12/3*C(FIX)                   -0.003766240818     -0.000160636915     -0.003926877733
 DF-MP2-F12/3C(FIX)                    -0.003812785406     -0.000163668417     -0.003976453823

 DF-MP2-F12 correlation energies:
 ================================
 Approx.                                    Singlet             Triplet             Ecorr            Total Energy
 DF-MP2                                -0.157874693197     -0.056825348593     -0.214700041790    -40.431407770233
 DF-MP2-F12/3*C(DX,FIX)                -0.161804058525     -0.057038060470     -0.218842118995    -40.435549847439
 DF-MP2-F12/3*C(FIX)                   -0.161640934015     -0.056985985508     -0.218626919523    -40.435334647966
 DF-MP2-F12/3C(FIX)                    -0.161687478603     -0.056989017010     -0.218676495613    -40.435384224056

 SCS-DF-MP2 energies (F_SING= 1.20000  F_TRIP= 0.62222  F_PARALLEL= 0.33333):
 ============================================================================
 SCS-DF-MP2                            -0.224807626516    -40.441515354959
 SCS-DF-MP2-F12/3*C(DX,FIX)            -0.229655218967    -40.446362947411
 SCS-DF-MP2-F12/3*C(FIX)               -0.229427067356    -40.446134795799
 SCS-DF-MP2-F12/3C(FIX)                -0.229484807129    -40.446192535573
 Symmetry transformation completed.

 Number of N-1 electron functions:               4
 Number of N-2 electron functions:              10
 Number of singly external CSFs:              2916
 Number of doubly external CSFs:           4252986
 Total number of CSFs:                     4255903

 Pair and operator lists are different

 Length of J-op  integral file:             411.24 MB
 Length of K-op  integral file:             721.80 MB
 Length of 3-ext integral record:             0.00 MB

 Memory could be reduced to 2535.14 Mwords without degradation in triples

 Integral transformation finished. Total CPU: 624.94 sec, npass=  1  Memory used:1009.99 MW

 Reference energy:                    -40.21670773

 Adding F12 terms to K(Cij), methodcc=6,  factor= 1.0

 ITER.      SQ.NORM     CORR.ENERGY   TOTAL ENERGY   ENERGY CHANGE        DEN1      VAR(S)    VAR(P)  DIIS     TIME  TIME/IT
   1      1.07033705    -0.22827629   -40.44498401    -0.01356955    -0.00771511  0.62D-03  0.94D-03  1  1   848.06   183.14
   2      1.07515869    -0.22923386   -40.44594158    -0.00095757    -0.00531242  0.16D-04  0.11D-03  2  2  1020.11   186.58
   3      1.07694875    -0.22930121   -40.44600893    -0.00006735    -0.00133820  0.22D-05  0.64D-05  3  3  1191.37   187.34
   4      1.07735155    -0.22930363   -40.44601136    -0.00000242    -0.00021859  0.16D-06  0.39D-06  4  4  1360.43   187.02
   5      1.07740887    -0.22930720   -40.44601493    -0.00000357    -0.00000968  0.14D-07  0.24D-07  5  5  1529.45   186.71
   6      1.07741912    -0.22930586   -40.44601359     0.00000134    -0.00000402  0.91D-09  0.19D-08  6  6  1697.23   186.35
   7      1.07742066    -0.22930546   -40.44601319     0.00000040    -0.00000092  0.56D-10  0.13D-09  6  1  1863.94   185.92
   8      1.07742059    -0.22930552   -40.44601325    -0.00000006     0.00000024  0.63D-11  0.91D-11  6  3  2031.92   185.49
   9      1.07742074    -0.22930550   -40.44601323     0.00000002    -0.00000009  0.44D-12  0.65D-12  6  2  2200.41   185.50
  10      1.07742073    -0.22930550   -40.44601323     0.00000000     0.00000001  0.60D-13  0.66D-13  6  4  2370.67   185.67
  11      1.07742074    -0.22930550   -40.44601323     0.00000000     0.00000000  0.61D-14  0.66D-14  6  5  2540.02   185.72
  12      1.07742074    -0.22930550   -40.44601323     0.00000000     0.00000000  0.19D-15  0.68D-15  6  6  2712.71   185.99
  13      1.07742074    -0.22930550   -40.44601323    -0.00000000     0.00000000  0.19D-16  0.87D-16  6  1  2882.48   186.03
  14      1.07742074    -0.22930550   -40.44601323    -0.00000000     0.00000000  0.34D-17  0.15D-16  6  3  3055.85   186.34

 Norm of t1 vector:      0.03268858      S-energy:    -0.00000000      T1 diagnostic:  0.00817215
                                                                       D1 diagnostic:  0.01311241

 Adding energy correction from Wij-K(Fij), methodcc=6  factor= 1.0

  CCSD correlation energy              -0.229305499388
  MP2-F12 correction (uncoupled)       -0.003880704306
  C*T doubles correction               -0.000068076736
  f12b correction                       0.001099162674

 Total CPU time for triples:    704.18 sec

  Ecorr(MP2)                           -0.214706732551
  Ecorr(MP2-F12)                       -0.218683186373
  Scale factor for triples energy       1.018520396522


 RESULTS
 =======

  Reference energy                    -40.216667005437
  F12 singles correction               -0.000040723006

 F12 singles corrections added to reference energy

  New reference energy                -40.216707728443

  F12a singlet correction              -0.003777843361
  F12a triplet correction              -0.000170937680
  F12a total correction                -0.003948781042

 F12a corrections for ansatz F12/3C(FIX) added to CCSD energy

  CCSD-F12a singlet pair energy        -0.178095698023
  CCSD-F12a triplet pair energy        -0.055158582385
  CCSD-F12a correlation energy         -0.233254280429

  Triples (T) contribution (scaled)    -0.007109456315
  Total correlation energy             -0.240363736744

  CCSD-F12a total energy              -40.449962008872
  CCSD[T]-F12a energy                 -40.457307073883
  CCSD-T-F12a energy                  -40.457003626239
 !CCSD(T)-F12a total energy           -40.457071465188

 F12b corrections for ansatz F12/3C(FIX) added to CCSD(T)-F12a energy

  CCSD-F12b singlet pair energy        -0.177025622969
  CCSD-F12b triplet pair energy        -0.055129494766
  CCSD-F12b correlation energy         -0.232155117755

  Triples (T) contribution (scaled)    -0.007109456315
  Total correlation energy             -0.239264574070

  CCSD-F12b total energy              -40.448862846198
  CCSD[T]-F12b energy                 -40.456207911209
  CCSD-T-F12b energy                  -40.455904463565
 !CCSD(T)-F12b total energy           -40.455972302513

 Timing summary (sec):

 STEP                 CPU(USER)    SYS     CPU(TOT)    WALL
 Transformation        625.43     30.29    655.72    656.75
 CCSD iterations      2374.64    233.89   2608.53   2609.17
 Triples               704.18      7.28    711.46    711.75
 MP2-F12                55.97      2.92     58.89     58.92
 F12b energy           166.19     16.13    182.32    182.32

 Program statistics:

 Available memory in ccsd:              3999999866
 Min. memory needed in ccsd:              19260852
 Max. memory used in ccsd:                22423154
 Max. memory used in cckext:              14628952 (15 integral passes)



 **********************************************************************************************************************************
 DATASETS  * FILE   NREC   LENGTH (MB)   RECORD NAMES
              1      19     6330.34       500      610      700      900      950      970     1000      129      960     1100   
                                          VAR    BASINP    GEOM    SYMINP    ZMAT    AOBASIS   BASIS     P2S    ABASIS      S 
                                         1400     1410     1200     1210     1080     1600     1650     1700     1380   
                                           T        V       H0       H01     AOSYM     SMH    MOLCAS    OPER     JKOP   

              2       9       62.49       700     1000      520     2100     7360     7350      200     2101     2102   
                                         GEOM     BASIS   MCVARS     RHF    F12ABS    EF12    OPTIONS    RHF      RHF  

 PROGRAMS   *        TOTAL   CCSD(T)    HF-SCF       INT   CCSD(T)    HF-SCF       INT   CCSD(T)    HF-SCF       INT
 CPU TIMES  *     27385.43   3926.59   1681.10      0.55   4266.66   1738.90      0.60  11863.76   1927.14   1979.82
 REAL TIME  *     29810.63 SEC
 DISK USED  *        14.29 GB (local),      555.38 GB (total)
 SF USED    *        17.68 GB
 GA USED    *         4.87 MB       (max)       0.00 MB       (current)
 **********************************************************************************************************************************
 Molecular orbitals read from record     2102.2  Type=RHF/CANONICAL (state 1.1)
 Occupation numbers read from record     2102.2  Type=RHF/RHF (state 1.1)
 Orbital energies read from record       2102.2  Type=RHF/CANONICAL (state 1.1)
 Redundancy group numbers read from rec  2102.2  Type=RHF/RHF (state 1.1)

 CCSD(T)-F12/aug-cc-pV5Z energy=    -40.455972302513

     CCSD(T)-F12          HF-SCF     CCSD(T)-F12          HF-SCF     CCSD(T)-F12          HF-SCF
    -40.45597230    -40.21666701    -76.37383622    -76.06531767   -116.83025942   -116.28123452
 **********************************************************************************************************************************
 Molpro calculation terminated
