
 Primary working directories    : /scratch.ssd/kelum/job_375178.cerit-pbs.cerit-sc.cz/molpro.f7ILtgCJSg
 Secondary working directories  : /scratch.ssd/kelum/job_375178.cerit-pbs.cerit-sc.cz/molpro.f7ILtgCJSg
 Wavefunction directory         : /scratch.ssd/kelum/job_375178.cerit-pbs.cerit-sc.cz/
 Main file repository           : /scratch.ssd/kelum/job_375178.cerit-pbs.cerit-sc.cz/molpro.f7ILtgCJSg/

 id        : karlovklimes

 Nodes             nprocs
 zelda8.cerit-sc.cz    4

 Using customized tuning parameters: mindgm=1; mindgv=20; mindgc=4; mindgr=1; noblas=0; minvec=7
 default implementation of scratch files=sf  


 Variables initialized (930), CPU time= 0.01 sec
                                                                                 !gdirect
 memory,2000,m
 gthresh,orbital=1d-10,energy=1d-10
 
 symmetry,nosym
 angstrom
 geometry={
 O19        -6.574800000000      3.149500000000     -0.152800000000
 H37        -7.467300000000      3.443900000000     -0.376700000000
 H38        -6.567400000000      3.105000000000      0.858500000000
 C1        -3.277200000000      1.482500000000      1.271900000000
 H41        -2.464000000000      0.899600000000      1.651000000000
 H42        -3.160800000000      2.501000000000      1.578500000000
 H43        -4.201800000000      1.099200000000      1.650100000000
 H44        -3.268500000000      1.421000000000      0.203700000000
 }
 
 nkerna=1
 nkernb=1
 
 gf=0
 sing=1
 thrdum=1d-4
 gridthr=1d-8
 
 basis={
 set,orbital
 default,av5z
 set,jkfit
 default,av5z/jkfit
 set,mp2fit
 default,av5z/mp2fit
 set,ri
 default,av5z/optri
 set,tddft
 default,av5z/mp2fit
 }
 
 proc set_monomer1
 dummy,4,5,6,7,8
 endproc
 
 proc set_monomer2
 dummy,1,2,3
 endproc
 
                                                                                 !12 energy
 {hf,accu=1.d-16}
 {ccsd(t)-f12,df_basis=mp2fit,df_basis_exch=jkfit,ri_basis=ri,scale_trip=1,THRAOF12=1d-10}
 
 set_monomer1
 {hf,accu=1.d-16}
 {ccsd(t)-f12,df_basis=mp2fit,df_basis_exch=jkfit,ri_basis=ri,scale_trip=1,THRAOF12=1d-10}
 
 set_monomer2
 {hf,accu=1.d-16}
 {ccsd(t)-f12,df_basis=mp2fit,df_basis_exch=jkfit,ri_basis=ri,scale_trip=1,THRAOF12=1d-10}
 
 Commands  initialized (760), CPU time= 0.02 sec, 617 directives.
 Default parameters read. Elapsed time= 0.12 sec

 Checking input...
 Passed
1


                                         ***  PROGRAM SYSTEM MOLPRO  ***
                                       Copyright, TTI GmbH Stuttgart, 2015
                                    Version 2018.2 linked Nov 10 2018 21:55:55


 **********************************************************************************************************************************
 LABEL *                                                                                 
  64 bit mpp version                                                                     DATE: 23-Mar-20          TIME: 09:08:57  
 **********************************************************************************************************************************

 SHA1:             5ea806b172b3d20b18658228ad0b1c212d33fc17
 **********************************************************************************************************************************

 THRESHOLDS:

 ZERO    =  1.00D-12  ONEINT  =  1.00D-12  TWOINT  =  1.00D-11  PREFAC  =  1.00D-14  XXXXXX  =  1.00D-09  EORDER  =  1.00D-04
 ENERGY  =  1.00D-10  ETEST   =  0.00D+00  EDENS   =  0.00D+00  THRDEDEF=  1.00D-06  GRADIENT=  1.00D-02  STEP    =  1.00D-03
 ORBITAL =  1.00D-10  CIVEC   =  1.00D-05  COEFF   =  1.00D-04  PRINTCI =  5.00D-02  PUNCHCI =  9.90D+01  OPTGRAD =  3.00D-04
 OPTENERG=  1.00D-06  OPTSTEP =  3.00D-04  THRGRAD =  1.00D-10  COMPRESS=  1.00D-11  VARMIN  =  1.00D-07  VARMAX  =  1.00D-03
 THRDOUB =  0.00D+00  THRDIV  =  1.00D-05  THRRED  =  1.00D-07  THRPSP  =  1.00D+00  THRDC   =  1.00D-10  THRCS   =  1.00D-10
 THRNRM  =  1.00D-08  THREQ   =  0.00D+00  THRDE   =  1.00D+00  THRREF  =  1.00D-05  SPARFAC =  1.00D+00  THRDLP  =  1.00D-07
 THRDIA  =  1.00D-10  THRDLS  =  1.00D-07  THRGPS  =  0.00D+00  THRKEX  =  0.00D+00  THRDIS  =  2.00D-01  THRVAR  =  1.00D-10
 THRLOC  =  1.00D-06  THRGAP  =  1.00D-06  THRLOCT = -1.00D+00  THRGAPT = -1.00D+00  THRORB  =  1.00D-06  THRMLTP =  0.00D+00
 THRCPQCI=  1.00D-10  KEXTA   =  0.00D+00  THRCOARS=  0.00D+00  SYMTOL  =  1.00D-06  GRADTOL =  1.00D-06  THROVL  =  1.00D-08
 THRORTH =  1.00D-08  GRID    =  1.00D-06  GRIDMAX =  1.00D-03  DTMAX   =  0.00D+00  THROCCDE=  1.00D-01  THROCCDE=  1.00D-01
 THRPRINT=  2.50D-01


 Variable memory set to 2000000000 words,  buffer space 

 ZSYMEL=NOSYM
 ZUNIT=ANG


Geometry recognized as XYZ

 SETTING NKERNA         =         1.00000000                                  
 SETTING NKERNB         =         1.00000000                                  
 SETTING GF             =     0.00000000D+00                                  
 SETTING SING           =         1.00000000                                  
 SETTING THRDUM         =     1.00000000D-04                                  
 SETTING GRIDTHR        =     1.00000000D-08                                  
 SETTING BASIS          =    AV5Z


 Recomputing integrals since basis changed


 Using spherical harmonics

 Library entry O      S aug-cc-pV5Z          selected for orbital group  1
 Library entry O      P aug-cc-pV5Z          selected for orbital group  1
 Library entry O      D aug-cc-pV5Z          selected for orbital group  1
 Library entry O      F aug-cc-pV5Z          selected for orbital group  1
 Library entry O      G aug-cc-pV5Z          selected for orbital group  1
 Library entry O      H aug-cc-pV5Z          selected for orbital group  1
 Library entry H      S aug-cc-pV5Z          selected for orbital group  2
 Library entry H      P aug-cc-pV5Z          selected for orbital group  2
 Library entry H      D aug-cc-pV5Z          selected for orbital group  2
 Library entry H      F aug-cc-pV5Z          selected for orbital group  2
 Library entry H      G aug-cc-pV5Z          selected for orbital group  2
 Library entry C      S aug-cc-pV5Z          selected for orbital group  3
 Library entry C      P aug-cc-pV5Z          selected for orbital group  3
 Library entry C      D aug-cc-pV5Z          selected for orbital group  3
 Library entry C      F aug-cc-pV5Z          selected for orbital group  3
 Library entry C      G aug-cc-pV5Z          selected for orbital group  3
 Library entry C      H aug-cc-pV5Z          selected for orbital group  3


 PROGRAM * SEWARD (Integral evaluation for generally contracted gaussian basis sets)     Author: Roland Lindh, 1990

 Geometry written to block  1 of record 700


 Point group  C1  



 ATOMIC COORDINATES

 NR  ATOM    CHARGE       X              Y              Z

   1  O19     8.00  -12.424571324    5.951692429   -0.288750152
   2  H37     1.00  -14.111151890    6.508027800   -0.711859831
   3  H38     1.00  -12.410587350    5.867599617    1.622329878
   4  C1      6.00   -6.193010455    2.801518980    2.403542658
   5  H41     1.00   -4.656285171    1.699997622    3.119937832
   6  H42     1.00   -5.973046335    4.726205038    2.982932688
   7  H43     1.00   -7.940251230    2.077186956    3.118237078
   8  H44     1.00   -6.176569838    2.685300823    0.384937212

 Bond lengths in Bohr (Angstrom)

 1-2  1.825673808  1-3  1.912980406  4-5  2.021904040  4-6  2.022002335  4-7  2.021953343
     ( 0.966104974)     ( 1.012305636)     ( 1.069945541)     ( 1.069997556)     ( 1.069971630)

 4-8  2.022015060
     ( 1.070004290)

 Bond angles

  2-1-3  104.57658282   5-4-6  109.53398059   5-4-7  109.65604535   5-4-8  108.43490854

  6-4-7  109.49436728   6-4-8  109.86987750   7-4-8  109.83468330

 NUCLEAR CHARGE:                   20
 NUMBER OF PRIMITIVE AOS:        1046
 NUMBER OF SYMMETRY AOS:          786
 NUMBER OF CONTRACTIONS:          734   (  734A   )
 NUMBER OF CORE ORBITALS:           2   (    2A   )
 NUMBER OF VALENCE ORBITALS:       14   (   14A   )


 NUCLEAR REPULSION ENERGY   35.73898765


 Basis set:  JKFIT                   
 Basis size:  1104
 Attributes:
 Sphericals:   T
 Basis set:  MP2FIT                  
 Basis size:  1246
 Attributes:
 Sphericals:   T
 Basis set:  RI                      
 Basis size:   730
 Attributes:
 Sphericals:   T
 Basis set:  TDDFT                   
 Basis size:  1246
 Attributes:
 Sphericals:   T

 **********************************************************************************************************************************


 Eigenvalues of metric

         1 0.143E-05 0.188E-05 0.356E-05 0.514E-05 0.541E-05 0.801E-05 0.824E-05 0.891E-05


 Contracted 2-electron integrals neglected if value below      1.0D-14
 AO integral compression algorithm  1   Integral accuracy      1.0D-14

     142907.539 MB (compressed) written to integral file ( 45.3%)

     Node minimum: 33012.318 MB, node maximum: 37056.414 MB


 NUMBER OF SORTED TWO-ELECTRON INTEGRALS: 9095363064.     BUFFER LENGTH:  32768
 NUMBER OF SEGMENTS: 190  SEGMENT LENGTH:   47999780      RECORD LENGTH: 131072

 Memory used in sort:      48.16 MW

 SORT1 READ 39465217713. AND WROTE  6563375060. INTEGRALS IN  75210 RECORDS. CPU TIME:   574.80 SEC, REAL TIME:   721.34 SEC
 SORT2 READ 26260648619. AND WROTE 36381317385. INTEGRALS IN 565436 RECORDS. CPU TIME:   104.22 SEC, REAL TIME:   283.67 SEC

 Node minimum:  9095228192.  Node maximum:  9095430501. integrals

 OPERATOR DM      FOR CENTER  0  COORDINATES:    0.000000    0.000000    0.000000


 **********************************************************************************************************************************
 DATASETS  * FILE   NREC   LENGTH (MB)   RECORD NAMES
              1      18       49.80       500      610      700      900      950      970     1000      129      960     1100   
                                          VAR    BASINP    GEOM    SYMINP    ZMAT    AOBASIS   BASIS     P2S    ABASIS      S 
                                         1400     1410     1200     1210     1080     1600     1650     1700   
                                           T        V       H0       H01     AOSYM     SMH    MOLCAS    OPER   

 PROGRAMS   *        TOTAL       INT
 CPU TIMES  *      1380.57   1380.36
 REAL TIME  *      1748.76 SEC
 DISK USED  *        50.44 MB (local),      457.89 GB (total)
 GA USED    *         0.00 MB       (max)       0.00 MB       (current)
 **********************************************************************************************************************************


 PROGRAM * RHF-SCF (CLOSED SHELL)       Authors: W. Meyer, H.-J. Werner


 NUMBER OF ELECTRONS:      10+   10-    SPACE SYMMETRY=1    SPIN SYMMETRY: Singlet 
 CONVERGENCE THRESHOLDS:    1.00E-08 (Density)    1.00E-11 (Energy)
 MAX. NUMBER OF ITERATIONS:       60
 INTERPOLATION TYPE:            DIIS
 INTERPOLATION STEPS:              2 (START)      1 (STEP)
 LEVEL SHIFTS:                  0.00 (CLOSED)  0.00 (OPEN) 



 Orbital guess generated from atomic densities. Full valence occupancy:   16

 Molecular orbital dump at record        2100.2

 Initial occupancy:  10

 ITERATION    DDIFF          GRAD             ENERGY        2-EL.EN.            DIPOLE MOMENTS         DIIS   ORB.
    1      0.000D+00      0.000D+00      -116.21949200    157.260036   -0.84401    0.23580    0.77340    0    start
    2      0.000D+00      0.292D-02      -116.26391606    152.159522   -0.49375    0.14420    0.38795    1    diag
    3      0.162D-02      0.174D-02      -116.27813440    154.284240   -0.58597    0.16781    0.48480    2    diag
    4      0.564D-03      0.257D-03      -116.27880760    154.170687   -0.57891    0.16572    0.47506    3    diag
    5      0.122D-03      0.762D-04      -116.27888014    154.165701   -0.57937    0.16592    0.47366    4    diag
    6      0.494D-04      0.185D-04      -116.27888427    154.171355   -0.57900    0.16584    0.47275    5    diag
    7      0.177D-04      0.387D-05      -116.27888453    154.169620   -0.57908    0.16586    0.47267    6    diag
    8      0.558D-05      0.103D-05      -116.27888456    154.169813   -0.57906    0.16586    0.47258    7    diag
    9      0.139D-05      0.234D-06      -116.27888456    154.169785   -0.57905    0.16586    0.47255    8    diag
   10      0.327D-06      0.268D-07      -116.27888456    154.169786   -0.57905    0.16586    0.47255    9    orth
   11      0.669D-07      0.637D-08      -116.27888456    154.169787   -0.57905    0.16586    0.47255    9    diag
   12      0.526D-08      0.165D-08      -116.27888456    154.169787   -0.57905    0.16586    0.47255    0    orth

 Final occupancy:  10

 !RHF STATE  1.1 Energy              -116.278884557423
 Nuclear energy                        35.73898765
 One-electron energy                 -229.10276585
 Two-electron energy                   77.08489365
 Virial quotient                       -1.00095449
 !RHF STATE  1.1 Dipole moment         -0.57904787     0.16586112     0.47255193
 Dipole moment /Debye                  -1.47169649     0.42154931     1.20102853

 Orbital energies:

         1.1          2.1          3.1          4.1          5.1          6.1          7.1          8.1          9.1         10.1
    -20.568954   -11.191664    -1.336797    -0.946180    -0.700583    -0.578218    -0.547902    -0.545983    -0.542581    -0.507626

        11.1         12.1
      0.020713     0.030060


 HOMO     10.1    -0.507626 =     -13.8132eV
 LUMO     11.1     0.020713 =       0.5636eV
 LUMO-HOMO         0.528338 =      14.3768eV


 **********************************************************************************************************************************
 DATASETS  * FILE   NREC   LENGTH (MB)   RECORD NAMES
              1      18       49.80       500      610      700      900      950      970     1000      129      960     1100   
                                          VAR    BASINP    GEOM    SYMINP    ZMAT    AOBASIS   BASIS     P2S    ABASIS      S 
                                         1400     1410     1200     1210     1080     1600     1650     1700   
                                           T        V       H0       H01     AOSYM     SMH    MOLCAS    OPER   

              2       4       13.79       700     1000      520     2100   
                                         GEOM     BASIS   MCVARS     RHF  

 PROGRAMS   *        TOTAL    HF-SCF       INT
 CPU TIMES  *      3314.42   1933.84   1380.36
 REAL TIME  *      3955.40 SEC
 DISK USED  *       102.61 MB (local),      458.10 GB (total)
 SF USED    *         2.16 MB
 GA USED    *         0.00 MB       (max)       0.00 MB       (current)
 **********************************************************************************************************************************

 Basis set:  JKFIT                   
 Basis size:  1104
 Attributes:
 Sphericals:   T
 Basis set:  MP2FIT                  
 Basis size:  1246
 Attributes:
 Sphericals:   T
 Basis set:  RI                      
 Basis size:   730
 Attributes:
 Sphericals:   T
 Basis set:  TDDFT                   
 Basis size:  1246
 Attributes:
 Sphericals:   T

 PROGRAM * CCSD (Closed-shell coupled cluster)     Authors: C. Hampel, H.-J. Werner, 1991, M. Deegan, P.J. Knowles, 1992

                                  CCSD-F12 implementation by  H.-J. Werner, 2007

                   Density fitting integral evaluation by F.R. Manby, 2003,2007, G. Knizia, 2010



 Convergence thresholds:  THRVAR = 1.00D-08  THRDEN = 1.00D-10

 CCSD(T)     terms to be evaluated (factor= 1.000)


 Number of core orbitals:           2 (   2 )
 Number of closed-shell orbitals:   8 (   8 )
 Number of external orbitals:     724 ( 724 )

 Molecular orbitals read from record     2100.2  Type=RHF/CANONICAL (state 1.1)

 MP2-F12 correlation treatment (H.-J. Werner, 2006)
 ==================================================

 Using MP2-F12 with ansatz 3C(FIX)

 Using projected zeroth-order Hamiltonian (+Z)

 FOCKRIB=T FOCKRIC=T FOCKRIP=T CABSP=T CABSA=T CABSK=T CABSF=T GBC=F EBC=F DMAT=T NOFIK=T NOPAO=1 SOLVE=-1  USEPAO=0
 EXCH_A= T EXCH_B= F EXCH_C= F EXCH_P= F

 Geminal basis:    OPTFULL  GEM_TYPE=SLATER  BETA=1.0  NGEM=6

 Optimizing Gaussian exponents for each gem_beta

 Geminal optimization for beta= 1.0000
 Weight function:   m=0, omega= 1.4646

 Augmented Hessian optimization of geminal fit. Trust ratio= 0.40000
 Convergence reached after   2 iterations. Final gradient= 8.53D-16, Step= 4.26D-06, Delta= 1.28D-09

 Alpha:                 0.19532     0.81920     2.85917     9.50073    35.69989   197.79328
 Coeff:                 0.27070     0.30552     0.18297     0.10986     0.06810     0.04224


 All pairs explicitly correlated. Number of r12-pairs:           36

 Excluding core orbitals from MO domains

 AO(A)-basis ORBITAL           loaded. Number of functions:     734
 RI(R)-basis RI                loaded. Number of functions:     730
 DF-basis JKFIT                loaded. Number of functions:    1104

 Screening thresholds:   THRAO=  1.00D-10  THRMO=  1.00D-09  THRPROD=  1.00D-09
                         THRSW=  1.00D-05  THROV=  1.00D-12  THRAOF12= 1.00D-10

 CPU time for Fock operators                      9.18 sec

 Construction of ABS:
 Smallest eigenvalue of S          2.27E-04  (threshold= 1.00E-08)
 Ratio eigmin/eigmax               3.94E-05  (threshold= 1.00E-09)
 Smallest eigenvalue of S kept     2.27E-04  (threshold= 2.27E-04, 0 functions deleted, 730 kept)

 Construction of CABS:
 Smallest eigenvalue of S          9.76E-09  (threshold= 1.00E-08)
 Ratio eigmin/eigmax               9.76E-09  (threshold= 1.00E-09)
 Smallest eigenvalue of S kept     7.99E-08  (threshold= 7.99E-08, 1 functions deleted, 729 kept)

 CPU time for CABS singles                        1.21 sec

 CABS-singles contribution of  -0.00007886 patched into reference energy.
 New reference energy        -116.27896342

 AO(A)-basis ORBITAL           loaded. Number of functions:     734
 RI(R)-basis RI                loaded. Number of functions:     730
 DF-basis MP2FIT               loaded. Number of functions:    1246

 Screening thresholds:   THRAO=  1.00D-10  THRMO=  1.00D-09  THRPROD=  1.00D-09
                         THRSW=  1.00D-05  THROV=  1.00D-12  THRAOF12= 1.00D-10

 CPU time for 3-index integral evaluation        24.74 sec
 CPU time for first  half transformation          4.63 sec ( 6426.7 MFLOP/sec)
 CPU time for second half transformation          0.16 sec ( 1519.4 MFLOP/sec)
 CPU time for sorting                             0.34 sec
 CPU time for fitting                             0.35 sec (26508.1 MFLOP/sec)
 CPU time for tilde quantities                    0.38 sec (36247.2 MFLOP/sec)
 CPU time for assembly                            2.97 sec (42045.7 MFLOP/sec)
 CPU time for tranop_f12                          3.99 sec (41799.2 MFLOP/sec)
 CPU time for f12 integrals (total)              42.92 sec, Elapsed time:     48.33 sec
 F12-matrices built in  4 passes.
 F12-matrices built in  4 passes.
 F12-matrices built in  4 passes.
 F12-matrices built in  4 passes.
 FC-matrix built in  4 passes.
 CPU time for f12 matrices (total)                3.03 sec, Elapsed time:      3.34 sec

 Diagonal F12 approximation with fixed coefficients:  TSING= 0.500,  TTRIP= 0.250 (scaled by -1/beta)

 DF-MP2-F12 energy corrections:
 ==============================
 Approx.                                    Singlet             Triplet             Total
 DF-MP2-F12/3*C(DX,FIX)                -0.011205585918     -0.000786902324     -0.011992488241
 DF-MP2-F12/3*C(FIX)                   -0.010396927599     -0.000516148129     -0.010913075728
 DF-MP2-F12/3C(FIX)                    -0.010512473891     -0.000531563840     -0.011044037731

 DF-MP2-F12 correlation energies:
 ================================
 Approx.                                    Singlet             Triplet             Ecorr            Total Energy
 DF-MP2                                -0.350754928541     -0.159766393613     -0.510521322154   -116.789484741062
 DF-MP2-F12/3*C(DX,FIX)                -0.361960514459     -0.160553295936     -0.522513810395   -116.801477229303
 DF-MP2-F12/3*C(FIX)                   -0.361151856140     -0.160282541742     -0.521434397882   -116.800397816790
 DF-MP2-F12/3C(FIX)                    -0.361267402432     -0.160297957453     -0.521565359885   -116.800528778793

 SCS-DF-MP2 energies (F_SING= 1.20000  F_TRIP= 0.62222  F_PARALLEL= 0.33333):
 ============================================================================
 SCS-DF-MP2                            -0.520316114720   -116.799279533628
 SCS-DF-MP2-F12/3*C(DX,FIX)            -0.534252445933   -116.813215864841
 SCS-DF-MP2-F12/3*C(FIX)               -0.533113586674   -116.812077005582
 SCS-DF-MP2-F12/3C(FIX)                -0.533261834223   -116.812225253131
 Symmetry transformation completed.

 Number of N-1 electron functions:               8
 Number of N-2 electron functions:              36
 Number of singly external CSFs:              5792
 Number of doubly external CSFs:          16776528
 Total number of CSFs:                    16782321

 Pair and operator lists are different

 Length of J-op  integral file:               1.47 GB
 Length of K-op  integral file:               2.18 GB
 Length of 3-ext integral record:             0.00 MB

 For full I/O caching in triples, increase memory by 2034.16 Mwords to 4034.21 Mwords.

 Integral transformation finished. Total CPU:1045.41 sec, npass=  1  Memory used:1826.21 MW

 Reference energy:                   -116.27896342

 Adding F12 terms to K(Cij), methodcc=6,  factor= 1.0

 ITER.      SQ.NORM     CORR.ENERGY   TOTAL ENERGY   ENERGY CHANGE        DEN1      VAR(S)    VAR(P)  DIIS     TIME  TIME/IT
   1      1.13494984    -0.52238073  -116.80134415    -0.01184653     0.00022728  0.15D-02  0.20D-02  1  1  1373.89   293.28
   2      1.14331829    -0.52343106  -116.80239448    -0.00105032    -0.01031662  0.33D-04  0.26D-03  2  2  1662.12   305.92
   3      1.14662592    -0.52360363  -116.80256705    -0.00017257    -0.00238605  0.12D-04  0.15D-04  3  3  1945.81   309.59
   4      1.14761484    -0.52360992  -116.80257334    -0.00000629    -0.00054326  0.71D-06  0.13D-05  4  4  2217.72   307.88
   5      1.14778876    -0.52361183  -116.80257525    -0.00000190    -0.00004342  0.21D-06  0.97D-07  5  5  2502.55   309.64
   6      1.14783615    -0.52360903  -116.80257245     0.00000280    -0.00000835  0.24D-07  0.85D-08  6  6  2778.39   309.47
   7      1.14784740    -0.52360779  -116.80257121     0.00000124    -0.00000274  0.24D-08  0.10D-08  6  2  3064.55   310.87
   8      1.14785034    -0.52360756  -116.80257097     0.00000024    -0.00000036  0.33D-09  0.10D-09  6  1  3345.89   311.27
   9      1.14785124    -0.52360752  -116.80257094     0.00000004    -0.00000003  0.27D-10  0.17D-10  6  3  3631.18   312.09
  10      1.14785136    -0.52360753  -116.80257094    -0.00000001     0.00000011  0.29D-11  0.20D-11  6  4  3932.02   314.08
  11      1.14785133    -0.52360753  -116.80257095    -0.00000001     0.00000008  0.45D-12  0.26D-12  6  5  4208.62   313.60
  12      1.14785130    -0.52360753  -116.80257095    -0.00000000     0.00000002  0.97D-13  0.35D-13  6  6  4473.47   312.14
  13      1.14785128    -0.52360753  -116.80257095    -0.00000000     0.00000001  0.19D-13  0.50D-14  6  2  4753.38   312.11
  14      1.14785128    -0.52360754  -116.80257095    -0.00000000     0.00000000  0.30D-14  0.11D-14  6  1  5037.10   312.38
  15      1.14785127    -0.52360754  -116.80257095    -0.00000000    -0.00000000  0.37D-15  0.17D-15  6  3  5317.78   312.50
  16      1.14785127    -0.52360754  -116.80257095    -0.00000000    -0.00000000  0.58D-16  0.27D-16  6  4  5591.52   312.14
  17      1.14785127    -0.52360754  -116.80257095    -0.00000000    -0.00000000  0.16D-16  0.65D-17  6  5  5864.95   311.81

 Norm of t1 vector:      0.05011695      S-energy:    -0.00000000      T1 diagnostic:  0.00885951
                                                                       D1 diagnostic:  0.01939952

 Adding energy correction from Wij-K(Fij), methodcc=6  factor= 1.0

  CCSD correlation energy              -0.523607535541
  MP2-F12 correction (uncoupled)       -0.010856097962
  C*T doubles correction               -0.000164924874
  f12b correction                       0.002690362880

   CPU time for triples:   2778.81 sec for i =  1 -  7 /  8 (~  68.8 % done)
   CPU time for triples:   1197.86 sec for i =  8 -  8 /  8 (  100.0 % done)

 Total CPU time for triples:   4001.23 sec

  Ecorr(MP2)                           -0.510534205263
  Ecorr(MP2-F12)                       -0.521578242994
  Scale factor for triples energy       1.021632316928


 RESULTS
 =======

  Reference energy                   -116.278884557424
  F12 singles correction               -0.000078861484

 F12 singles corrections added to reference energy

  New reference energy               -116.278963418908

  F12a singlet correction              -0.010448791761
  F12a triplet correction              -0.000572231075
  F12a total correction                -0.011021022836

 F12a corrections for ansatz F12/3C(FIX) added to CCSD energy

  CCSD-F12a singlet pair energy        -0.388257130812
  CCSD-F12a triplet pair energy        -0.146371427309
  CCSD-F12a correlation energy         -0.534628558377

  Triples (T) contribution (scaled)    -0.017366814836
  Total correlation energy             -0.551995373213

  CCSD-F12a total energy             -116.813591977285
  CCSD[T]-F12a energy                -116.831525527353
  CCSD-T-F12a energy                 -116.830744934070
 !CCSD(T)-F12a total energy          -116.830958792121

 F12b corrections for ansatz F12/3C(FIX) added to CCSD(T)-F12a energy

  CCSD-F12b singlet pair energy        -0.385659549786
  CCSD-F12b triplet pair energy        -0.146278645455
  CCSD-F12b correlation energy         -0.531938195497

  Triples (T) contribution (scaled)    -0.017366814836
  Total correlation energy             -0.549305010333

  CCSD-F12b total energy             -116.810901614405
  CCSD[T]-F12b energy                -116.828835164473
  CCSD-T-F12b energy                 -116.828054571190
 !CCSD(T)-F12b total energy          -116.828268429241

 Timing summary (sec):

 STEP                 CPU(USER)    SYS     CPU(TOT)    WALL
 Transformation       1046.82     82.25   1129.07   1135.11
 CCSD iterations      4758.89    507.22   5266.11   5301.74
 Triples              4001.23     50.99   4052.22   4067.14
 MP2-F12                59.54      6.58     66.12     67.07
 F12b energy           257.97     25.59    283.56    285.34

 Program statistics:

 Available memory in ccsd:              1999999554
 Min. memory needed in ccsd:              48689265
 Max. memory used in ccsd:                63255345
 Max. memory used in cckext:              42753482 (18 integral passes)



 **********************************************************************************************************************************
 DATASETS  * FILE   NREC   LENGTH (MB)   RECORD NAMES
              1      19    12452.16       500      610      700      900      950      970     1000      129      960     1100   
                                          VAR    BASINP    GEOM    SYMINP    ZMAT    AOBASIS   BASIS     P2S    ABASIS      S 
                                         1400     1410     1200     1210     1080     1600     1650     1700     1380   
                                           T        V       H0       H01     AOSYM     SMH    MOLCAS    OPER     JKOP   

              2       6       24.60       700     1000      520     2100     7360     7350   
                                         GEOM     BASIS   MCVARS     RHF    F12ABS    EF12   

 PROGRAMS   *        TOTAL   CCSD(T)    HF-SCF       INT
 CPU TIMES  *     13439.24  10124.81   1933.84   1380.36
 REAL TIME  *     14812.88 SEC
 DISK USED  *        14.29 GB (local),      509.41 GB (total)
 SF USED    *        17.68 GB
 GA USED    *         4.87 MB       (max)       0.00 MB       (current)
 **********************************************************************************************************************************

 Running procedure: SET_MONOMER1

 Dummy atoms: C1  H41  H42  H43  H44


 Recomputing one-electron integrals since nuclear charges changed


 PROGRAM * SEWARD (Integral evaluation for generally contracted gaussian basis sets)     Author: Roland Lindh, 1990

 Geometry written to block  1 of record 700


 Point group  C1  



 ATOMIC COORDINATES

 NR  ATOM    CHARGE       X              Y              Z

   1  O19     8.00  -12.424571324    5.951692429   -0.288750152
   2  H37     1.00  -14.111151890    6.508027800   -0.711859831
   3  H38     1.00  -12.410587350    5.867599617    1.622329878
   4  C1      0.00   -6.193010455    2.801518980    2.403542658
   5  H41     0.00   -4.656285171    1.699997622    3.119937832
   6  H42     0.00   -5.973046335    4.726205038    2.982932688
   7  H43     0.00   -7.940251230    2.077186956    3.118237078
   8  H44     0.00   -6.176569838    2.685300823    0.384937212

 Bond lengths in Bohr (Angstrom)

 1-2  1.825673808  1-3  1.912980406  4-5  2.021904040  4-6  2.022002335  4-7  2.021953343
     ( 0.966104974)     ( 1.012305636)     ( 1.069945541)     ( 1.069997556)     ( 1.069971630)

 4-8  2.022015060
     ( 1.070004290)

 Bond angles

  2-1-3  104.57658282   5-4-6  109.53398059   5-4-7  109.65604535   5-4-8  108.43490854

  6-4-7  109.49436728   6-4-8  109.86987750   7-4-8  109.83468330

 NUCLEAR CHARGE:                   10
 NUMBER OF PRIMITIVE AOS:        1046
 NUMBER OF SYMMETRY AOS:          786
 NUMBER OF CONTRACTIONS:          734   (  734A   )
 NUMBER OF CORE ORBITALS:           1   (    1A   )
 NUMBER OF VALENCE ORBITALS:        6   (    6A   )

 MOLECULE CHANGED: INITIALIZING OCCUPATION AND DUMP RECORDS


 NUCLEAR REPULSION ENERGY    8.90195171

 Basis set:  JKFIT                   
 Basis size:  1104
 Attributes:
 Sphericals:   T
 Basis set:  MP2FIT                  
 Basis size:  1246
 Attributes:
 Sphericals:   T
 Basis set:  RI                      
 Basis size:   730
 Attributes:
 Sphericals:   T
 Basis set:  TDDFT                   
 Basis size:  1246
 Attributes:
 Sphericals:   T

 Eigenvalues of metric

         1 0.143E-05 0.188E-05 0.356E-05 0.514E-05 0.541E-05 0.801E-05 0.824E-05 0.891E-05


 Contracted 2-electron integrals neglected if value below      1.0D-14

 OPERATOR DM      FOR CENTER  0  COORDINATES:    0.000000    0.000000    0.000000


 **********************************************************************************************************************************
 DATASETS  * FILE   NREC   LENGTH (MB)   RECORD NAMES
              1      18       49.80       500      610      700      900      950      970     1000      129      960     1100   
                                          VAR    BASINP    GEOM    SYMINP    ZMAT    AOBASIS   BASIS     P2S    ABASIS      S 
                                         1400     1410     1200     1210     1080     1600     1650     1700   
                                           T        V       H0       H01     AOSYM     SMH    MOLCAS    OPER   

              2       7       24.62       700     1000      520     2100     7360     7350      200   
                                         GEOM     BASIS   MCVARS     RHF    F12ABS    EF12    OPTIONS    

 PROGRAMS   *        TOTAL       INT   CCSD(T)    HF-SCF       INT
 CPU TIMES  *     13440.06      0.81  10124.81   1933.84   1380.36
 REAL TIME  *     14815.66 SEC
 DISK USED  *        14.29 GB (local),      509.41 GB (total)
 SF USED    *        17.68 GB
 GA USED    *         4.87 MB       (max)       0.00 MB       (current)
 **********************************************************************************************************************************


 PROGRAM * RHF-SCF (CLOSED SHELL)       Authors: W. Meyer, H.-J. Werner


 NUMBER OF ELECTRONS:       5+    5-    SPACE SYMMETRY=1    SPIN SYMMETRY: Singlet 
 CONVERGENCE THRESHOLDS:    1.00E-08 (Density)    1.00E-11 (Energy)
 MAX. NUMBER OF ITERATIONS:       60
 INTERPOLATION TYPE:            DIIS
 INTERPOLATION STEPS:              2 (START)      1 (STEP)
 LEVEL SHIFTS:                  0.00 (CLOSED)  0.00 (OPEN) 



 Orbital guess generated from atomic densities. Full valence occupancy:    7

 Molecular orbital dump at record        2101.2

 Initial occupancy:   5

 ITERATION    DDIFF          GRAD             ENERGY        2-EL.EN.            DIPOLE MOMENTS         DIIS   ORB.
    1      0.000D+00      0.000D+00       -76.02308446     77.282815   -0.84871    0.23878    0.77536    0    start
    2      0.000D+00      0.361D-02       -76.05003425     73.573616   -0.49440    0.13989    0.43271    1    diag
    3      0.131D-02      0.233D-02       -76.06209210     75.230841   -0.58518    0.16540    0.51642    2    diag
    4      0.500D-03      0.218D-03       -76.06229712     75.138552   -0.58275    0.16487    0.51042    3    diag
    5      0.644D-04      0.629D-04       -76.06232084     75.153716   -0.58193    0.16471    0.50805    4    diag
    6      0.220D-04      0.130D-04       -76.06232250     75.152497   -0.58178    0.16469    0.50737    5    diag
    7      0.609D-05      0.271D-05       -76.06232258     75.152644   -0.58173    0.16468    0.50718    6    diag
    8      0.163D-05      0.491D-06       -76.06232259     75.152629   -0.58171    0.16468    0.50714    7    diag
    9      0.299D-06      0.693D-07       -76.06232259     75.152619   -0.58170    0.16468    0.50714    8    diag
   10      0.419D-07      0.169D-07       -76.06232259     75.152622   -0.58170    0.16468    0.50714    9    orth
   11      0.887D-08      0.426D-08       -76.06232259     75.152622   -0.58170    0.16468    0.50714    0    orth

 Final occupancy:   5

 !RHF STATE  1.1 Energy               -76.062322586859
 Nuclear energy                         8.90195171
 One-electron energy                 -122.54058522
 Two-electron energy                   37.57631093
 Virial quotient                       -1.00235840
 !RHF STATE  1.1 Dipole moment         -0.58170447     0.16467667     0.50713902
 Dipole moment /Debye                  -1.47844844     0.41853894     1.28893440

 Orbital energies:

         1.1          2.1          3.1          4.1          5.1          6.1          7.1
    -20.569349    -1.337165    -0.700933    -0.578511    -0.508024     0.018065     0.027585


 HOMO      5.1    -0.508024 =     -13.8240eV
 LUMO      6.1     0.018065 =       0.4916eV
 LUMO-HOMO         0.526089 =      14.3156eV


 **********************************************************************************************************************************
 DATASETS  * FILE   NREC   LENGTH (MB)   RECORD NAMES
              1      18       49.80       500      610      700      900      950      970     1000      129      960     1100   
                                          VAR    BASINP    GEOM    SYMINP    ZMAT    AOBASIS   BASIS     P2S    ABASIS      S 
                                         1400     1410     1200     1210     1080     1600     1650     1700   
                                           T        V       H0       H01     AOSYM     SMH    MOLCAS    OPER   

              2       8       38.40       700     1000      520     2100     7360     7350      200     2101   
                                         GEOM     BASIS   MCVARS     RHF    F12ABS    EF12    OPTIONS    RHF  

 PROGRAMS   *        TOTAL    HF-SCF       INT   CCSD(T)    HF-SCF       INT
 CPU TIMES  *     15295.97   1855.91      0.81  10124.81   1933.84   1380.36
 REAL TIME  *     17003.86 SEC
 DISK USED  *        14.29 GB (local),      509.41 GB (total)
 SF USED    *        17.68 GB
 GA USED    *         4.87 MB       (max)       0.00 MB       (current)
 **********************************************************************************************************************************

 Basis set:  JKFIT                   
 Basis size:  1104
 Attributes:
 Sphericals:   T
 Basis set:  MP2FIT                  
 Basis size:  1246
 Attributes:
 Sphericals:   T
 Basis set:  RI                      
 Basis size:   730
 Attributes:
 Sphericals:   T
 Basis set:  TDDFT                   
 Basis size:  1246
 Attributes:
 Sphericals:   T

 PROGRAM * CCSD (Closed-shell coupled cluster)     Authors: C. Hampel, H.-J. Werner, 1991, M. Deegan, P.J. Knowles, 1992

                                  CCSD-F12 implementation by  H.-J. Werner, 2007

                   Density fitting integral evaluation by F.R. Manby, 2003,2007, G. Knizia, 2010



 Convergence thresholds:  THRVAR = 1.00D-08  THRDEN = 1.00D-10

 CCSD(T)     terms to be evaluated (factor= 1.000)


 Number of core orbitals:           1 (   1 )
 Number of closed-shell orbitals:   4 (   4 )
 Number of external orbitals:     729 ( 729 )

 Molecular orbitals read from record     2101.2  Type=RHF/CANONICAL (state 1.1)

 MP2-F12 correlation treatment (H.-J. Werner, 2006)
 ==================================================

 Using MP2-F12 with ansatz 3C(FIX)

 Using projected zeroth-order Hamiltonian (+Z)

 FOCKRIB=T FOCKRIC=T FOCKRIP=T CABSP=T CABSA=T CABSK=T CABSF=T GBC=F EBC=F DMAT=T NOFIK=T NOPAO=1 SOLVE=-1  USEPAO=0
 EXCH_A= T EXCH_B= F EXCH_C= F EXCH_P= F

 Geminal basis:    OPTFULL  GEM_TYPE=SLATER  BETA=1.0  NGEM=6

 Optimizing Gaussian exponents for each gem_beta

 Geminal optimization for beta= 1.0000
 Weight function:   m=0, omega= 1.4646

 Augmented Hessian optimization of geminal fit. Trust ratio= 0.40000
 Convergence reached after   2 iterations. Final gradient= 8.53D-16, Step= 4.26D-06, Delta= 1.28D-09

 Alpha:                 0.19532     0.81920     2.85917     9.50073    35.69989   197.79328
 Coeff:                 0.27070     0.30552     0.18297     0.10986     0.06810     0.04224


 All pairs explicitly correlated. Number of r12-pairs:           10

 Excluding core orbitals from MO domains

 AO(A)-basis ORBITAL           loaded. Number of functions:     734
 RI(R)-basis RI                loaded. Number of functions:     730
 DF-basis JKFIT                loaded. Number of functions:    1104

 Screening thresholds:   THRAO=  1.00D-10  THRMO=  1.00D-09  THRPROD=  1.00D-09
                         THRSW=  1.00D-05  THROV=  1.00D-12  THRAOF12= 1.00D-10

 CPU time for Fock operators                      8.70 sec

 Construction of ABS:
 Smallest eigenvalue of S          2.27E-04  (threshold= 1.00E-08)
 Ratio eigmin/eigmax               3.94E-05  (threshold= 1.00E-09)
 Smallest eigenvalue of S kept     2.27E-04  (threshold= 2.27E-04, 0 functions deleted, 730 kept)

 Construction of CABS:
 Smallest eigenvalue of S          9.76E-09  (threshold= 1.00E-08)
 Ratio eigmin/eigmax               9.76E-09  (threshold= 1.00E-09)
 Smallest eigenvalue of S kept     7.99E-08  (threshold= 7.99E-08, 1 functions deleted, 729 kept)

 CPU time for CABS singles                        1.40 sec

 CABS-singles contribution of  -0.00003792 patched into reference energy.
 New reference energy         -76.06236051

 AO(A)-basis ORBITAL           loaded. Number of functions:     734
 RI(R)-basis RI                loaded. Number of functions:     730
 DF-basis MP2FIT               loaded. Number of functions:    1246

 Screening thresholds:   THRAO=  1.00D-10  THRMO=  1.00D-09  THRPROD=  1.00D-09
                         THRSW=  1.00D-05  THROV=  1.00D-12  THRAOF12= 1.00D-10

 CPU time for 3-index integral evaluation        22.61 sec
 CPU time for first  half transformation          4.79 sec ( 3079.2 MFLOP/sec)
 CPU time for second half transformation          0.09 sec (  693.9 MFLOP/sec)
 CPU time for sorting                             0.26 sec
 CPU time for fitting                             0.28 sec (32802.4 MFLOP/sec)
 CPU time for tilde quantities                    0.31 sec (44231.7 MFLOP/sec)
 CPU time for assembly                            1.03 sec (33814.1 MFLOP/sec)
 CPU time for tranop_f12                          1.17 sec (35110.2 MFLOP/sec)
 CPU time for f12 integrals (total)              32.64 sec, Elapsed time:     34.86 sec
 F12-matrices built in  4 passes.
 F12-matrices built in  4 passes.
 F12-matrices built in  4 passes.
 F12-matrices built in  4 passes.
 FC-matrix built in  4 passes.
 CPU time for f12 matrices (total)                1.06 sec, Elapsed time:      1.12 sec

 Diagonal F12 approximation with fixed coefficients:  TSING= 0.500,  TTRIP= 0.250 (scaled by -1/beta)

 DF-MP2-F12 energy corrections:
 ==============================
 Approx.                                    Singlet             Triplet             Total
 DF-MP2-F12/3*C(DX,FIX)                -0.007268201581     -0.000572786084     -0.007840987664
 DF-MP2-F12/3*C(FIX)                   -0.006622680583     -0.000353897941     -0.006976578524
 DF-MP2-F12/3C(FIX)                    -0.006690939984     -0.000366086893     -0.007057026877

 DF-MP2-F12 correlation energies:
 ================================
 Approx.                                    Singlet             Triplet             Ecorr            Total Energy
 DF-MP2                                -0.192750399877     -0.102581183384     -0.295331583261    -76.357692091728
 DF-MP2-F12/3*C(DX,FIX)                -0.200018601458     -0.103153969468     -0.303172570925    -76.365533079393
 DF-MP2-F12/3*C(FIX)                   -0.199373080460     -0.102935081325     -0.302308161785    -76.364668670252
 DF-MP2-F12/3C(FIX)                    -0.199441339861     -0.102947270277     -0.302388610138    -76.364749118605

 SCS-DF-MP2 energies (F_SING= 1.20000  F_TRIP= 0.62222  F_PARALLEL= 0.33333):
 ============================================================================
 SCS-DF-MP2                            -0.295128771736    -76.357489280203
 SCS-DF-MP2-F12/3*C(DX,FIX)            -0.304207013862    -76.366567522330
 SCS-DF-MP2-F12/3*C(FIX)               -0.303296191599    -76.365656700066
 SCS-DF-MP2-F12/3C(FIX)                -0.303385687116    -76.365746195584
 Symmetry transformation completed.

 Number of N-1 electron functions:               4
 Number of N-2 electron functions:              10
 Number of singly external CSFs:              2916
 Number of doubly external CSFs:           4252986
 Total number of CSFs:                     4255903

 Pair and operator lists are different

 Length of J-op  integral file:             411.24 MB
 Length of K-op  integral file:             721.80 MB
 Length of 3-ext integral record:             0.00 MB

 For full I/O caching in triples, increase memory by 535.09 Mwords to 2535.14 Mwords.

 Integral transformation finished. Total CPU: 614.04 sec, npass=  1  Memory used:1009.99 MW

 Reference energy:                    -76.06236051

 Adding F12 terms to K(Cij), methodcc=6,  factor= 1.0

 ITER.      SQ.NORM     CORR.ENERGY   TOTAL ENERGY   ENERGY CHANGE        DEN1      VAR(S)    VAR(P)  DIIS     TIME  TIME/IT
   1      1.06442191    -0.29365872   -76.35601923     0.00167908     0.00789224  0.82D-03  0.11D-02  1  1   823.49   193.29
   2      1.06807511    -0.29375617   -76.35611668    -0.00009745    -0.00509121  0.16D-04  0.12D-03  2  2   976.50   188.76
   3      1.06948974    -0.29385592   -76.35621643    -0.00009975    -0.00098687  0.87D-05  0.78D-05  3  3  1135.34   188.42
   4      1.07003787    -0.29386211   -76.35622261    -0.00000618    -0.00029464  0.55D-06  0.78D-06  4  4  1285.91   185.88
   5      1.07014798    -0.29386087   -76.35622138     0.00000124    -0.00003203  0.17D-06  0.57D-07  5  5  1452.08   187.87
   6      1.07018413    -0.29385852   -76.35621903     0.00000235    -0.00000628  0.19D-07  0.47D-08  6  6  1612.21   188.28
   7      1.07019279    -0.29385797   -76.35621848     0.00000055    -0.00000132  0.14D-08  0.71D-09  6  2  1772.34   188.67
   8      1.07019466    -0.29385786   -76.35621837     0.00000011    -0.00000000  0.19D-09  0.74D-10  6  1  1931.53   188.91
   9      1.07019528    -0.29385783   -76.35621833     0.00000003     0.00000000  0.15D-10  0.92D-11  6  3  2087.94   188.69
  10      1.07019540    -0.29385782   -76.35621833     0.00000001     0.00000004  0.21D-11  0.10D-11  6  4  2254.83   189.49
  11      1.07019539    -0.29385782   -76.35621833    -0.00000000     0.00000004  0.43D-12  0.16D-12  6  5  2410.32   189.34
  12      1.07019538    -0.29385782   -76.35621833    -0.00000000     0.00000001  0.89D-13  0.23D-13  6  6  2577.11   189.91
  13      1.07019537    -0.29385782   -76.35621833    -0.00000000     0.00000000  0.14D-13  0.37D-14  6  2  2727.66   189.06
  14      1.07019536    -0.29385783   -76.35621833    -0.00000000     0.00000000  0.16D-14  0.80D-15  6  1  2892.36   189.49
  15      1.07019536    -0.29385783   -76.35621833    -0.00000000    -0.00000000  0.17D-15  0.11D-15  6  3  3056.34   189.78
  16      1.07019536    -0.29385783   -76.35621833    -0.00000000    -0.00000000  0.21D-16  0.14D-16  6  4  3212.03   189.54

 Norm of t1 vector:      0.03755998      S-energy:    -0.00000000      T1 diagnostic:  0.00938999
                                                                       D1 diagnostic:  0.01917554

 Adding energy correction from Wij-K(Fij), methodcc=6  factor= 1.0

  CCSD correlation energy              -0.293857825239
  MP2-F12 correction (uncoupled)       -0.006967544121
  C*T doubles correction               -0.000095169270
  f12b correction                       0.001588144496


 Total CPU time for triples:    647.11 sec

  Ecorr(MP2)                           -0.295337794369
  Ecorr(MP2-F12)                       -0.302394821246
  Scale factor for triples energy       1.023894763932


 RESULTS
 =======

  Reference energy                    -76.062322586858
  F12 singles correction               -0.000037921609

 F12 singles corrections added to reference energy

  New reference energy                -76.062360508467

  F12a singlet correction              -0.006663123801
  F12a triplet correction              -0.000399589591
  F12a total correction                -0.007062713391

 F12a corrections for ansatz F12/3C(FIX) added to CCSD energy

  CCSD-F12a singlet pair energy        -0.210068323031
  CCSD-F12a triplet pair energy        -0.090852214953
  CCSD-F12a correlation energy         -0.300920538630

  Triples (T) contribution (scaled)    -0.010173077397
  Total correlation energy             -0.311093616027

  CCSD-F12a total energy              -76.363281047097
  CCSD[T]-F12a energy                 -76.373782769968
  CCSD-T-F12a energy                  -76.373309434366
 !CCSD(T)-F12a total energy           -76.373454124495

 F12b corrections for ansatz F12/3C(FIX) added to CCSD(T)-F12a energy

  CCSD-F12b singlet pair energy        -0.208543605110
  CCSD-F12b triplet pair energy        -0.090788788377
  CCSD-F12b correlation energy         -0.299332394133

  Triples (T) contribution (scaled)    -0.010173077397
  Total correlation energy             -0.309505471531

  CCSD-F12b total energy              -76.361692902601
  CCSD[T]-F12b energy                 -76.372194625472
  CCSD-T-F12b energy                  -76.371721289870
 !CCSD(T)-F12b total energy           -76.371865979998

 Timing summary (sec):

 STEP                 CPU(USER)    SYS     CPU(TOT)    WALL
 Transformation        614.46     47.65    662.11    666.14
 CCSD iterations      2552.12    451.59   3003.71   3033.44
 Triples               647.11      8.18    655.29    657.79
 MP2-F12                45.65      2.69     48.34     49.00
 F12b energy           150.67     24.75    175.42    177.30

 Program statistics:

 Available memory in ccsd:              1999999871
 Min. memory needed in ccsd:              19260852
 Max. memory used in ccsd:                22423154
 Max. memory used in cckext:              14628952 (17 integral passes)



 **********************************************************************************************************************************
 DATASETS  * FILE   NREC   LENGTH (MB)   RECORD NAMES
              1      19     6330.34       500      610      700      900      950      970     1000      129      960     1100   
                                          VAR    BASINP    GEOM    SYMINP    ZMAT    AOBASIS   BASIS     P2S    ABASIS      S 
                                         1400     1410     1200     1210     1080     1600     1650     1700     1380   
                                           T        V       H0       H01     AOSYM     SMH    MOLCAS    OPER     JKOP   

              2       8       38.40       700     1000      520     2100     7360     7350      200     2101   
                                         GEOM     BASIS   MCVARS     RHF    F12ABS    EF12    OPTIONS    RHF  

 PROGRAMS   *        TOTAL   CCSD(T)    HF-SCF       INT   CCSD(T)    HF-SCF       INT
 CPU TIMES  *     19306.31   4010.32   1855.91      0.81  10124.81   1933.84   1380.36
 REAL TIME  *     21588.32 SEC
 DISK USED  *        14.29 GB (local),      509.41 GB (total)
 SF USED    *        17.68 GB
 GA USED    *         4.87 MB       (max)       0.00 MB       (current)
 **********************************************************************************************************************************

 Running procedure: SET_MONOMER2

 Dummy atoms: O19  H37  H38


 Recomputing one-electron integrals since nuclear charges changed


 PROGRAM * SEWARD (Integral evaluation for generally contracted gaussian basis sets)     Author: Roland Lindh, 1990

 Geometry written to block  1 of record 700


 Point group  C1  



 ATOMIC COORDINATES

 NR  ATOM    CHARGE       X              Y              Z

   1  O19     0.00  -12.424571324    5.951692429   -0.288750152
   2  H37     0.00  -14.111151890    6.508027800   -0.711859831
   3  H38     0.00  -12.410587350    5.867599617    1.622329878
   4  C1      6.00   -6.193010455    2.801518980    2.403542658
   5  H41     1.00   -4.656285171    1.699997622    3.119937832
   6  H42     1.00   -5.973046335    4.726205038    2.982932688
   7  H43     1.00   -7.940251230    2.077186956    3.118237078
   8  H44     1.00   -6.176569838    2.685300823    0.384937212

 Bond lengths in Bohr (Angstrom)

 1-2  1.825673808  1-3  1.912980406  4-5  2.021904040  4-6  2.022002335  4-7  2.021953343
     ( 0.966104974)     ( 1.012305636)     ( 1.069945541)     ( 1.069997556)     ( 1.069971630)

 4-8  2.022015060
     ( 1.070004290)

 Bond angles

  2-1-3  104.57658282   5-4-6  109.53398059   5-4-7  109.65604535   5-4-8  108.43490854

  6-4-7  109.49436728   6-4-8  109.86987750   7-4-8  109.83468330

 NUCLEAR CHARGE:                   10
 NUMBER OF PRIMITIVE AOS:        1046
 NUMBER OF SYMMETRY AOS:          786
 NUMBER OF CONTRACTIONS:          734   (  734A   )
 NUMBER OF CORE ORBITALS:           1   (    1A   )
 NUMBER OF VALENCE ORBITALS:        8   (    8A   )

 MOLECULE CHANGED: INITIALIZING OCCUPATION AND DUMP RECORDS


 NUCLEAR REPULSION ENERGY   13.68681606

 Basis set:  JKFIT                   
 Basis size:  1104
 Attributes:
 Sphericals:   T
 Basis set:  MP2FIT                  
 Basis size:  1246
 Attributes:
 Sphericals:   T
 Basis set:  RI                      
 Basis size:   730
 Attributes:
 Sphericals:   T
 Basis set:  TDDFT                   
 Basis size:  1246
 Attributes:
 Sphericals:   T

 Eigenvalues of metric

         1 0.143E-05 0.188E-05 0.356E-05 0.514E-05 0.541E-05 0.801E-05 0.824E-05 0.891E-05


 Contracted 2-electron integrals neglected if value below      1.0D-14

 OPERATOR DM      FOR CENTER  0  COORDINATES:    0.000000    0.000000    0.000000


 **********************************************************************************************************************************
 DATASETS  * FILE   NREC   LENGTH (MB)   RECORD NAMES
              1      18       49.80       500      610      700      900      950      970     1000      129      960     1100   
                                          VAR    BASINP    GEOM    SYMINP    ZMAT    AOBASIS   BASIS     P2S    ABASIS      S 
                                         1400     1410     1200     1210     1080     1600     1650     1700   
                                           T        V       H0       H01     AOSYM     SMH    MOLCAS    OPER   

              2       8       38.40       700     1000      520     2100     7360     7350      200     2101   
                                         GEOM     BASIS   MCVARS     RHF    F12ABS    EF12    OPTIONS    RHF  

 PROGRAMS   *        TOTAL       INT   CCSD(T)    HF-SCF       INT   CCSD(T)    HF-SCF       INT
 CPU TIMES  *     19307.07      0.75   4010.32   1855.91      0.81  10124.81   1933.84   1380.36
 REAL TIME  *     21589.75 SEC
 DISK USED  *        14.29 GB (local),      509.41 GB (total)
 SF USED    *        17.68 GB
 GA USED    *         4.87 MB       (max)       0.00 MB       (current)
 **********************************************************************************************************************************


 PROGRAM * RHF-SCF (CLOSED SHELL)       Authors: W. Meyer, H.-J. Werner


 NUMBER OF ELECTRONS:       5+    5-    SPACE SYMMETRY=1    SPIN SYMMETRY: Singlet 
 CONVERGENCE THRESHOLDS:    1.00E-08 (Density)    1.00E-11 (Energy)
 MAX. NUMBER OF ITERATIONS:       60
 INTERPOLATION TYPE:            DIIS
 INTERPOLATION STEPS:              2 (START)      1 (STEP)
 LEVEL SHIFTS:                  0.00 (CLOSED)  0.00 (OPEN) 



 Orbital guess generated from atomic densities. Full valence occupancy:    9

 Molecular orbital dump at record        2102.2

 Initial occupancy:   5

 ITERATION    DDIFF          GRAD             ENERGY        2-EL.EN.            DIPOLE MOMENTS         DIIS   ORB.
    1      0.000D+00      0.000D+00       -40.19676515     53.509900    0.00411   -0.00276   -0.00131    0    start
    2      0.000D+00      0.198D-02       -40.21405735     52.218476    0.00128   -0.00087   -0.00039    1    diag
    3      0.948D-03      0.769D-03       -40.21634078     52.673983    0.00182   -0.00123   -0.00056    2    diag
    4      0.258D-03      0.192D-03       -40.21666111     52.619246    0.00162   -0.00110   -0.00049    3    diag
    5      0.958D-04      0.248D-04       -40.21666659     52.621404    0.00159   -0.00108   -0.00048    4    diag
    6      0.323D-04      0.204D-05       -40.21666663     52.621532    0.00159   -0.00108   -0.00048    5    diag
    7      0.626D-05      0.166D-06       -40.21666663     52.621495    0.00159   -0.00108   -0.00048    6    diag
    8      0.429D-06      0.136D-07       -40.21666663     52.621495    0.00159   -0.00108   -0.00048    7    diag
    9      0.537D-07      0.167D-08       -40.21666663     52.621495    0.00159   -0.00108   -0.00048    8    diag
   10      0.110D-07      0.465D-09       -40.21666663     52.621495    0.00159   -0.00108   -0.00048    9    orth
   11      0.119D-08      0.667D-10       -40.21666663     52.621495    0.00159   -0.00108   -0.00048    0    orth

 Final occupancy:   5

 !RHF STATE  1.1 Energy               -40.216666634033
 Nuclear energy                        13.68681606
 One-electron energy                  -80.21423024
 Two-electron energy                   26.31074755
 Virial quotient                       -0.99832816
 !RHF STATE  1.1 Dipole moment          0.00158530    -0.00107714    -0.00047794
 Dipole moment /Debye                   0.00402916    -0.00273763    -0.00121471

 Orbital energies:

         1.1          2.1          3.1          4.1          5.1          6.1          7.1
    -11.196017    -0.950605    -0.551931    -0.549996    -0.547818     0.020548     0.030155


 HOMO      5.1    -0.547818 =     -14.9069eV
 LUMO      6.1     0.020548 =       0.5591eV
 LUMO-HOMO         0.568366 =      15.4660eV


 **********************************************************************************************************************************
 DATASETS  * FILE   NREC   LENGTH (MB)   RECORD NAMES
              1      18       49.80       500      610      700      900      950      970     1000      129      960     1100   
                                          VAR    BASINP    GEOM    SYMINP    ZMAT    AOBASIS   BASIS     P2S    ABASIS      S 
                                         1400     1410     1200     1210     1080     1600     1650     1700   
                                           T        V       H0       H01     AOSYM     SMH    MOLCAS    OPER   

              2       9       62.49       700     1000      520     2100     7360     7350      200     2101     2102   
                                         GEOM     BASIS   MCVARS     RHF    F12ABS    EF12    OPTIONS    RHF      RHF  

 PROGRAMS   *        TOTAL    HF-SCF       INT   CCSD(T)    HF-SCF       INT   CCSD(T)    HF-SCF       INT
 CPU TIMES  *     21115.20   1808.13      0.75   4010.32   1855.91      0.81  10124.81   1933.84   1380.36
 REAL TIME  *     23742.38 SEC
 DISK USED  *        14.29 GB (local),      509.41 GB (total)
 SF USED    *        17.68 GB
 GA USED    *         4.87 MB       (max)       0.00 MB       (current)
 **********************************************************************************************************************************

 Basis set:  JKFIT                   
 Basis size:  1104
 Attributes:
 Sphericals:   T
 Basis set:  MP2FIT                  
 Basis size:  1246
 Attributes:
 Sphericals:   T
 Basis set:  RI                      
 Basis size:   730
 Attributes:
 Sphericals:   T
 Basis set:  TDDFT                   
 Basis size:  1246
 Attributes:
 Sphericals:   T

 PROGRAM * CCSD (Closed-shell coupled cluster)     Authors: C. Hampel, H.-J. Werner, 1991, M. Deegan, P.J. Knowles, 1992

                                  CCSD-F12 implementation by  H.-J. Werner, 2007

                   Density fitting integral evaluation by F.R. Manby, 2003,2007, G. Knizia, 2010



 Convergence thresholds:  THRVAR = 1.00D-08  THRDEN = 1.00D-10

 CCSD(T)     terms to be evaluated (factor= 1.000)


 Number of core orbitals:           1 (   1 )
 Number of closed-shell orbitals:   4 (   4 )
 Number of external orbitals:     729 ( 729 )

 Molecular orbitals read from record     2102.2  Type=RHF/CANONICAL (state 1.1)

 MP2-F12 correlation treatment (H.-J. Werner, 2006)
 ==================================================

 Using MP2-F12 with ansatz 3C(FIX)

 Using projected zeroth-order Hamiltonian (+Z)

 FOCKRIB=T FOCKRIC=T FOCKRIP=T CABSP=T CABSA=T CABSK=T CABSF=T GBC=F EBC=F DMAT=T NOFIK=T NOPAO=1 SOLVE=-1  USEPAO=0
 EXCH_A= T EXCH_B= F EXCH_C= F EXCH_P= F

 Geminal basis:    OPTFULL  GEM_TYPE=SLATER  BETA=1.0  NGEM=6

 Optimizing Gaussian exponents for each gem_beta

 Geminal optimization for beta= 1.0000
 Weight function:   m=0, omega= 1.4646

 Augmented Hessian optimization of geminal fit. Trust ratio= 0.40000
 Convergence reached after   2 iterations. Final gradient= 8.53D-16, Step= 4.26D-06, Delta= 1.28D-09

 Alpha:                 0.19532     0.81920     2.85917     9.50073    35.69989   197.79328
 Coeff:                 0.27070     0.30552     0.18297     0.10986     0.06810     0.04224


 All pairs explicitly correlated. Number of r12-pairs:           10

 Excluding core orbitals from MO domains

 AO(A)-basis ORBITAL           loaded. Number of functions:     734
 RI(R)-basis RI                loaded. Number of functions:     730
 DF-basis JKFIT                loaded. Number of functions:    1104

 Screening thresholds:   THRAO=  1.00D-10  THRMO=  1.00D-09  THRPROD=  1.00D-09
                         THRSW=  1.00D-05  THROV=  1.00D-12  THRAOF12= 1.00D-10

 CPU time for Fock operators                      8.99 sec

 Construction of ABS:
 Smallest eigenvalue of S          2.27E-04  (threshold= 1.00E-08)
 Ratio eigmin/eigmax               3.94E-05  (threshold= 1.00E-09)
 Smallest eigenvalue of S kept     2.27E-04  (threshold= 2.27E-04, 0 functions deleted, 730 kept)

 Construction of CABS:
 Smallest eigenvalue of S          9.76E-09  (threshold= 1.00E-08)
 Ratio eigmin/eigmax               9.76E-09  (threshold= 1.00E-09)
 Smallest eigenvalue of S kept     7.99E-08  (threshold= 7.99E-08, 1 functions deleted, 729 kept)

 CPU time for CABS singles                        1.41 sec

 CABS-singles contribution of  -0.00004092 patched into reference energy.
 New reference energy         -40.21670755

 AO(A)-basis ORBITAL           loaded. Number of functions:     734
 RI(R)-basis RI                loaded. Number of functions:     730
 DF-basis MP2FIT               loaded. Number of functions:    1246

 Screening thresholds:   THRAO=  1.00D-10  THRMO=  1.00D-09  THRPROD=  1.00D-09
                         THRSW=  1.00D-05  THROV=  1.00D-12  THRAOF12= 1.00D-10

 CPU time for 3-index integral evaluation        24.64 sec
 CPU time for first  half transformation          4.18 sec ( 3368.1 MFLOP/sec)
 CPU time for second half transformation          0.09 sec (  612.6 MFLOP/sec)
 CPU time for sorting                             0.20 sec
 CPU time for fitting                             0.21 sec (43662.7 MFLOP/sec)
 CPU time for tilde quantities                    0.30 sec (45706.1 MFLOP/sec)
 CPU time for assembly                            0.92 sec (34906.2 MFLOP/sec)
 CPU time for tranop_f12                          1.19 sec (32519.1 MFLOP/sec)
 CPU time for f12 integrals (total)              33.90 sec, Elapsed time:     36.08 sec
 F12-matrices built in  4 passes.
 F12-matrices built in  4 passes.
 F12-matrices built in  4 passes.
 F12-matrices built in  4 passes.
 FC-matrix built in  4 passes.
 CPU time for f12 matrices (total)                0.96 sec, Elapsed time:      1.01 sec

 Diagonal F12 approximation with fixed coefficients:  TSING= 0.500,  TTRIP= 0.250 (scaled by -1/beta)

 DF-MP2-F12 energy corrections:
 ==============================
 Approx.                                    Singlet             Triplet             Total
 DF-MP2-F12/3*C(DX,FIX)                -0.003936338168     -0.000213269874     -0.004149608042
 DF-MP2-F12/3*C(FIX)                   -0.003773263572     -0.000161146630     -0.003934410202
 DF-MP2-F12/3C(FIX)                    -0.003820455036     -0.000164201614     -0.003984656650

 DF-MP2-F12 correlation energies:
 ================================
 Approx.                                    Singlet             Triplet             Ecorr            Total Energy
 DF-MP2                                -0.157866580708     -0.056824649665     -0.214691230372    -40.431398784124
 DF-MP2-F12/3*C(DX,FIX)                -0.161802918876     -0.057037919539     -0.218840838415    -40.435548392166
 DF-MP2-F12/3*C(FIX)                   -0.161639844280     -0.056985796295     -0.218625640575    -40.435333194326
 DF-MP2-F12/3C(FIX)                    -0.161687035744     -0.056988851278     -0.218675887023    -40.435383440774

 SCS-DF-MP2 energies (F_SING= 1.20000  F_TRIP= 0.62222  F_PARALLEL= 0.33333):
 ============================================================================
 SCS-DF-MP2                            -0.224797456641    -40.441505010392
 SCS-DF-MP2-F12/3*C(DX,FIX)            -0.229653763697    -40.446361317449
 SCS-DF-MP2-F12/3*C(FIX)               -0.229425641942    -40.446133195693
 SCS-DF-MP2-F12/3C(FIX)                -0.229484172577    -40.446191726329
 Symmetry transformation completed.

 Number of N-1 electron functions:               4
 Number of N-2 electron functions:              10
 Number of singly external CSFs:              2916
 Number of doubly external CSFs:           4252986
 Total number of CSFs:                     4255903

 Pair and operator lists are different

 Length of J-op  integral file:             411.24 MB
 Length of K-op  integral file:             721.80 MB
 Length of 3-ext integral record:             0.00 MB

 For full I/O caching in triples, increase memory by 535.09 Mwords to 2535.14 Mwords.

 Integral transformation finished. Total CPU: 604.83 sec, npass=  1  Memory used:1009.99 MW

 Reference energy:                    -40.21670755

 Adding F12 terms to K(Cij), methodcc=6,  factor= 1.0

 ITER.      SQ.NORM     CORR.ENERGY   TOTAL ENERGY   ENERGY CHANGE        DEN1      VAR(S)    VAR(P)  DIIS     TIME  TIME/IT
   1      1.07033673    -0.22827046   -40.44497801    -0.01357251    -0.00771835  0.62D-03  0.94D-03  1  1   795.99   169.68
   2      1.07515857    -0.22922738   -40.44593493    -0.00095692    -0.00531218  0.16D-04  0.11D-03  2  2   949.20   176.42
   3      1.07694811    -0.22929474   -40.44600230    -0.00006737    -0.00133760  0.22D-05  0.64D-05  3  3  1095.50   176.82
   4      1.07735089    -0.22929720   -40.44600475    -0.00000245    -0.00021859  0.16D-06  0.39D-06  4  4  1249.63   178.56
   5      1.07740816    -0.22930077   -40.44600832    -0.00000357    -0.00000963  0.14D-07  0.24D-07  5  5  1400.34   178.77
   6      1.07741840    -0.22929941   -40.44600697     0.00000136    -0.00000405  0.88D-09  0.18D-08  6  6  1539.90   176.78
   7      1.07741990    -0.22929903   -40.44600658     0.00000039    -0.00000089  0.55D-10  0.13D-09  6  1  1684.87   176.56
   8      1.07741983    -0.22929908   -40.44600664    -0.00000006     0.00000024  0.59D-11  0.83D-11  6  3  1834.97   176.96
   9      1.07741997    -0.22929907   -40.44600662     0.00000002    -0.00000009  0.39D-12  0.57D-12  6  2  1980.12   176.77
  10      1.07741997    -0.22929907   -40.44600662     0.00000000     0.00000001  0.55D-13  0.61D-13  6  4  2128.03   176.84
  11      1.07741998    -0.22929906   -40.44600662     0.00000000    -0.00000000  0.56D-14  0.65D-14  6  5  2280.15   177.47
  12      1.07741997    -0.22929906   -40.44600662     0.00000000     0.00000000  0.15D-15  0.65D-15  6  6  2423.83   177.27
  13      1.07741997    -0.22929906   -40.44600662    -0.00000000     0.00000000  0.12D-16  0.74D-16  6  1  2577.64   177.84
  14      1.07741997    -0.22929906   -40.44600662    -0.00000000     0.00000000  0.22D-17  0.13D-16  6  3  2733.57   178.45

 Norm of t1 vector:      0.03268920      S-energy:     0.00000000      T1 diagnostic:  0.00817230
                                                                       D1 diagnostic:  0.01311256

 Adding energy correction from Wij-K(Fij), methodcc=6  factor= 1.0

  CCSD correlation energy              -0.229299064495
  MP2-F12 correction (uncoupled)       -0.003886819026
  C*T doubles correction               -0.000069399064
  f12b correction                       0.001101191654

 Total CPU time for triples:    641.90 sec

  Ecorr(MP2)                           -0.214697940969
  Ecorr(MP2-F12)                       -0.218682597619
  Scale factor for triples energy       1.018559361269


 RESULTS
 =======

  Reference energy                    -40.216666634034
  F12 singles correction               -0.000040919718

 F12 singles corrections added to reference energy

  New reference energy                -40.216707553751

  F12a singlet correction              -0.003784718954
  F12a triplet correction              -0.000171499136
  F12a total correction                -0.003956218090

 F12a corrections for ansatz F12/3C(FIX) added to CCSD energy

  CCSD-F12a singlet pair energy        -0.178096713207
  CCSD-F12a triplet pair energy        -0.055158569383
  CCSD-F12a correlation energy         -0.233255282585

  Triples (T) contribution (scaled)    -0.007109187033
  Total correlation energy             -0.240364469618

  CCSD-F12a total energy              -40.449962836336
  CCSD[T]-F12a energy                 -40.457307649833
  CCSD-T-F12a energy                  -40.457004176900
 !CCSD(T)-F12a total energy           -40.457072023369

 F12b corrections for ansatz F12/3C(FIX) added to CCSD(T)-F12a energy

  CCSD-F12b singlet pair energy        -0.177024701024
  CCSD-F12b triplet pair energy        -0.055129389912
  CCSD-F12b correlation energy         -0.232154090930

  Triples (T) contribution (scaled)    -0.007109187033
  Total correlation energy             -0.239263277963

  CCSD-F12b total energy              -40.448861644682
  CCSD[T]-F12b energy                 -40.456206458178
  CCSD-T-F12b energy                  -40.455902985246
 !CCSD(T)-F12b total energy           -40.455970831715

 Timing summary (sec):

 STEP                 CPU(USER)    SYS     CPU(TOT)    WALL
 Transformation        605.25     53.16    658.41    662.34
 CCSD iterations      2081.33    392.52   2473.85   2499.04
 Triples               641.90      9.47    651.37    653.88
 MP2-F12                47.22      2.75     49.97     50.40
 F12b energy           161.02     27.71    188.73    190.84

 Program statistics:

 Available memory in ccsd:              1999999866
 Min. memory needed in ccsd:              19260852
 Max. memory used in ccsd:                22423154
 Max. memory used in cckext:              14628952 (15 integral passes)



 **********************************************************************************************************************************
 DATASETS  * FILE   NREC   LENGTH (MB)   RECORD NAMES
              1      19     6330.34       500      610      700      900      950      970     1000      129      960     1100   
                                          VAR    BASINP    GEOM    SYMINP    ZMAT    AOBASIS   BASIS     P2S    ABASIS      S 
                                         1400     1410     1200     1210     1080     1600     1650     1700     1380   
                                           T        V       H0       H01     AOSYM     SMH    MOLCAS    OPER     JKOP   

              2       9       62.49       700     1000      520     2100     7360     7350      200     2101     2102   
                                         GEOM     BASIS   MCVARS     RHF    F12ABS    EF12    OPTIONS    RHF      RHF  

 PROGRAMS   *        TOTAL   CCSD(T)    HF-SCF       INT   CCSD(T)    HF-SCF       INT   CCSD(T)    HF-SCF       INT
 CPU TIMES  *     24652.18   3536.97   1808.13      0.75   4010.32   1855.91      0.81  10124.81   1933.84   1380.36
 REAL TIME  *     27799.65 SEC
 DISK USED  *        14.29 GB (local),      509.41 GB (total)
 SF USED    *        17.68 GB
 GA USED    *         4.87 MB       (max)       0.00 MB       (current)
 **********************************************************************************************************************************
 Molecular orbitals read from record     2102.2  Type=RHF/CANONICAL (state 1.1)
 Occupation numbers read from record     2102.2  Type=RHF/RHF (state 1.1)
 Orbital energies read from record       2102.2  Type=RHF/CANONICAL (state 1.1)
 Redundancy group numbers read from rec  2102.2  Type=RHF/RHF (state 1.1)

 CCSD(T)-F12/aug-cc-pV5Z energy=    -40.455970831715

     CCSD(T)-F12          HF-SCF     CCSD(T)-F12          HF-SCF     CCSD(T)-F12          HF-SCF
    -40.45597083    -40.21666663    -76.37186598    -76.06232259   -116.82826843   -116.27888456
 **********************************************************************************************************************************
 Molpro calculation terminated
