
 Primary working directories    : /scratch.ssd/kelum/job_385672.cerit-pbs.cerit-sc.cz/molpro.dIMODYLYKi
 Secondary working directories  : /scratch.ssd/kelum/job_385672.cerit-pbs.cerit-sc.cz/molpro.dIMODYLYKi
 Wavefunction directory         : /scratch.ssd/kelum/job_385672.cerit-pbs.cerit-sc.cz/
 Main file repository           : /scratch.ssd/kelum/job_385672.cerit-pbs.cerit-sc.cz/molpro.dIMODYLYKi/

 id        : karlovklimes

 Nodes             nprocs
 elan12.cerit-sc.cz    4

 Using customized tuning parameters: mindgm=1; mindgv=20; mindgc=4; mindgr=1; noblas=0; minvec=7
 default implementation of scratch files=sf  


 Variables initialized (934), CPU time= 0.00 sec
                                                                                 !gdirect
 memory,4000,m
 gthresh,orbital=1d-10,energy=1d-10
 
 symmetry,nosym
 angstrom
 geometry={
 O20        -6.561800000000      3.004400000000      2.437800000000
 H39        -6.427800000000      2.081100000000      2.759600000000
 H40        -5.876000000000      3.542400000000      2.882400000000
 C1        -3.277200000000      1.482500000000      1.271900000000
 H41        -2.464000000000      0.899600000000      1.651000000000
 H42        -3.160800000000      2.501000000000      1.578500000000
 H43        -4.201800000000      1.099200000000      1.650100000000
 H44        -3.268500000000      1.421000000000      0.203700000000
 }
 
 nkerna=1
 nkernb=1
 
 gf=0
 sing=1
 thrdum=1d-4
 gridthr=1d-8
 
 basis={
 set,orbital
 default,av5z
 set,jkfit
 default,av5z/jkfit
 set,mp2fit
 default,av5z/mp2fit
 set,ri
 default,av5z/optri
 set,tddft
 default,av5z/mp2fit
 }
 
 proc set_monomer1
 dummy,4,5,6,7,8
 endproc
 
 proc set_monomer2
 dummy,1,2,3
 endproc
 
                                                                                 !12 energy
 {hf,accu=1.d-16}
 {ccsd(t)-f12,df_basis=mp2fit,df_basis_exch=jkfit,ri_basis=ri,scale_trip=1,THRAOF12=1d-10}
 
 set_monomer1
 {hf,accu=1.d-16}
 {ccsd(t)-f12,df_basis=mp2fit,df_basis_exch=jkfit,ri_basis=ri,scale_trip=1,THRAOF12=1d-10}
 
 set_monomer2
 {hf,accu=1.d-16}
 {ccsd(t)-f12,df_basis=mp2fit,df_basis_exch=jkfit,ri_basis=ri,scale_trip=1,THRAOF12=1d-10}
 
 Commands  initialized (763), CPU time= 0.01 sec, 617 directives.
 Default parameters read. Elapsed time= 0.45 sec

 Checking input...
 Passed
1


                                         ***  PROGRAM SYSTEM MOLPRO  ***
                                       Copyright, TTI GmbH Stuttgart, 2015
                                    Version 2019.2 linked Jun  8 2019 11:26:33


 **********************************************************************************************************************************
 LABEL *                                                                                 
  64 bit mpp version                                                                     DATE: 25-Mar-20          TIME: 12:08:41  
 **********************************************************************************************************************************

 SHA1:             8135a10abc80eafa5b3ae28ffc55be4890dc4c84
 **********************************************************************************************************************************

 THRESHOLDS:

 ZERO    =  1.00D-12  ONEINT  =  1.00D-12  TWOINT  =  1.00D-11  PREFAC  =  1.00D-14  XXXXXX  =  1.00D-09  EORDER  =  1.00D-04
 ENERGY  =  1.00D-10  ETEST   =  0.00D+00  EDENS   =  0.00D+00  THRDEDEF=  1.00D-06  GRADIENT=  1.00D-02  STEP    =  1.00D-03
 ORBITAL =  1.00D-10  CIVEC   =  1.00D-05  COEFF   =  1.00D-04  PRINTCI =  5.00D-02  PUNCHCI =  9.90D+01  OPTGRAD =  3.00D-04
 OPTENERG=  1.00D-06  OPTSTEP =  3.00D-04  THRGRAD =  1.00D-10  COMPRESS=  1.00D-11  VARMIN  =  1.00D-07  VARMAX  =  1.00D-03
 THRDOUB =  0.00D+00  THRDIV  =  1.00D-05  THRRED  =  1.00D-07  THRPSP  =  1.00D+00  THRDC   =  1.00D-10  THRCS   =  1.00D-10
 THRNRM  =  1.00D-08  THREQ   =  0.00D+00  THRDE   =  1.00D+00  THRREF  =  1.00D-05  SPARFAC =  1.00D+00  THRDLP  =  1.00D-07
 THRDIA  =  1.00D-10  THRDLS  =  1.00D-07  THRGPS  =  0.00D+00  THRKEX  =  0.00D+00  THRDIS  =  2.00D-01  THRVAR  =  1.00D-10
 THRLOC  =  1.00D-06  THRGAP  =  1.00D-06  THRLOCT = -1.00D+00  THRGAPT = -1.00D+00  THRORB  =  1.00D-06  THRMLTP =  0.00D+00
 THRCPQCI=  1.00D-10  KEXTA   =  0.00D+00  THRCOARS=  0.00D+00  SYMTOL  =  1.00D-06  GRADTOL =  1.00D-06  THROVL  =  1.00D-08
 THRORTH =  1.00D-08  GRID    =  1.00D-06  GRIDMAX =  1.00D-03  DTMAX   =  0.00D+00  THROCCDE=  1.00D-01  THROCCDE=  1.00D-01
 THRPRINT=  2.50D-01


 Variable memory set to 4000000000 words,  buffer space 

 ZSYMEL=NOSYM
 ZUNIT=ANG


Geometry recognized as XYZ

 SETTING NKERNA         =         1.00000000                                  
 SETTING NKERNB         =         1.00000000                                  
 SETTING GF             =     0.00000000D+00                                  
 SETTING SING           =         1.00000000                                  
 SETTING THRDUM         =     1.00000000D-04                                  
 SETTING GRIDTHR        =     1.00000000D-08                                  
 SETTING BASIS          =    AV5Z


 Recomputing integrals since basis changed


 Using spherical harmonics

 Library entry O      S aug-cc-pV5Z          selected for orbital group  1
 Library entry O      P aug-cc-pV5Z          selected for orbital group  1
 Library entry O      D aug-cc-pV5Z          selected for orbital group  1
 Library entry O      F aug-cc-pV5Z          selected for orbital group  1
 Library entry O      G aug-cc-pV5Z          selected for orbital group  1
 Library entry O      H aug-cc-pV5Z          selected for orbital group  1
 Library entry H      S aug-cc-pV5Z          selected for orbital group  2
 Library entry H      P aug-cc-pV5Z          selected for orbital group  2
 Library entry H      D aug-cc-pV5Z          selected for orbital group  2
 Library entry H      F aug-cc-pV5Z          selected for orbital group  2
 Library entry H      G aug-cc-pV5Z          selected for orbital group  2
 Library entry C      S aug-cc-pV5Z          selected for orbital group  3
 Library entry C      P aug-cc-pV5Z          selected for orbital group  3
 Library entry C      D aug-cc-pV5Z          selected for orbital group  3
 Library entry C      F aug-cc-pV5Z          selected for orbital group  3
 Library entry C      G aug-cc-pV5Z          selected for orbital group  3
 Library entry C      H aug-cc-pV5Z          selected for orbital group  3


 PROGRAM * SEWARD (Integral evaluation for generally contracted gaussian basis sets)     Author: Roland Lindh, 1990

 Geometry written to block  1 of record 700


 Point group  C1  



 ATOMIC COORDINATES

 NR  ATOM    CHARGE       X              Y              Z

   1  O20     8.00  -12.400004884    5.677493169    4.606774346
   2  H39     1.00  -12.146781583    3.932709038    5.214888213
   3  H40     1.00  -11.104030708    6.694165824    5.446946581
   4  C1      6.00   -6.193010455    2.801518980    2.403542658
   5  H41     1.00   -4.656285171    1.699997622    3.119937832
   6  H42     1.00   -5.973046335    4.726205038    2.982932688
   7  H43     1.00   -7.940251230    2.077186956    3.118237078
   8  H44     1.00   -6.176569838    2.685300823    0.384937212

 Bond lengths in Bohr (Angstrom)

 1-2  1.864992273  1-3  1.849070506  4-5  2.021904040  4-6  2.022002335  4-7  2.021953343
     ( 0.986911409)     ( 0.978485973)     ( 1.069945541)     ( 1.069997556)     ( 1.069971630)

 4-8  2.022015060
     ( 1.070004290)

 Bond angles

  2-1-3  105.72790617   5-4-6  109.53398059   5-4-7  109.65604535   5-4-8  108.43490854

  6-4-7  109.49436728   6-4-8  109.86987750   7-4-8  109.83468330

 NUCLEAR CHARGE:                   20
 NUMBER OF PRIMITIVE AOS:        1046
 NUMBER OF SYMMETRY AOS:          786
 NUMBER OF CONTRACTIONS:          734   (  734A   )
 NUMBER OF CORE ORBITALS:           2   (    2A   )
 NUMBER OF VALENCE ORBITALS:       14   (   14A   )


 NUCLEAR REPULSION ENERGY   36.69183171


 Basis set:  JKFIT                   
 Basis size:  1104
 Attributes:
 Sphericals:   T
 Basis set:  MP2FIT                  
 Basis size:  1246
 Attributes:
 Sphericals:   T
 Basis set:  RI                      
 Basis size:   730
 Attributes:
 Sphericals:   T
 Basis set:  TDDFT                   
 Basis size:  1246
 Attributes:
 Sphericals:   T

 **********************************************************************************************************************************


 Eigenvalues of metric

         1 0.192E-05 0.274E-05 0.348E-05 0.441E-05 0.516E-05 0.694E-05 0.800E-05 0.929E-05


 Contracted 2-electron integrals neglected if value below      1.0D-14
 AO integral compression algorithm  1   Integral accuracy      1.0D-14

     159446.204 MB (compressed) written to integral file ( 50.5%)

     Node minimum: 39106.904 MB, node maximum: 40336.622 MB


 NUMBER OF SORTED TWO-ELECTRON INTEGRALS: 9095363064.     BUFFER LENGTH:  32768
 NUMBER OF SEGMENTS: 190  SEGMENT LENGTH:   47999780      RECORD LENGTH: 131072

 Memory used in sort:      48.16 MW

 SORT1 READ 39471791889. AND WROTE  7183316347. INTEGRALS IN  82302 RECORDS. CPU TIME:   970.10 SEC, REAL TIME:  1107.12 SEC
 SORT2 READ 28738277398. AND WROTE 36381317385. INTEGRALS IN 615488 RECORDS. CPU TIME:   177.05 SEC, REAL TIME:   857.10 SEC

 Node minimum:  9095228192.  Node maximum:  9095430501. integrals

 OPERATOR DM      FOR CENTER  0  COORDINATES:    0.000000    0.000000    0.000000


 **********************************************************************************************************************************
 DATASETS  * FILE   NREC   LENGTH (MB)   RECORD NAMES
              1      18       49.80       500      610      700      900      950      970     1000      129      960     1100   
                                          VAR    BASINP    GEOM    SYMINP    ZMAT    AOBASIS   BASIS     P2S    ABASIS      S 
                                         1400     1410     1200     1210     1080     1600     1650     1700   
                                           T        V       H0       H01     AOSYM     SMH    MOLCAS    OPER   

 PROGRAMS   *        TOTAL       INT
 CPU TIMES  *      1894.45   1894.20
 REAL TIME  *      2761.58 SEC
 DISK USED  *        50.44 MB (local),      504.15 GB (total)
 GA USED    *         0.00 MB       (max)       0.00 MB       (current)
 **********************************************************************************************************************************


 PROGRAM * RHF-SCF (CLOSED SHELL)       Authors: W. Meyer, H.-J. Werner


 NUMBER OF ELECTRONS:      10+   10-    SPACE SYMMETRY=1    SPIN SYMMETRY: Singlet 
 CONVERGENCE THRESHOLDS:    1.00E-08 (Density)    1.00E-11 (Energy)
 MAX. NUMBER OF ITERATIONS:       60
 INTERPOLATION TYPE:            DIIS
 INTERPOLATION STEPS:              2 (START)      1 (STEP)
 LEVEL SHIFTS:                  0.00 (CLOSED)  0.00 (OPEN) 



 Orbital guess generated from atomic densities. Full valence occupancy:   16

 Molecular orbital dump at record        2100.2

 Initial occupancy:  10

 ITERATION    DDIFF          GRAD             ENERGY        2-EL.EN.            DIPOLE MOMENTS         DIIS   ORB.
    1      0.000D+00      0.000D+00      -116.22144830    158.826489    0.79919   -0.37782    0.73996    0    start
    2      0.000D+00      0.291D-02      -116.26575223    153.971194    0.47204   -0.21001    0.38264    1    diag
    3      0.161D-02      0.172D-02      -116.27948329    156.009875    0.55501   -0.25185    0.47552    2    diag
    4      0.556D-03      0.256D-03      -116.28015407    155.897605    0.54673   -0.24785    0.46949    3    diag
    5      0.126D-03      0.752D-04      -116.28022458    155.892334    0.54654   -0.24773    0.46895    4    diag
    6      0.520D-04      0.183D-04      -116.28022852    155.898042    0.54600   -0.24754    0.46839    5    diag
    7      0.186D-04      0.368D-05      -116.28022875    155.896313    0.54600   -0.24756    0.46840    6    diag
    8      0.550D-05      0.946D-06      -116.28022877    155.896497    0.54596   -0.24755    0.46835    7    diag
    9      0.126D-05      0.223D-06      -116.28022877    155.896469    0.54594   -0.24754    0.46833    8    diag
   10      0.309D-06      0.271D-07      -116.28022877    155.896471    0.54594   -0.24754    0.46833    9    orth
   11      0.620D-07      0.669D-08      -116.28022877    155.896472    0.54594   -0.24754    0.46833    9    diag
   12      0.497D-08      0.187D-08      -116.28022877    155.896472    0.54594   -0.24754    0.46833    0    orth

 Final occupancy:  10

 !RHF STATE  1.1 Energy              -116.280228771850
 Nuclear energy                        36.69183171
 One-electron energy                 -230.92029634
 Two-electron energy                   77.94823586
 Virial quotient                       -1.00078436
 !RHF STATE  1.1 Dipole moment          0.54594196    -0.24753736     0.46833215
 Dipole moment /Debye                   1.38755517    -0.62913601     1.19030362

 Orbital energies:

         1.1          2.1          3.1          4.1          5.1          6.1          7.1          8.1          9.1         10.1
    -20.566883   -11.200057    -1.338382    -0.954528    -0.705692    -0.577850    -0.556162    -0.554366    -0.551255    -0.506738

        11.1         12.1
      0.020148     0.033598


 HOMO     10.1    -0.506738 =     -13.7891eV
 LUMO     11.1     0.020148 =       0.5483eV
 LUMO-HOMO         0.526886 =      14.3373eV


 **********************************************************************************************************************************
 DATASETS  * FILE   NREC   LENGTH (MB)   RECORD NAMES
              1      18       49.80       500      610      700      900      950      970     1000      129      960     1100   
                                          VAR    BASINP    GEOM    SYMINP    ZMAT    AOBASIS   BASIS     P2S    ABASIS      S 
                                         1400     1410     1200     1210     1080     1600     1650     1700   
                                           T        V       H0       H01     AOSYM     SMH    MOLCAS    OPER   

              2       4       13.79       700     1000      520     2100   
                                         GEOM     BASIS   MCVARS     RHF  

 PROGRAMS   *        TOTAL    HF-SCF       INT
 CPU TIMES  *      4194.92   2300.46   1894.20
 REAL TIME  *      5267.90 SEC
 DISK USED  *       102.61 MB (local),      504.36 GB (total)
 SF USED    *         2.16 MB
 GA USED    *         0.00 MB       (max)       0.00 MB       (current)
 **********************************************************************************************************************************

 Basis set:  JKFIT                   
 Basis size:  1104
 Attributes:
 Sphericals:   T
 Basis set:  MP2FIT                  
 Basis size:  1246
 Attributes:
 Sphericals:   T
 Basis set:  RI                      
 Basis size:   730
 Attributes:
 Sphericals:   T
 Basis set:  TDDFT                   
 Basis size:  1246
 Attributes:
 Sphericals:   T

 PROGRAM * CCSD (Closed-shell coupled cluster)     Authors: C. Hampel, H.-J. Werner, 1991, M. Deegan, P.J. Knowles, 1992

                                  CCSD-F12 implementation by  H.-J. Werner, 2007

                   Density fitting integral evaluation by F.R. Manby, 2003,2007, G. Knizia, 2010



 Convergence thresholds:  THRVAR = 1.00D-08  THRDEN = 1.00D-10

 CCSD(T)     terms to be evaluated (factor= 1.000)


 Number of core orbitals:           2 (   2 )
 Number of closed-shell orbitals:   8 (   8 )
 Number of external orbitals:     724 ( 724 )

 Molecular orbitals read from record     2100.2  Type=RHF/CANONICAL (state 1.1)

 MP2-F12 correlation treatment (H.-J. Werner, 2006)
 ==================================================

 Using MP2-F12 with ansatz 3C(FIX)

 Using projected zeroth-order Hamiltonian (+Z)

 FOCKRIB=T FOCKRIC=T FOCKRIP=T CABSP=T CABSA=T CABSK=T CABSF=T GBC=F EBC=F DMAT=T NOFIK=T NOPAO=1 SOLVE=-1  USEPAO=0
 EXCH_A= T EXCH_B= F EXCH_C= F EXCH_P= F

 Geminal basis:    OPTFULL  GEM_TYPE=SLATER  BETA=1.0  NGEM=6

 Optimizing Gaussian exponents for each gem_beta

 Geminal optimization for beta= 1.0000
 Weight function:   m=0, omega= 1.4646

 Augmented Hessian optimization of geminal fit. Trust ratio= 0.40000
 Convergence reached after   2 iterations. Final gradient= 8.53D-16, Step= 4.26D-06, Delta= 1.28D-09

 Alpha:                 0.19532     0.81920     2.85917     9.50073    35.69989   197.79328
 Coeff:                 0.27070     0.30552     0.18297     0.10986     0.06810     0.04224


 All pairs explicitly correlated. Number of r12-pairs:           36

 Excluding core orbitals from MO domains

 AO(A)-basis ORBITAL           loaded. Number of functions:     734
 RI(R)-basis RI                loaded. Number of functions:     730
 DF-basis JKFIT                loaded. Number of functions:    1104

 Screening thresholds:   THRAO=  1.00D-10  THRMO=  1.00D-09  THRPROD=  1.00D-09
                         THRSW=  1.00D-05  THROV=  1.00D-12  THRAOF12= 1.00D-10

 CPU time for Fock operators                     10.62 sec

 Construction of ABS:
 Smallest eigenvalue of S          2.27E-04  (threshold= 1.00E-08)
 Ratio eigmin/eigmax               3.94E-05  (threshold= 1.00E-09)
 Smallest eigenvalue of S kept     2.27E-04  (threshold= 2.27E-04, 0 functions deleted, 730 kept)

 Construction of CABS:
 Smallest eigenvalue of S          9.56E-09  (threshold= 1.00E-08)
 Ratio eigmin/eigmax               9.56E-09  (threshold= 1.00E-09)
 Smallest eigenvalue of S kept     8.11E-08  (threshold= 8.11E-08, 1 functions deleted, 729 kept)

 CPU time for CABS singles                        1.25 sec

 CABS-singles contribution of  -0.00007872 patched into reference energy.
 New reference energy        -116.28030750

 AO(A)-basis ORBITAL           loaded. Number of functions:     734
 RI(R)-basis RI                loaded. Number of functions:     730
 DF-basis MP2FIT               loaded. Number of functions:    1246

 Screening thresholds:   THRAO=  1.00D-10  THRMO=  1.00D-09  THRPROD=  1.00D-09
                         THRSW=  1.00D-05  THROV=  1.00D-12  THRAOF12= 1.00D-10

 CPU time for 3-index integral evaluation        30.42 sec
 CPU time for first  half transformation          4.93 sec ( 5893.6 MFLOP/sec)
 CPU time for second half transformation          0.15 sec ( 1657.5 MFLOP/sec)
 CPU time for sorting                             0.42 sec
 CPU time for fitting                             0.38 sec (24415.4 MFLOP/sec)
 CPU time for tilde quantities                    0.53 sec (25988.5 MFLOP/sec)
 CPU time for assembly                            4.75 sec (26817.6 MFLOP/sec)
 CPU time for tranop_f12                          6.27 sec (26592.5 MFLOP/sec)
 CPU time for f12 integrals (total)              56.24 sec, Elapsed time:     61.31 sec
 F12-matrices built in  4 passes.
 F12-matrices built in  4 passes.
 F12-matrices built in  4 passes.
 F12-matrices built in  4 passes.
 FC-matrix built in  4 passes.
 CPU time for f12 matrices (total)                4.83 sec, Elapsed time:      5.04 sec

 Diagonal F12 approximation with fixed coefficients:  TSING= 0.500,  TTRIP= 0.250 (scaled by -1/beta)

 DF-MP2-F12 energy corrections:
 ==============================
 Approx.                                    Singlet             Triplet             Total
 DF-MP2-F12/3*C(DX,FIX)                -0.011195904711     -0.000787007047     -0.011982911757
 DF-MP2-F12/3*C(FIX)                   -0.010386658535     -0.000516387204     -0.010903045740
 DF-MP2-F12/3C(FIX)                    -0.010499194744     -0.000531970715     -0.011031165459

 DF-MP2-F12 correlation energies:
 ================================
 Approx.                                    Singlet             Triplet             Ecorr            Total Energy
 DF-MP2                                -0.350480616794     -0.159780100310     -0.510260717104   -116.790568213412
 DF-MP2-F12/3*C(DX,FIX)                -0.361676521505     -0.160567107357     -0.522243628862   -116.802551125169
 DF-MP2-F12/3*C(FIX)                   -0.360867275330     -0.160296487515     -0.521163762844   -116.801471259151
 DF-MP2-F12/3C(FIX)                    -0.360979811538     -0.160312071025     -0.521291882563   -116.801599378870

 SCS-DF-MP2 energies (F_SING= 1.20000  F_TRIP= 0.62222  F_PARALLEL= 0.33333):
 ============================================================================
 SCS-DF-MP2                            -0.519995469235   -116.800302965542
 SCS-DF-MP2-F12/3*C(DX,FIX)            -0.533920248161   -116.814227744468
 SCS-DF-MP2-F12/3*C(FIX)               -0.532780767071   -116.813088263378
 SCS-DF-MP2-F12/3C(FIX)                -0.532925506928   -116.813233003235
 Symmetry transformation completed.

 Number of N-1 electron functions:               8
 Number of N-2 electron functions:              36
 Number of singly external CSFs:              5792
 Number of doubly external CSFs:          16776528
 Total number of CSFs:                    16782321

 Pair and operator lists are different

 Length of J-op  integral file:               1.47 GB
 Length of K-op  integral file:               2.18 GB
 Length of 3-ext integral record:             0.00 MB

 For full I/O caching in triples, increase memory by 34.16 Mwords to 4034.21 Mwords.

 Integral transformation finished. Total CPU:1169.34 sec, npass=  1  Memory used:1826.21 MW

 Reference energy:                   -116.28030750

 Adding F12 terms to K(Cij), methodcc=6,  factor= 1.0

 ITER.      SQ.NORM     CORR.ENERGY   TOTAL ENERGY   ENERGY CHANGE        DEN1      VAR(S)    VAR(P)  DIIS     TIME  TIME/IT
   1      1.13459464    -0.52222753  -116.80253503    -0.01195401     0.00003133  0.14D-02  0.20D-02  1  1  1603.87   372.24
   2      1.14290363    -0.52328100  -116.80358849    -0.00105347    -0.01025939  0.33D-04  0.25D-03  2  2  1975.18   381.31
   3      1.14616882    -0.52344793  -116.80375543    -0.00016694    -0.00235868  0.12D-04  0.14D-04  3  3  2354.76   387.07
   4      1.14714016    -0.52345286  -116.80376036    -0.00000493    -0.00053592  0.68D-06  0.13D-05  4  4  2727.41   388.37
   5      1.14731160    -0.52345470  -116.80376220    -0.00000184    -0.00004301  0.21D-06  0.96D-07  5  5  3103.97   390.05
   6      1.14735833    -0.52345195  -116.80375945     0.00000275    -0.00000825  0.23D-07  0.85D-08  6  6  3473.47   389.88
   7      1.14736932    -0.52345072  -116.80375822     0.00000123    -0.00000273  0.25D-08  0.11D-08  6  2  3842.22   389.65
   8      1.14737220    -0.52345047  -116.80375796     0.00000026    -0.00000045  0.38D-09  0.12D-09  6  1  4214.45   389.92
   9      1.14737309    -0.52345043  -116.80375793     0.00000003    -0.00000000  0.38D-10  0.19D-10  6  3  4616.17   393.58
  10      1.14737327    -0.52345043  -116.80375793    -0.00000000     0.00000007  0.41D-11  0.26D-11  6  4  4978.20   392.47
  11      1.14737324    -0.52345044  -116.80375794    -0.00000001     0.00000009  0.67D-12  0.33D-12  6  5  5341.93   391.77
  12      1.14737322    -0.52345044  -116.80375794    -0.00000000     0.00000002  0.13D-12  0.47D-13  6  6  5700.67   390.65
  13      1.14737320    -0.52345045  -116.80375794    -0.00000000     0.00000001  0.24D-13  0.67D-14  6  2  6094.72   392.52
  14      1.14737320    -0.52345045  -116.80375794    -0.00000000     0.00000000  0.39D-14  0.15D-14  6  1  6475.96   393.14
  15      1.14737320    -0.52345045  -116.80375794    -0.00000000    -0.00000000  0.51D-15  0.25D-15  6  3  6827.88   391.72
  16      1.14737320    -0.52345045  -116.80375794    -0.00000000    -0.00000000  0.91D-16  0.36D-16  6  4  7186.82   390.90
  17      1.14737320    -0.52345045  -116.80375794     0.00000000    -0.00000000  0.27D-16  0.78D-17  6  5  7554.32   390.68

 Norm of t1 vector:      0.04999017      S-energy:    -0.00000000      T1 diagnostic:  0.00883710
                                                                       D1 diagnostic:  0.01946706

 Adding energy correction from Wij-K(Fij), methodcc=6  factor= 1.0

  CCSD correlation energy              -0.523450446637
  MP2-F12 correction (uncoupled)       -0.010850625844
  C*T doubles correction               -0.000161071969
  f12b correction                       0.002685785164

   CPU time for triples:   2131.77 sec for i =  1 -  6 /  8 (~  44.6 % done)
   CPU time for triples:   2665.48 sec for i =  7 -  8 /  8 (  100.0 % done)

 Total CPU time for triples:   4951.18 sec

  Ecorr(MP2)                           -0.510273524400
  Ecorr(MP2-F12)                       -0.521304689859
  Scale factor for triples energy       1.021618141901


 RESULTS
 =======

  Reference energy                   -116.280228771856
  F12 singles correction               -0.000078724451

 F12 singles corrections added to reference energy

  New reference energy               -116.280307496307

  F12a singlet correction              -0.010439296855
  F12a triplet correction              -0.000572400959
  F12a total correction                -0.011011697813

 F12a corrections for ansatz F12/3C(FIX) added to CCSD energy

  CCSD-F12a singlet pair energy        -0.387871866075
  CCSD-F12a triplet pair energy        -0.146590278016
  CCSD-F12a correlation energy         -0.534462144450

  Triples (T) contribution (scaled)    -0.017359202207
  Total correlation energy             -0.551821346658

  CCSD-F12a total energy             -116.814769640758
  CCSD[T]-F12a energy                -116.832690801958
  CCSD-T-F12a energy                 -116.831916724803
 !CCSD(T)-F12a total energy          -116.832128842965

 F12b corrections for ansatz F12/3C(FIX) added to CCSD(T)-F12a energy

  CCSD-F12b singlet pair energy        -0.385278888232
  CCSD-F12b triplet pair energy        -0.146497470695
  CCSD-F12b correlation energy         -0.531776359286

  Triples (T) contribution (scaled)    -0.017359202207
  Total correlation energy             -0.549135561494

  CCSD-F12b total energy             -116.812083855593
  CCSD[T]-F12b energy                -116.830005016794
  CCSD-T-F12b energy                 -116.829230939639
 !CCSD(T)-F12b total energy          -116.829443057801

 Timing summary (sec):

 STEP                 CPU(USER)    SYS     CPU(TOT)    WALL
 Transformation       1171.02     52.69   1223.71   1227.71
 CCSD iterations      6306.19    334.29   6640.48   6642.13
 Triples              4951.18     34.89   4986.07   4986.51
 MP2-F12                77.33      5.71     83.04     84.11
 F12b energy           330.54     16.32    346.86    346.95

 Program statistics:

 Available memory in ccsd:              3999999554
 Min. memory needed in ccsd:              48689265
 Max. memory used in ccsd:                63255345
 Max. memory used in cckext:              42753482 (18 integral passes)



 **********************************************************************************************************************************
 DATASETS  * FILE   NREC   LENGTH (MB)   RECORD NAMES
              1      19    12452.16       500      610      700      900      950      970     1000      129      960     1100   
                                          VAR    BASINP    GEOM    SYMINP    ZMAT    AOBASIS   BASIS     P2S    ABASIS      S 
                                         1400     1410     1200     1210     1080     1600     1650     1700     1380   
                                           T        V       H0       H01     AOSYM     SMH    MOLCAS    OPER     JKOP   

              2       6       24.60       700     1000      520     2100     7360     7350   
                                         GEOM     BASIS   MCVARS     RHF    F12ABS    EF12   

 PROGRAMS   *        TOTAL   CCSD(T)    HF-SCF       INT
 CPU TIMES  *     17031.38  12836.46   2300.46   1894.20
 REAL TIME  *     18558.04 SEC
 DISK USED  *        14.29 GB (local),      555.67 GB (total)
 SF USED    *        17.68 GB
 GA USED    *         4.87 MB       (max)       0.00 MB       (current)
 **********************************************************************************************************************************

 Running procedure: SET_MONOMER1

 Dummy atoms: C1  H41  H42  H43  H44


 Recomputing one-electron integrals since nuclear charges changed


 PROGRAM * SEWARD (Integral evaluation for generally contracted gaussian basis sets)     Author: Roland Lindh, 1990

 Geometry written to block  1 of record 700


 Point group  C1  



 ATOMIC COORDINATES

 NR  ATOM    CHARGE       X              Y              Z

   1  O20     8.00  -12.400004884    5.677493169    4.606774346
   2  H39     1.00  -12.146781583    3.932709038    5.214888213
   3  H40     1.00  -11.104030708    6.694165824    5.446946581
   4  C1      0.00   -6.193010455    2.801518980    2.403542658
   5  H41     0.00   -4.656285171    1.699997622    3.119937832
   6  H42     0.00   -5.973046335    4.726205038    2.982932688
   7  H43     0.00   -7.940251230    2.077186956    3.118237078
   8  H44     0.00   -6.176569838    2.685300823    0.384937212

 Bond lengths in Bohr (Angstrom)

 1-2  1.864992273  1-3  1.849070506  4-5  2.021904040  4-6  2.022002335  4-7  2.021953343
     ( 0.986911409)     ( 0.978485973)     ( 1.069945541)     ( 1.069997556)     ( 1.069971630)

 4-8  2.022015060
     ( 1.070004290)

 Bond angles

  2-1-3  105.72790617   5-4-6  109.53398059   5-4-7  109.65604535   5-4-8  108.43490854

  6-4-7  109.49436728   6-4-8  109.86987750   7-4-8  109.83468330

 NUCLEAR CHARGE:                   10
 NUMBER OF PRIMITIVE AOS:        1046
 NUMBER OF SYMMETRY AOS:          786
 NUMBER OF CONTRACTIONS:          734   (  734A   )
 NUMBER OF CORE ORBITALS:           1   (    1A   )
 NUMBER OF VALENCE ORBITALS:        6   (    6A   )

 MOLECULE CHANGED: INITIALIZING OCCUPATION AND DUMP RECORDS


 NUCLEAR REPULSION ENERGY    8.95379726

 Basis set:  JKFIT                   
 Basis size:  1104
 Attributes:
 Sphericals:   T
 Basis set:  MP2FIT                  
 Basis size:  1246
 Attributes:
 Sphericals:   T
 Basis set:  RI                      
 Basis size:   730
 Attributes:
 Sphericals:   T
 Basis set:  TDDFT                   
 Basis size:  1246
 Attributes:
 Sphericals:   T

 Eigenvalues of metric

         1 0.192E-05 0.274E-05 0.348E-05 0.441E-05 0.516E-05 0.694E-05 0.800E-05 0.929E-05


 Contracted 2-electron integrals neglected if value below      1.0D-14

 OPERATOR DM      FOR CENTER  0  COORDINATES:    0.000000    0.000000    0.000000


 **********************************************************************************************************************************
 DATASETS  * FILE   NREC   LENGTH (MB)   RECORD NAMES
              1      18       49.80       500      610      700      900      950      970     1000      129      960     1100   
                                          VAR    BASINP    GEOM    SYMINP    ZMAT    AOBASIS   BASIS     P2S    ABASIS      S 
                                         1400     1410     1200     1210     1080     1600     1650     1700   
                                           T        V       H0       H01     AOSYM     SMH    MOLCAS    OPER   

              2       7       24.63       700     1000      520     2100     7360     7350      200   
                                         GEOM     BASIS   MCVARS     RHF    F12ABS    EF12    OPTIONS    

 PROGRAMS   *        TOTAL       INT   CCSD(T)    HF-SCF       INT
 CPU TIMES  *     17031.98      0.59  12836.46   2300.46   1894.20
 REAL TIME  *     18561.43 SEC
 DISK USED  *        14.29 GB (local),      555.67 GB (total)
 SF USED    *        17.68 GB
 GA USED    *         4.87 MB       (max)       0.00 MB       (current)
 **********************************************************************************************************************************


 PROGRAM * RHF-SCF (CLOSED SHELL)       Authors: W. Meyer, H.-J. Werner


 NUMBER OF ELECTRONS:       5+    5-    SPACE SYMMETRY=1    SPIN SYMMETRY: Singlet 
 CONVERGENCE THRESHOLDS:    1.00E-08 (Density)    1.00E-11 (Energy)
 MAX. NUMBER OF ITERATIONS:       60
 INTERPOLATION TYPE:            DIIS
 INTERPOLATION STEPS:              2 (START)      1 (STEP)
 LEVEL SHIFTS:                  0.00 (CLOSED)  0.00 (OPEN) 



 Orbital guess generated from atomic densities. Full valence occupancy:    7

 Molecular orbital dump at record        2101.2

 Initial occupancy:   5

 ITERATION    DDIFF          GRAD             ENERGY        2-EL.EN.            DIPOLE MOMENTS         DIIS   ORB.
    1      0.000D+00      0.000D+00       -76.02555641     77.357813    0.79421   -0.37643    0.74321    0    start
    2      0.000D+00      0.360D-02       -76.05231698     73.682447    0.46038   -0.21533    0.43016    1    diag
    3      0.130D-02      0.230D-02       -76.06404223     75.318330    0.54389   -0.25502    0.50833    2    diag
    4      0.495D-03      0.215D-03       -76.06423995     75.226492    0.54053   -0.25286    0.50506    3    diag
    5      0.625D-04      0.609D-04       -76.06426164     75.241140    0.53928   -0.25204    0.50384    4    diag
    6      0.202D-04      0.123D-04       -76.06426309     75.240024    0.53899   -0.25182    0.50355    5    diag
    7      0.541D-05      0.252D-05       -76.06426317     75.240172    0.53890   -0.25175    0.50346    6    diag
    8      0.149D-05      0.476D-06       -76.06426317     75.240159    0.53887   -0.25174    0.50343    7    diag
    9      0.311D-06      0.661D-07       -76.06426317     75.240150    0.53887   -0.25173    0.50343    8    diag
   10      0.398D-07      0.149D-07       -76.06426317     75.240153    0.53887   -0.25173    0.50343    9    orth
   11      0.813D-08      0.259D-08       -76.06426317     75.240152    0.53887   -0.25173    0.50343    0    orth

 Final occupancy:   5

 !RHF STATE  1.1 Energy               -76.064263168080
 Nuclear energy                         8.95379726
 One-electron energy                 -122.63813648
 Two-electron energy                   37.62007605
 Virial quotient                       -1.00214828
 !RHF STATE  1.1 Dipole moment          0.53886730    -0.25173464     0.50342580
 Dipole moment /Debye                   1.36957436    -0.63980372     1.27949694

 Orbital energies:

         1.1          2.1          3.1          4.1          5.1          6.1          7.1
    -20.567830    -1.339048    -0.706261    -0.577739    -0.508113     0.015304     0.032212


 HOMO      5.1    -0.508113 =     -13.8265eV
 LUMO      6.1     0.015304 =       0.4165eV
 LUMO-HOMO         0.523418 =      14.2429eV


 **********************************************************************************************************************************
 DATASETS  * FILE   NREC   LENGTH (MB)   RECORD NAMES
              1      18       49.80       500      610      700      900      950      970     1000      129      960     1100   
                                          VAR    BASINP    GEOM    SYMINP    ZMAT    AOBASIS   BASIS     P2S    ABASIS      S 
                                         1400     1410     1200     1210     1080     1600     1650     1700   
                                           T        V       H0       H01     AOSYM     SMH    MOLCAS    OPER   

              2       8       38.40       700     1000      520     2100     7360     7350      200     2101   
                                         GEOM     BASIS   MCVARS     RHF    F12ABS    EF12    OPTIONS    RHF  

 PROGRAMS   *        TOTAL    HF-SCF       INT   CCSD(T)    HF-SCF       INT
 CPU TIMES  *     19063.63   2031.65      0.59  12836.46   2300.46   1894.20
 REAL TIME  *     20780.58 SEC
 DISK USED  *        14.29 GB (local),      555.67 GB (total)
 SF USED    *        17.68 GB
 GA USED    *         4.87 MB       (max)       0.00 MB       (current)
 **********************************************************************************************************************************

 Basis set:  JKFIT                   
 Basis size:  1104
 Attributes:
 Sphericals:   T
 Basis set:  MP2FIT                  
 Basis size:  1246
 Attributes:
 Sphericals:   T
 Basis set:  RI                      
 Basis size:   730
 Attributes:
 Sphericals:   T
 Basis set:  TDDFT                   
 Basis size:  1246
 Attributes:
 Sphericals:   T

 PROGRAM * CCSD (Closed-shell coupled cluster)     Authors: C. Hampel, H.-J. Werner, 1991, M. Deegan, P.J. Knowles, 1992

                                  CCSD-F12 implementation by  H.-J. Werner, 2007

                   Density fitting integral evaluation by F.R. Manby, 2003,2007, G. Knizia, 2010



 Convergence thresholds:  THRVAR = 1.00D-08  THRDEN = 1.00D-10

 CCSD(T)     terms to be evaluated (factor= 1.000)


 Number of core orbitals:           1 (   1 )
 Number of closed-shell orbitals:   4 (   4 )
 Number of external orbitals:     729 ( 729 )

 Molecular orbitals read from record     2101.2  Type=RHF/CANONICAL (state 1.1)

 MP2-F12 correlation treatment (H.-J. Werner, 2006)
 ==================================================

 Using MP2-F12 with ansatz 3C(FIX)

 Using projected zeroth-order Hamiltonian (+Z)

 FOCKRIB=T FOCKRIC=T FOCKRIP=T CABSP=T CABSA=T CABSK=T CABSF=T GBC=F EBC=F DMAT=T NOFIK=T NOPAO=1 SOLVE=-1  USEPAO=0
 EXCH_A= T EXCH_B= F EXCH_C= F EXCH_P= F

 Geminal basis:    OPTFULL  GEM_TYPE=SLATER  BETA=1.0  NGEM=6

 Optimizing Gaussian exponents for each gem_beta

 Geminal optimization for beta= 1.0000
 Weight function:   m=0, omega= 1.4646

 Augmented Hessian optimization of geminal fit. Trust ratio= 0.40000
 Convergence reached after   2 iterations. Final gradient= 8.53D-16, Step= 4.26D-06, Delta= 1.28D-09

 Alpha:                 0.19532     0.81920     2.85917     9.50073    35.69989   197.79328
 Coeff:                 0.27070     0.30552     0.18297     0.10986     0.06810     0.04224


 All pairs explicitly correlated. Number of r12-pairs:           10

 Excluding core orbitals from MO domains

 AO(A)-basis ORBITAL           loaded. Number of functions:     734
 RI(R)-basis RI                loaded. Number of functions:     730
 DF-basis JKFIT                loaded. Number of functions:    1104

 Screening thresholds:   THRAO=  1.00D-10  THRMO=  1.00D-09  THRPROD=  1.00D-09
                         THRSW=  1.00D-05  THROV=  1.00D-12  THRAOF12= 1.00D-10

 CPU time for Fock operators                      9.65 sec

 Construction of ABS:
 Smallest eigenvalue of S          2.27E-04  (threshold= 1.00E-08)
 Ratio eigmin/eigmax               3.94E-05  (threshold= 1.00E-09)
 Smallest eigenvalue of S kept     2.27E-04  (threshold= 2.27E-04, 0 functions deleted, 730 kept)

 Construction of CABS:
 Smallest eigenvalue of S          9.56E-09  (threshold= 1.00E-08)
 Ratio eigmin/eigmax               9.56E-09  (threshold= 1.00E-09)
 Smallest eigenvalue of S kept     8.11E-08  (threshold= 8.11E-08, 1 functions deleted, 729 kept)

 CPU time for CABS singles                        1.32 sec

 CABS-singles contribution of  -0.00003790 patched into reference energy.
 New reference energy         -76.06430107

 AO(A)-basis ORBITAL           loaded. Number of functions:     734
 RI(R)-basis RI                loaded. Number of functions:     730
 DF-basis MP2FIT               loaded. Number of functions:    1246

 Screening thresholds:   THRAO=  1.00D-10  THRMO=  1.00D-09  THRPROD=  1.00D-09
                         THRSW=  1.00D-05  THROV=  1.00D-12  THRAOF12= 1.00D-10

 CPU time for 3-index integral evaluation        30.34 sec
 CPU time for first  half transformation          3.84 sec ( 3870.2 MFLOP/sec)
 CPU time for second half transformation          0.05 sec ( 1255.4 MFLOP/sec)
 CPU time for sorting                             0.17 sec
 CPU time for fitting                             0.39 sec ( 5891.6 MFLOP/sec)
 CPU time for tilde quantities                    0.49 sec (18706.2 MFLOP/sec)
 CPU time for assembly                            1.47 sec (24606.0 MFLOP/sec)
 CPU time for tranop_f12                          1.78 sec (19991.9 MFLOP/sec)
 CPU time for f12 integrals (total)              41.31 sec, Elapsed time:     43.50 sec
 F12-matrices built in  4 passes.
 F12-matrices built in  4 passes.
 F12-matrices built in  4 passes.
 F12-matrices built in  4 passes.
 FC-matrix built in  4 passes.
 CPU time for f12 matrices (total)                1.43 sec, Elapsed time:      1.48 sec

 Diagonal F12 approximation with fixed coefficients:  TSING= 0.500,  TTRIP= 0.250 (scaled by -1/beta)

 DF-MP2-F12 energy corrections:
 ==============================
 Approx.                                    Singlet             Triplet             Total
 DF-MP2-F12/3*C(DX,FIX)                -0.007258072707     -0.000572135758     -0.007830208465
 DF-MP2-F12/3*C(FIX)                   -0.006612091778     -0.000353222535     -0.006965314314
 DF-MP2-F12/3C(FIX)                    -0.006677533917     -0.000365415704     -0.007042949622

 DF-MP2-F12 correlation energies:
 ================================
 Approx.                                    Singlet             Triplet             Ecorr            Total Energy
 DF-MP2                                -0.192385338478     -0.102385733664     -0.294771072143    -76.359072137434
 DF-MP2-F12/3*C(DX,FIX)                -0.199643411185     -0.102957869423     -0.302601280608    -76.366902345899
 DF-MP2-F12/3*C(FIX)                   -0.198997430256     -0.102738956200     -0.301736386456    -76.366037451748
 DF-MP2-F12/3C(FIX)                    -0.199062872396     -0.102751149369     -0.301814021765    -76.366115087056

 SCS-DF-MP2 energies (F_SING= 1.20000  F_TRIP= 0.62222  F_PARALLEL= 0.33333):
 ============================================================================
 SCS-DF-MP2                            -0.294569084898    -76.358870150190
 SCS-DF-MP2-F12/3*C(DX,FIX)            -0.303634767729    -76.367935833021
 SCS-DF-MP2-F12/3*C(FIX)               -0.302723377943    -76.367024443235
 SCS-DF-MP2-F12/3C(FIX)                -0.302809495371    -76.367110560663
 Symmetry transformation completed.

 Number of N-1 electron functions:               4
 Number of N-2 electron functions:              10
 Number of singly external CSFs:              2916
 Number of doubly external CSFs:           4252986
 Total number of CSFs:                     4255903

 Pair and operator lists are different

 Length of J-op  integral file:             411.24 MB
 Length of K-op  integral file:             721.80 MB
 Length of 3-ext integral record:             0.00 MB

 Memory could be reduced to 2535.14 Mwords without degradation in triples

 Integral transformation finished. Total CPU: 658.36 sec, npass=  1  Memory used:1009.99 MW

 Reference energy:                    -76.06430107

 Adding F12 terms to K(Cij), methodcc=6,  factor= 1.0

 ITER.      SQ.NORM     CORR.ENERGY   TOTAL ENERGY   ENERGY CHANGE        DEN1      VAR(S)    VAR(P)  DIIS     TIME  TIME/IT
   1      1.06394862    -0.29316763   -76.35746870     0.00160964     0.00772432  0.80D-03  0.11D-02  1  1   899.29   200.21
   2      1.06752013    -0.29326338   -76.35756445    -0.00009575    -0.00502116  0.16D-04  0.12D-03  2  2  1102.27   210.32
   3      1.06888273    -0.29335831   -76.35765938    -0.00009493    -0.00096175  0.84D-05  0.74D-05  3  3  1321.84   219.34
   4      1.06940714    -0.29336405   -76.35766511    -0.00000573    -0.00028496  0.54D-06  0.76D-06  4  4  1538.65   223.28
   5      1.06951381    -0.29336280   -76.35766387     0.00000124    -0.00003167  0.17D-06  0.58D-07  5  5  1741.40   222.65
   6      1.06954884    -0.29336055   -76.35766162     0.00000225    -0.00000597  0.20D-07  0.49D-08  6  6  1929.73   219.79
   7      1.06955751    -0.29335998   -76.35766105     0.00000057    -0.00000137  0.18D-08  0.90D-09  6  2  2112.43   216.95
   8      1.06955959    -0.29335985   -76.35766091     0.00000013    -0.00000010  0.26D-09  0.98D-10  6  1  2299.52   215.38
   9      1.06956007    -0.29335984   -76.35766090     0.00000001     0.00000010  0.50D-10  0.24D-10  6  2  2484.93   213.94
  10      1.06956043    -0.29335981   -76.35766088     0.00000002    -0.00000002  0.29D-11  0.15D-11  6  3  2670.59   212.78
  11      1.06956043    -0.29335981   -76.35766088    -0.00000000     0.00000004  0.54D-12  0.21D-12  6  4  2855.06   211.73
  12      1.06956043    -0.29335981   -76.35766088    -0.00000000     0.00000000  0.11D-12  0.29D-13  6  5  3037.10   210.67
  13      1.06956043    -0.29335981   -76.35766088    -0.00000000     0.00000000  0.18D-13  0.46D-14  6  6  3217.93   209.69
  14      1.06956043    -0.29335982   -76.35766088    -0.00000000     0.00000000  0.27D-14  0.11D-14  6  1  3397.65   208.74
  15      1.06956043    -0.29335982   -76.35766088    -0.00000000     0.00000000  0.35D-15  0.17D-15  6  2  3583.01   208.30
  16      1.06956042    -0.29335982   -76.35766088    -0.00000000     0.00000000  0.32D-16  0.20D-16  6  3  3775.66   208.35

 Norm of t1 vector:      0.03699248      S-energy:    -0.00000000      T1 diagnostic:  0.00924812
                                                                       D1 diagnostic:  0.01886064

 Adding energy correction from Wij-K(Fij), methodcc=6  factor= 1.0

  CCSD correlation energy              -0.293359815419
  MP2-F12 correction (uncoupled)       -0.006960717517
  C*T doubles correction               -0.000091405502
  f12b correction                       0.001583343889


 Total CPU time for triples:    678.88 sec

  Ecorr(MP2)                           -0.294777276700
  Ecorr(MP2-F12)                       -0.301820226322
  Scale factor for triples energy       1.023892444156


 RESULTS
 =======

  Reference energy                    -76.064263168083
  F12 singles correction               -0.000037897209

 F12 singles corrections added to reference energy

  New reference energy                -76.064301065291

  F12a singlet correction              -0.006653289599
  F12a triplet correction              -0.000398833421
  F12a total correction                -0.007052123019

 F12a corrections for ansatz F12/3C(FIX) added to CCSD energy

  CCSD-F12a singlet pair energy        -0.209604347479
  CCSD-F12a triplet pair energy        -0.090807590371
  CCSD-F12a correlation energy         -0.300411938438

  Triples (T) contribution (scaled)    -0.010093156189
  Total correlation energy             -0.310505094627

  CCSD-F12a total energy              -76.364713003730
  CCSD[T]-F12a energy                 -76.375127533056
  CCSD-T-F12a energy                  -76.374665130647
 !CCSD(T)-F12a total energy           -76.374806159919

 F12b corrections for ansatz F12/3C(FIX) added to CCSD(T)-F12a energy

  CCSD-F12b singlet pair energy        -0.208084309471
  CCSD-F12b triplet pair energy        -0.090744284491
  CCSD-F12b correlation energy         -0.298828594549

  Triples (T) contribution (scaled)    -0.010093156189
  Total correlation energy             -0.308921750738

  CCSD-F12b total energy              -76.363129659841
  CCSD[T]-F12b energy                 -76.373544189167
  CCSD-T-F12b energy                  -76.373081786759
 !CCSD(T)-F12b total energy           -76.373222816030

 Timing summary (sec):

 STEP                 CPU(USER)    SYS     CPU(TOT)    WALL
 Transformation        658.88     27.46    686.34    687.06
 CCSD iterations      3060.93    272.38   3333.31   3334.05
 Triples               678.88      6.35    685.23    685.44
 MP2-F12                56.03      2.71     58.74     59.03
 F12b energy           185.47     15.71    201.18    201.22

 Program statistics:

 Available memory in ccsd:              3999999871
 Min. memory needed in ccsd:              19260852
 Max. memory used in ccsd:                22423154
 Max. memory used in cckext:              14628952 (17 integral passes)



 **********************************************************************************************************************************
 DATASETS  * FILE   NREC   LENGTH (MB)   RECORD NAMES
              1      19     6330.34       500      610      700      900      950      970     1000      129      960     1100   
                                          VAR    BASINP    GEOM    SYMINP    ZMAT    AOBASIS   BASIS     P2S    ABASIS      S 
                                         1400     1410     1200     1210     1080     1600     1650     1700     1380   
                                           T        V       H0       H01     AOSYM     SMH    MOLCAS    OPER     JKOP   

              2       8       38.40       700     1000      520     2100     7360     7350      200     2101   
                                         GEOM     BASIS   MCVARS     RHF    F12ABS    EF12    OPTIONS    RHF  

 PROGRAMS   *        TOTAL   CCSD(T)    HF-SCF       INT   CCSD(T)    HF-SCF       INT
 CPU TIMES  *     23703.98   4640.34   2031.65      0.59  12836.46   2300.46   1894.20
 REAL TIME  *     25749.02 SEC
 DISK USED  *        14.29 GB (local),      555.67 GB (total)
 SF USED    *        17.68 GB
 GA USED    *         4.87 MB       (max)       0.00 MB       (current)
 **********************************************************************************************************************************

 Running procedure: SET_MONOMER2

 Dummy atoms: O20  H39  H40


 Recomputing one-electron integrals since nuclear charges changed


 PROGRAM * SEWARD (Integral evaluation for generally contracted gaussian basis sets)     Author: Roland Lindh, 1990

 Geometry written to block  1 of record 700


 Point group  C1  



 ATOMIC COORDINATES

 NR  ATOM    CHARGE       X              Y              Z

   1  O20     0.00  -12.400004884    5.677493169    4.606774346
   2  H39     0.00  -12.146781583    3.932709038    5.214888213
   3  H40     0.00  -11.104030708    6.694165824    5.446946581
   4  C1      6.00   -6.193010455    2.801518980    2.403542658
   5  H41     1.00   -4.656285171    1.699997622    3.119937832
   6  H42     1.00   -5.973046335    4.726205038    2.982932688
   7  H43     1.00   -7.940251230    2.077186956    3.118237078
   8  H44     1.00   -6.176569838    2.685300823    0.384937212

 Bond lengths in Bohr (Angstrom)

 1-2  1.864992273  1-3  1.849070506  4-5  2.021904040  4-6  2.022002335  4-7  2.021953343
     ( 0.986911409)     ( 0.978485973)     ( 1.069945541)     ( 1.069997556)     ( 1.069971630)

 4-8  2.022015060
     ( 1.070004290)

 Bond angles

  2-1-3  105.72790617   5-4-6  109.53398059   5-4-7  109.65604535   5-4-8  108.43490854

  6-4-7  109.49436728   6-4-8  109.86987750   7-4-8  109.83468330

 NUCLEAR CHARGE:                   10
 NUMBER OF PRIMITIVE AOS:        1046
 NUMBER OF SYMMETRY AOS:          786
 NUMBER OF CONTRACTIONS:          734   (  734A   )
 NUMBER OF CORE ORBITALS:           1   (    1A   )
 NUMBER OF VALENCE ORBITALS:        8   (    8A   )

 MOLECULE CHANGED: INITIALIZING OCCUPATION AND DUMP RECORDS


 NUCLEAR REPULSION ENERGY   13.68681606

 Basis set:  JKFIT                   
 Basis size:  1104
 Attributes:
 Sphericals:   T
 Basis set:  MP2FIT                  
 Basis size:  1246
 Attributes:
 Sphericals:   T
 Basis set:  RI                      
 Basis size:   730
 Attributes:
 Sphericals:   T
 Basis set:  TDDFT                   
 Basis size:  1246
 Attributes:
 Sphericals:   T

 Eigenvalues of metric

         1 0.192E-05 0.274E-05 0.348E-05 0.441E-05 0.516E-05 0.694E-05 0.800E-05 0.929E-05


 Contracted 2-electron integrals neglected if value below      1.0D-14

 OPERATOR DM      FOR CENTER  0  COORDINATES:    0.000000    0.000000    0.000000


 **********************************************************************************************************************************
 DATASETS  * FILE   NREC   LENGTH (MB)   RECORD NAMES
              1      18       49.80       500      610      700      900      950      970     1000      129      960     1100   
                                          VAR    BASINP    GEOM    SYMINP    ZMAT    AOBASIS   BASIS     P2S    ABASIS      S 
                                         1400     1410     1200     1210     1080     1600     1650     1700   
                                           T        V       H0       H01     AOSYM     SMH    MOLCAS    OPER   

              2       8       38.40       700     1000      520     2100     7360     7350      200     2101   
                                         GEOM     BASIS   MCVARS     RHF    F12ABS    EF12    OPTIONS    RHF  

 PROGRAMS   *        TOTAL       INT   CCSD(T)    HF-SCF       INT   CCSD(T)    HF-SCF       INT
 CPU TIMES  *     23704.55      0.57   4640.34   2031.65      0.59  12836.46   2300.46   1894.20
 REAL TIME  *     25750.84 SEC
 DISK USED  *        14.29 GB (local),      555.67 GB (total)
 SF USED    *        17.68 GB
 GA USED    *         4.87 MB       (max)       0.00 MB       (current)
 **********************************************************************************************************************************


 PROGRAM * RHF-SCF (CLOSED SHELL)       Authors: W. Meyer, H.-J. Werner


 NUMBER OF ELECTRONS:       5+    5-    SPACE SYMMETRY=1    SPIN SYMMETRY: Singlet 
 CONVERGENCE THRESHOLDS:    1.00E-08 (Density)    1.00E-11 (Energy)
 MAX. NUMBER OF ITERATIONS:       60
 INTERPOLATION TYPE:            DIIS
 INTERPOLATION STEPS:              2 (START)      1 (STEP)
 LEVEL SHIFTS:                  0.00 (CLOSED)  0.00 (OPEN) 



 Orbital guess generated from atomic densities. Full valence occupancy:    9

 Molecular orbital dump at record        2102.2

 Initial occupancy:   5

 ITERATION    DDIFF          GRAD             ENERGY        2-EL.EN.            DIPOLE MOMENTS         DIIS   ORB.
    1      0.000D+00      0.000D+00       -40.19676539     53.509904    0.00411   -0.00276   -0.00131    0    start
    2      0.000D+00      0.198D-02       -40.21405759     52.218480    0.00129   -0.00087   -0.00039    1    diag
    3      0.949D-03      0.769D-03       -40.21634102     52.673987    0.00182   -0.00123   -0.00056    2    diag
    4      0.260D-03      0.192D-03       -40.21666135     52.619250    0.00162   -0.00110   -0.00049    3    diag
    5      0.102D-03      0.248D-04       -40.21666683     52.621408    0.00159   -0.00108   -0.00048    4    diag
    6      0.353D-04      0.204D-05       -40.21666687     52.621536    0.00159   -0.00108   -0.00048    5    diag
    7      0.608D-05      0.166D-06       -40.21666687     52.621498    0.00159   -0.00108   -0.00048    6    diag
    8      0.343D-06      0.136D-07       -40.21666687     52.621499    0.00159   -0.00108   -0.00048    7    diag
    9      0.572D-07      0.167D-08       -40.21666687     52.621499    0.00159   -0.00108   -0.00048    8    diag
   10      0.105D-07      0.465D-09       -40.21666687     52.621499    0.00159   -0.00108   -0.00048    9    orth
   11      0.110D-08      0.667D-10       -40.21666687     52.621499    0.00159   -0.00108   -0.00048    0    orth

 Final occupancy:   5

 !RHF STATE  1.1 Energy               -40.216666873674
 Nuclear energy                        13.68681606
 One-electron energy                  -80.21423228
 Two-electron energy                   26.31074935
 Virial quotient                       -0.99832814
 !RHF STATE  1.1 Dipole moment          0.00158922    -0.00107927    -0.00047771
 Dipole moment /Debye                   0.00403914    -0.00274306    -0.00121413

 Orbital energies:

         1.1          2.1          3.1          4.1          5.1          6.1          7.1
    -11.196017    -0.950605    -0.551931    -0.549996    -0.547818     0.021669     0.033801


 HOMO      5.1    -0.547818 =     -14.9069eV
 LUMO      6.1     0.021669 =       0.5897eV
 LUMO-HOMO         0.569487 =      15.4965eV


 **********************************************************************************************************************************
 DATASETS  * FILE   NREC   LENGTH (MB)   RECORD NAMES
              1      18       49.80       500      610      700      900      950      970     1000      129      960     1100   
                                          VAR    BASINP    GEOM    SYMINP    ZMAT    AOBASIS   BASIS     P2S    ABASIS      S 
                                         1400     1410     1200     1210     1080     1600     1650     1700   
                                           T        V       H0       H01     AOSYM     SMH    MOLCAS    OPER   

              2       9       62.49       700     1000      520     2100     7360     7350      200     2101     2102   
                                         GEOM     BASIS   MCVARS     RHF    F12ABS    EF12    OPTIONS    RHF      RHF  

 PROGRAMS   *        TOTAL    HF-SCF       INT   CCSD(T)    HF-SCF       INT   CCSD(T)    HF-SCF       INT
 CPU TIMES  *     25698.19   1993.64      0.57   4640.34   2031.65      0.59  12836.46   2300.46   1894.20
 REAL TIME  *     27931.78 SEC
 DISK USED  *        14.29 GB (local),      555.67 GB (total)
 SF USED    *        17.68 GB
 GA USED    *         4.87 MB       (max)       0.00 MB       (current)
 **********************************************************************************************************************************

 Basis set:  JKFIT                   
 Basis size:  1104
 Attributes:
 Sphericals:   T
 Basis set:  MP2FIT                  
 Basis size:  1246
 Attributes:
 Sphericals:   T
 Basis set:  RI                      
 Basis size:   730
 Attributes:
 Sphericals:   T
 Basis set:  TDDFT                   
 Basis size:  1246
 Attributes:
 Sphericals:   T

 PROGRAM * CCSD (Closed-shell coupled cluster)     Authors: C. Hampel, H.-J. Werner, 1991, M. Deegan, P.J. Knowles, 1992

                                  CCSD-F12 implementation by  H.-J. Werner, 2007

                   Density fitting integral evaluation by F.R. Manby, 2003,2007, G. Knizia, 2010



 Convergence thresholds:  THRVAR = 1.00D-08  THRDEN = 1.00D-10

 CCSD(T)     terms to be evaluated (factor= 1.000)


 Number of core orbitals:           1 (   1 )
 Number of closed-shell orbitals:   4 (   4 )
 Number of external orbitals:     729 ( 729 )

 Molecular orbitals read from record     2102.2  Type=RHF/CANONICAL (state 1.1)

 MP2-F12 correlation treatment (H.-J. Werner, 2006)
 ==================================================

 Using MP2-F12 with ansatz 3C(FIX)

 Using projected zeroth-order Hamiltonian (+Z)

 FOCKRIB=T FOCKRIC=T FOCKRIP=T CABSP=T CABSA=T CABSK=T CABSF=T GBC=F EBC=F DMAT=T NOFIK=T NOPAO=1 SOLVE=-1  USEPAO=0
 EXCH_A= T EXCH_B= F EXCH_C= F EXCH_P= F

 Geminal basis:    OPTFULL  GEM_TYPE=SLATER  BETA=1.0  NGEM=6

 Optimizing Gaussian exponents for each gem_beta

 Geminal optimization for beta= 1.0000
 Weight function:   m=0, omega= 1.4646

 Augmented Hessian optimization of geminal fit. Trust ratio= 0.40000
 Convergence reached after   2 iterations. Final gradient= 8.53D-16, Step= 4.26D-06, Delta= 1.28D-09

 Alpha:                 0.19532     0.81920     2.85917     9.50073    35.69989   197.79328
 Coeff:                 0.27070     0.30552     0.18297     0.10986     0.06810     0.04224


 All pairs explicitly correlated. Number of r12-pairs:           10

 Excluding core orbitals from MO domains

 AO(A)-basis ORBITAL           loaded. Number of functions:     734
 RI(R)-basis RI                loaded. Number of functions:     730
 DF-basis JKFIT                loaded. Number of functions:    1104

 Screening thresholds:   THRAO=  1.00D-10  THRMO=  1.00D-09  THRPROD=  1.00D-09
                         THRSW=  1.00D-05  THROV=  1.00D-12  THRAOF12= 1.00D-10

 CPU time for Fock operators                      9.74 sec

 Construction of ABS:
 Smallest eigenvalue of S          2.27E-04  (threshold= 1.00E-08)
 Ratio eigmin/eigmax               3.94E-05  (threshold= 1.00E-09)
 Smallest eigenvalue of S kept     2.27E-04  (threshold= 2.27E-04, 0 functions deleted, 730 kept)

 Construction of CABS:
 Smallest eigenvalue of S          9.56E-09  (threshold= 1.00E-08)
 Ratio eigmin/eigmax               9.56E-09  (threshold= 1.00E-09)
 Smallest eigenvalue of S kept     8.11E-08  (threshold= 8.11E-08, 1 functions deleted, 729 kept)

 CPU time for CABS singles                        1.25 sec

 CABS-singles contribution of  -0.00004075 patched into reference energy.
 New reference energy         -40.21670762

 AO(A)-basis ORBITAL           loaded. Number of functions:     734
 RI(R)-basis RI                loaded. Number of functions:     730
 DF-basis MP2FIT               loaded. Number of functions:    1246

 Screening thresholds:   THRAO=  1.00D-10  THRMO=  1.00D-09  THRPROD=  1.00D-09
                         THRSW=  1.00D-05  THROV=  1.00D-12  THRAOF12= 1.00D-10

 CPU time for 3-index integral evaluation        29.83 sec
 CPU time for first  half transformation          3.50 sec ( 4200.2 MFLOP/sec)
 CPU time for second half transformation          0.04 sec ( 1506.9 MFLOP/sec)
 CPU time for sorting                             0.14 sec
 CPU time for fitting                             0.36 sec (25254.3 MFLOP/sec)
 CPU time for tilde quantities                    0.51 sec (13443.0 MFLOP/sec)
 CPU time for assembly                            1.43 sec (22477.8 MFLOP/sec)
 CPU time for tranop_f12                          1.68 sec (23986.6 MFLOP/sec)
 CPU time for f12 integrals (total)              40.21 sec, Elapsed time:     42.52 sec
 F12-matrices built in  4 passes.
 F12-matrices built in  4 passes.
 F12-matrices built in  4 passes.
 F12-matrices built in  4 passes.
 FC-matrix built in  4 passes.
 CPU time for f12 matrices (total)                1.43 sec, Elapsed time:      1.48 sec

 Diagonal F12 approximation with fixed coefficients:  TSING= 0.500,  TTRIP= 0.250 (scaled by -1/beta)

 DF-MP2-F12 energy corrections:
 ==============================
 Approx.                                    Singlet             Triplet             Total
 DF-MP2-F12/3*C(DX,FIX)                -0.003932767863     -0.000212999846     -0.004145767709
 DF-MP2-F12/3*C(FIX)                   -0.003769575731     -0.000160864575     -0.003930440306
 DF-MP2-F12/3C(FIX)                    -0.003816388882     -0.000163887460     -0.003980276342

 DF-MP2-F12 correlation energies:
 ================================
 Approx.                                    Singlet             Triplet             Ecorr            Total Energy
 DF-MP2                                -0.157870858614     -0.056825046672     -0.214695905286    -40.431403525889
 DF-MP2-F12/3*C(DX,FIX)                -0.161803626476     -0.057038046518     -0.218841672995    -40.435549293598
 DF-MP2-F12/3*C(FIX)                   -0.161640434345     -0.056985911247     -0.218626345592    -40.435333966195
 DF-MP2-F12/3C(FIX)                    -0.161687247496     -0.056988934133     -0.218676181629    -40.435383802232

 SCS-DF-MP2 energies (F_SING= 1.20000  F_TRIP= 0.62222  F_PARALLEL= 0.33333):
 ============================================================================
 SCS-DF-MP2                            -0.224802837155    -40.441510457758
 SCS-DF-MP2-F12/3*C(DX,FIX)            -0.229654691828    -40.446362312431
 SCS-DF-MP2-F12/3*C(FIX)               -0.229426421545    -40.446134042148
 SCS-DF-MP2-F12/3C(FIX)                -0.229484478233    -40.446192098836
 Symmetry transformation completed.

 Number of N-1 electron functions:               4
 Number of N-2 electron functions:              10
 Number of singly external CSFs:              2916
 Number of doubly external CSFs:           4252986
 Total number of CSFs:                     4255903

 Pair and operator lists are different

 Length of J-op  integral file:             411.24 MB
 Length of K-op  integral file:             721.80 MB
 Length of 3-ext integral record:             0.00 MB

 Memory could be reduced to 2535.14 Mwords without degradation in triples

 Integral transformation finished. Total CPU: 654.05 sec, npass=  1  Memory used:1009.99 MW

 Reference energy:                    -40.21670762

 Adding F12 terms to K(Cij), methodcc=6,  factor= 1.0

 ITER.      SQ.NORM     CORR.ENERGY   TOTAL ENERGY   ENERGY CHANGE        DEN1      VAR(S)    VAR(P)  DIIS     TIME  TIME/IT
   1      1.07033691    -0.22827353   -40.44498115    -0.01357091    -0.00771642  0.62D-03  0.94D-03  1  1   900.20   206.36
   2      1.07515867    -0.22923067   -40.44593829    -0.00095715    -0.00531232  0.16D-04  0.11D-03  2  2  1084.20   203.62
   3      1.07694845    -0.22929803   -40.44600565    -0.00006735    -0.00133791  0.22D-05  0.64D-05  3  3  1267.21   202.36
   4      1.07735127    -0.22930046   -40.44600809    -0.00000244    -0.00021863  0.16D-06  0.39D-06  4  4  1455.75   203.12
   5      1.07740858    -0.22930403   -40.44601165    -0.00000357    -0.00000966  0.14D-07  0.24D-07  5  5  1635.03   201.75
   6      1.07741882    -0.22930269   -40.44601031     0.00000134    -0.00000403  0.90D-09  0.19D-08  6  6  1818.74   201.64
   7      1.07742036    -0.22930229   -40.44600992     0.00000040    -0.00000091  0.56D-10  0.13D-09  6  1  2003.71   201.69
   8      1.07742029    -0.22930235   -40.44600997    -0.00000006     0.00000024  0.62D-11  0.89D-11  6  3  2193.71   202.35
   9      1.07742043    -0.22930234   -40.44600996     0.00000002    -0.00000009  0.42D-12  0.62D-12  6  2  2376.41   202.02
  10      1.07742043    -0.22930233   -40.44600996     0.00000000     0.00000001  0.59D-13  0.65D-13  6  4  2569.46   202.82
  11      1.07742043    -0.22930233   -40.44600995     0.00000000    -0.00000000  0.60D-14  0.66D-14  6  5  2752.51   202.54
  12      1.07742043    -0.22930233   -40.44600995     0.00000000     0.00000000  0.17D-15  0.66D-15  6  6  2938.86   202.57
  13      1.07742043    -0.22930233   -40.44600995    -0.00000000     0.00000000  0.13D-16  0.73D-16  6  1  3130.12   202.98
  14      1.07742043    -0.22930233   -40.44600995    -0.00000000     0.00000000  0.19D-17  0.11D-16  6  3  3325.19   203.62

 Norm of t1 vector:      0.03268892      S-energy:     0.00000000      T1 diagnostic:  0.00817223
                                                                       D1 diagnostic:  0.01311255

 Adding energy correction from Wij-K(Fij), methodcc=6  factor= 1.0

  CCSD correlation energy              -0.229302333120
  MP2-F12 correction (uncoupled)       -0.003883555049
  C*T doubles correction               -0.000068755457
  f12b correction                       0.001100085681

 Total CPU time for triples:    674.02 sec

  Ecorr(MP2)                           -0.214702619864
  Ecorr(MP2-F12)                       -0.218682896206
  Scale factor for triples energy       1.018538555071


 RESULTS
 =======

  Reference energy                    -40.216666873675
  F12 singles correction               -0.000040746928

 F12 singles corrections added to reference energy

  New reference energy                -40.216707620603

  F12a singlet correction              -0.003781115571
  F12a triplet correction              -0.000171194934
  F12a total correction                -0.003952310506

 F12a corrections for ansatz F12/3C(FIX) added to CCSD energy

  CCSD-F12a singlet pair energy        -0.178096078612
  CCSD-F12a triplet pair energy        -0.055158565019
  CCSD-F12a correlation energy         -0.233254643626

  Triples (T) contribution (scaled)    -0.007109343505
  Total correlation energy             -0.240363987131

  CCSD-F12a total energy              -40.449962264229
  CCSD[T]-F12a energy                 -40.457307222523
  CCSD-T-F12a energy                  -40.457003764803
 !CCSD(T)-F12a total energy           -40.457071607734

 F12b corrections for ansatz F12/3C(FIX) added to CCSD(T)-F12a energy

  CCSD-F12b singlet pair energy        -0.177025119928
  CCSD-F12b triplet pair energy        -0.055129438021
  CCSD-F12b correlation energy         -0.232154557945

  Triples (T) contribution (scaled)    -0.007109343505
  Total correlation energy             -0.239263901449

  CCSD-F12b total energy              -40.448862178548
  CCSD[T]-F12b energy                 -40.456207136842
  CCSD-T-F12b energy                  -40.455903679121
 !CCSD(T)-F12b total energy           -40.455971522052

 Timing summary (sec):

 STEP                 CPU(USER)    SYS     CPU(TOT)    WALL
 Transformation        654.55     27.94    682.49    683.80
 CCSD iterations      2615.85    234.34   2850.19   2851.08
 Triples               674.02      6.97    680.99    681.03
 MP2-F12                54.97      2.92     57.89     57.98
 F12b energy           185.96     15.43    201.39    201.38

 Program statistics:

 Available memory in ccsd:              3999999866
 Min. memory needed in ccsd:              19260852
 Max. memory used in ccsd:                22423154
 Max. memory used in cckext:              14628952 (15 integral passes)



 **********************************************************************************************************************************
 DATASETS  * FILE   NREC   LENGTH (MB)   RECORD NAMES
              1      19     6330.34       500      610      700      900      950      970     1000      129      960     1100   
                                          VAR    BASINP    GEOM    SYMINP    ZMAT    AOBASIS   BASIS     P2S    ABASIS      S 
                                         1400     1410     1200     1210     1080     1600     1650     1700     1380   
                                           T        V       H0       H01     AOSYM     SMH    MOLCAS    OPER     JKOP   

              2       9       62.49       700     1000      520     2100     7360     7350      200     2101     2102   
                                         GEOM     BASIS   MCVARS     RHF    F12ABS    EF12    OPTIONS    RHF      RHF  

 PROGRAMS   *        TOTAL   CCSD(T)    HF-SCF       INT   CCSD(T)    HF-SCF       INT   CCSD(T)    HF-SCF       INT
 CPU TIMES  *     29883.72   4185.53   1993.64      0.57   4640.34   2031.65      0.59  12836.46   2300.46   1894.20
 REAL TIME  *     32408.61 SEC
 DISK USED  *        14.29 GB (local),      555.67 GB (total)
 SF USED    *        17.68 GB
 GA USED    *         4.87 MB       (max)       0.00 MB       (current)
 **********************************************************************************************************************************
 Molecular orbitals read from record     2102.2  Type=RHF/CANONICAL (state 1.1)
 Occupation numbers read from record     2102.2  Type=RHF/RHF (state 1.1)
 Orbital energies read from record       2102.2  Type=RHF/CANONICAL (state 1.1)
 Redundancy group numbers read from rec  2102.2  Type=RHF/RHF (state 1.1)

 CCSD(T)-F12/aug-cc-pV5Z energy=    -40.455971522052

     CCSD(T)-F12          HF-SCF     CCSD(T)-F12          HF-SCF     CCSD(T)-F12          HF-SCF
    -40.45597152    -40.21666687    -76.37322282    -76.06426317   -116.82944306   -116.28022877
 **********************************************************************************************************************************
 Molpro calculation terminated
